Title
81335
    1CHL1    C3    1   4.481   5.635  10.515 -0.1297 -0.1724 -0.0242
    1CHL1    H3    2   4.585   5.674  10.505  0.1514 -0.9867 -0.3268
    1CHL1    O3    3   4.453   5.635  10.655 -0.3433 -0.0203 -0.4447
    1CHL1   H3'    4   4.392   5.709  10.666  0.5200  0.5011  1.2248
    1CHL1    C4    5   4.382   5.727  10.442 -0.5334 -0.9848 -0.5138
    1CHL1   H4A    6   4.281   5.695  10.476 -1.4331 -0.3764 -2.4275
    1CHL1   H4B    7   4.398   5.831  10.477 -0.0970 -1.3780  0.4865
    1CHL1    C5    8   4.403   5.724  10.298  0.2953 -0.2155 -0.3400
    1CHL1    C6    9   4.427   5.833  10.227  0.2877 -0.3989 -0.6623
    1CHL1    H6   10   4.444   5.925  10.285 -3.0382 -2.8426  5.0117
    1CHL1    C7   11   4.427   5.835  10.082 -0.5727 -0.5132  0.7280
    1CHL1   H7A   12   4.392   5.931  10.039 -0.9847 -1.1186 -0.3262
    1CHL1   H7B   13   4.531   5.828  10.046 -1.4086  0.1664 -2.0048
    1CHL1    C8   14   4.360   5.703  10.010  0.7624 -0.6750  0.6267
    1CHL1    H8   15   4.251   5.724  10.016  0.7302 -0.0889 -1.3979
    1CHL1   C14   16   4.398   5.697   9.862  0.0981 -0.2866 -1.0645
    1CHL1   H14   17   4.507   5.676   9.859  0.6144  1.4926  1.5176
    1CHL1   C15   18   4.383   5.830   9.785 -0.0594  0.2145 -0.5736
    1CHL1  H15A   19   4.302   5.894   9.826  0.5772  1.8301 -1.7191
    1CHL1  H15B   20   4.477   5.890   9.781 -0.5078  1.0037  0.2142
    1CHL1   C16   21   4.355   5.780   9.639  0.0907  0.4144 -0.7235
    1CHL1  H16A   22   4.250   5.805   9.612  0.4996  0.6602 -2.1575
    1CHL1  H16B   23   4.430   5.816   9.565  1.1911  1.4111  0.8045
    1CHL1   C17   24   4.367   5.629   9.644  0.5460 -0.1666 -0.3743
    1CHL1   H17   25   4.475   5.606   9.630  0.4323 -1.2599  0.3815
    1CHL1   C13   26   4.328   5.588   9.791 -0.5784  0.1809  0.8363
    1CHL1   C18   27   4.176   5.591   9.807 -0.1284  0.7403  0.0729
    1CHL1  H18A   28   4.136   5.571   9.909  1.3424 -1.1379  0.3368
    1CHL1  H18B   29   4.137   5.686   9.764 -1.9554  0.0778  0.1948
    1CHL1  H18C   30   4.138   5.512   9.740  1.2197  2.7226 -3.3038
    1CHL1   C12   31   4.391   5.453   9.849  0.5162 -0.8566 -0.1553
    1CHL1  H12A   32   4.366   5.358   9.798 -1.9120 -0.4314  0.0832
    1CHL1  H12B   33   4.500   5.467   9.836  0.7719 -2.1341  0.4941
    1CHL1   C11   34   4.361   5.456  10.000 -0.2980  0.5553  0.1187
    1CHL1  H11A   35   4.251   5.446  10.008 -0.6173  2.7568 -0.7708
    1CHL1  H11B   36   4.412   5.367  10.042  0.3834  1.4320  1.2047
    1CHL1    C9   37   4.408   5.584  10.077  0.4155  0.6132 -0.6227
    1CHL1    H9   38   4.518   5.579  10.064  0.6447  0.0656  1.2339
    1CHL1   C10   39   4.382   5.582  10.230  0.4486  0.0004 -0.9735
    1CHL1   C19   40   4.236   5.523  10.249 -1.2087  0.0959 -0.1766
    1CHL1  H19A   41   4.198   5.545  10.351  2.1310 -0.4364  1.3083
    1CHL1  H19B   42   4.166   5.567  10.174 -2.7811  1.6141  2.0338
    1CHL1  H19C   43   4.240   5.412  10.242  0.5889  0.1302 -0.0776
    1CHL1    C1   44   4.485   5.494  10.305  0.0222 -0.0377 -0.2387
    1CHL1   H1A   45   4.469   5.390  10.270  0.6431 -0.4109  0.5533
    1CHL1   H1B   46   4.584   5.526  10.265 -1.6799  2.7785 -2.6520
    1CHL1    C2   47   4.473   5.491  10.462 -0.8237 -0.3545  0.8560
    1CHL1   H2A   48   4.545   5.421  10.511  1.0416  0.6360 -0.3721
    1CHL1   H2B   49   4.376   5.441  10.483 -1.1775 -1.0105 -1.9907
    1CHL1   C20   50   4.296   5.575   9.521  1.4969  0.8993  0.5773
    1CHL1   H20   51   4.189   5.605   9.517  1.6683  1.3995 -1.1732
    1CHL1   C21   52   4.299   5.421   9.523 -0.3063 -0.0228 -0.5531
    1CHL1  H21A   53   4.404   5.388   9.540 -0.7253 -0.2236  2.0872
    1CHL1  H21B   54   4.272   5.371   9.428 -1.0426 -0.2056 -0.2530
    1CHL1  H21C   55   4.226   5.381   9.597 -0.1403 -3.7972 -2.2088
    1CHL1   C22   56   4.361   5.616   9.388  0.4208 -0.2037 -0.0651
    1CHL1  H22A   57   4.293   5.561   9.318  0.0548 -0.8929  0.8060
    1CHL1  H22B   58   4.359   5.725   9.367  1.8266 -0.2583 -0.5467
    1CHL1   C23   59   4.502   5.572   9.363  0.4802  0.4820  0.4399
    1CHL1  H23A   60   4.576   5.630   9.422  0.3380 -0.4999  1.6334
    1CHL1  H23B   61   4.509   5.462   9.376  0.4957  0.4739  0.3630
    1CHL1   C24   62   4.552   5.576   9.219  0.0253  0.0059  0.4613
    1CHL1  H24A   63   4.652   5.528   9.216  0.6556  0.5482  5.3614
    1CHL1  H24B   64   4.482   5.525   9.150 -0.2368  0.7441  0.1657
    1CHL1   C25   65   4.570   5.721   9.160 -0.1216 -0.2209  0.5602
    1CHL1   H25   66   4.484   5.784   9.191  2.0767  2.3333  1.9322
    1CHL1   C26   67   4.699   5.802   9.212 -0.1903  0.3135 -0.1505
    1CHL1  H26A   68   4.788   5.736   9.207 -1.0044 -0.9373  1.2701
    1CHL1  H26B   69   4.725   5.887   9.145 -0.7106  0.7225  0.1621
    1CHL1  H26C   70   4.685   5.845   9.314  1.1401  0.3807  0.0177
    1CHL1   C27   71   4.570   5.724   9.008 -0.1094 -0.8591 -0.1001
    1CHL1  H27A   72   4.573   5.825   8.963  0.5290 -0.6887  0.3154
    1CHL1  H27B   73   4.654   5.665   8.966  0.4303 -1.1622  1.3631
    1CHL1  H27C   74   4.487   5.659   8.974  0.2793 -0.3928 -2.0342
    2CHL1    C3   75   6.177   4.980  10.191 -0.8831 -0.2415  0.2007
    2CHL1    H3   76   6.074   5.021  10.184 -2.8820 -4.5900  0.4549
    2CHL1    O3   77   6.188   4.934  10.327  0.5645 -0.1658 -0.1563
    2CHL1   H3'   78   6.183   5.018  10.372  0.0380  0.0769 -0.6699
    2CHL1    C4   79   6.194   4.864  10.099 -0.1504  0.1471 -0.0093
    2CHL1   H4A   80   6.293   4.819  10.123 -0.2815 -0.9723 -1.4010
    2CHL1   H4B   81   6.114   4.791  10.122  2.7118 -2.1855  3.7564
    2CHL1    C5   82   6.187   4.917   9.953  0.0635  0.4778  0.4025
    2CHL1    C6   83   6.094   4.871   9.867  0.2666 -0.4391  0.0916
    2CHL1    H6   84   6.019   4.792   9.884  0.6103 -1.1155 -1.3645
    2CHL1    C7   85   6.090   4.914   9.722  0.1044  0.4015  0.3208
    2CHL1   H7A   86   6.083   4.820   9.663 -0.3103  1.5629 -1.5718
    2CHL1   H7B   87   6.000   4.975   9.695  2.1634  1.4366 -5.6068
    2CHL1    C8   88   6.218   4.992   9.673 -0.3006  0.0048  0.3988
    2CHL1    H8   89   6.291   4.910   9.656 -1.6911 -1.5449  1.4814
    2CHL1   C14   90   6.187   5.052   9.540 -0.2300 -0.0971  0.2233
    2CHL1   H14   91   6.103   5.124   9.554 -0.6603 -0.0656 -2.1282
    2CHL1   C15   92   6.133   4.955   9.433  0.0077 -0.3163  0.0855
    2CHL1  H15A   93   6.190   4.861   9.420 -0.9247 -0.6837 -1.6396
    2CHL1  H15B   94   6.026   4.930   9.453  0.0914 -0.1598  0.7620
    2CHL1   C16   95   6.154   5.038   9.305  0.3581 -0.5025  0.2599
    2CHL1  H16A   96   6.204   4.962   9.241 -0.1700 -1.8547  1.3978
    2CHL1  H16B   97   6.054   5.076   9.276  0.2831  0.7134  1.9641
    2CHL1   C17   98   6.245   5.158   9.347  0.0644  0.3416 -0.8640
    2CHL1   H17   99   6.182   5.249   9.360 -0.4287 -0.2646  1.5232
    2CHL1   C13  100   6.296   5.129   9.486 -1.6489  0.0039  0.6737
    2CHL1   C18  101   6.422   5.038   9.465  0.1891 -0.6582 -0.5899
    2CHL1  H18A  102   6.500   5.099   9.415 -1.2756  2.4009  0.6315
    2CHL1  H18B  103   6.471   5.003   9.559 -1.9114  0.2178  0.9070
    2CHL1  H18C  104   6.395   4.951   9.401  1.1691 -1.8082  0.4917
    2CHL1   C12  105   6.335   5.246   9.577  0.4281  0.1071 -0.3547
    2CHL1  H12A  106   6.414   5.315   9.540 -1.0882  2.2309  0.1737
    2CHL1  H12B  107   6.244   5.309   9.582  0.3321  0.2257 -2.4465
    2CHL1   C11  108   6.377   5.196   9.720  0.0437 -0.6700  0.1652
    2CHL1  H11A  109   6.477   5.147   9.725 -0.4157 -1.5051  1.7758
    2CHL1  H11B  110   6.373   5.285   9.786 -0.5073  0.5457 -1.4294
    2CHL1    C9  111   6.273   5.095   9.775  0.0400 -0.8773 -0.4095
    2CHL1    H9  112   6.190   5.168   9.783 -0.1865 -1.2031  0.2189
    2CHL1   C10  113   6.298   5.029   9.917 -0.4638  0.6162 -0.0023
    2CHL1   C19  114   6.443   4.973   9.921 -0.8821 -0.0863  0.3164
    2CHL1  H19A  115   6.466   4.915   9.829  1.5332 -0.6327  1.2016
    2CHL1  H19B  116   6.517   5.056   9.928 -0.0974 -0.6210 -1.2397
    2CHL1  H19C  117   6.453   4.901  10.004 -1.5849 -2.5478 -1.6175
    2CHL1    C1  118   6.285   5.144  10.024 -0.2949 -0.1852 -0.0350
    2CHL1   H1A  119   6.369   5.215  10.011  0.5746 -0.6850  2.3777
    2CHL1   H1B  120   6.189   5.196  10.000 -0.5279 -1.5861 -2.4994
    2CHL1    C2  121   6.284   5.092  10.167  0.0702 -0.2831  0.4173
    2CHL1   H2A  122   6.262   5.177  10.235 -0.4033  0.0260 -0.1098
    2CHL1   H2B  123   6.386   5.064  10.198  1.1557  3.2242  0.5120
    2CHL1   C20  124   6.341   5.189   9.227  0.4075 -0.1791  0.2023
    2CHL1   H20  125   6.413   5.105   9.215  0.7233 -0.3455  2.6229
    2CHL1   C21  126   6.416   5.319   9.249  0.6791 -0.1497 -0.3650
    2CHL1  H21A  127   6.503   5.316   9.179 -0.7348 -0.8454 -2.1622
    2CHL1  H21B  128   6.467   5.324   9.348 -0.5592 -0.6793  0.3299
    2CHL1  H21C  129   6.354   5.409   9.236  1.0428  0.2909  0.7635
    2CHL1   C22  130   6.262   5.201   9.094 -0.4137  0.2403  0.7912
    2CHL1  H22A  131   6.238   5.103   9.047 -0.8823  0.9340 -0.4517
    2CHL1  H22B  132   6.163   5.246   9.117 -0.8457 -1.3368  2.2451
    2CHL1   C23  133   6.339   5.275   8.989  0.1593  0.1271 -0.1070
    2CHL1  H23A  134   6.353   5.381   9.018  1.3840  0.7496 -2.7817
    2CHL1  H23B  135   6.436   5.234   8.956 -0.0721 -1.9221  1.5309
    2CHL1   C24  136   6.253   5.298   8.863 -0.0096  0.2459 -0.3065
    2CHL1  H24A  137   6.204   5.203   8.833  2.4445 -1.1553 -0.1486
    2CHL1  H24B  138   6.170   5.365   8.893  1.1454  0.8411  1.7885
    2CHL1   C25  139   6.323   5.346   8.739 -0.1680 -0.2689 -0.5264
    2CHL1   H25  140   6.408   5.408   8.776 -0.6916 -0.1137  0.4291
    2CHL1   C26  141   6.383   5.237   8.655 -0.1126 -0.3348  0.0246
    2CHL1  H26A  142   6.438   5.277   8.568 -2.5623 -0.9383 -1.9064
    2CHL1  H26B  143   6.450   5.177   8.721  1.4733  0.9512 -0.3657
    2CHL1  H26C  144   6.301   5.172   8.618 -1.0605  0.4565  0.6985
    2CHL1   C27  145   6.230   5.441   8.662 -0.4142 -0.1284  0.1754
    2CHL1  H27A  146   6.143   5.388   8.617 -1.5614  2.3835 -0.7584
    2CHL1  H27B  147   6.190   5.515   8.734 -1.2681  0.9075 -1.3028
    2CHL1  H27C  148   6.277   5.495   8.577  1.1473 -2.2190 -0.3691
    3CHL1    C3  149   5.890   5.422  10.380 -0.3573  0.5029  0.2019
    3CHL1    H3  150   5.987   5.459  10.420 -0.0109  0.0907 -0.2521
    3CHL1    O3  151   5.810   5.377  10.486 -0.3366  0.2992  0.0566
    3CHL1   H3'  152   5.810   5.455  10.541  2.6632 -0.1098  0.8205
    3CHL1    C4  153   5.828   5.547  10.319 -0.3408 -0.2068  0.0873
    3CHL1   H4A  154   5.722   5.524  10.296 -1.1020  0.9553  2.2030
    3CHL1   H4B  155   5.821   5.631  10.391 -1.6406  0.0924 -0.3611
    3CHL1    C5  156   5.899   5.593  10.197  0.2168 -0.0538  0.3341
    3CHL1    C6  157   5.933   5.721  10.177  0.6478  0.2341  0.9401
    3CHL1    H6  158   5.915   5.790  10.260  0.4785  2.8069 -1.0930
    3CHL1    C7  159   5.959   5.783  10.044  0.1622 -0.3462 -0.2009
    3CHL1   H7A  160   5.903   5.879  10.043  0.8228  0.0813  1.3122
    3CHL1   H7B  161   6.062   5.823  10.040  0.4068 -1.0761 -2.1755
    3CHL1    C8  162   5.941   5.683   9.935 -0.5285 -0.8936  0.7793
    3CHL1    H8  163   5.833   5.692   9.912 -0.2642 -0.7502 -0.4437
    3CHL1   C14  164   6.020   5.735   9.813 -0.7035 -0.4311 -0.3232
    3CHL1   H14  165   6.128   5.733   9.840  0.0242  1.7191 -2.6242
    3CHL1   C15  166   5.999   5.880   9.773  0.7166 -1.0594  0.4047
    3CHL1  H15A  167   5.890   5.898   9.759  0.5756  0.2857  2.5952
    3CHL1  H15B  168   6.046   5.961   9.834  0.7224  1.1939 -2.3761
    3CHL1   C16  169   6.069   5.880   9.640  0.2066 -0.6839  0.1673
    3CHL1  H16A  170   6.011   5.928   9.558 -1.1459 -1.8788  0.3825
    3CHL1  H16B  171   6.145   5.956   9.668 -0.9885 -0.4808  3.2991
    3CHL1   C17  172   6.116   5.737   9.600  0.5374  0.7696 -0.2446
    3CHL1   H17  173   6.218   5.732   9.642 -0.1768 -0.4226  1.4397
    3CHL1   C13  174   6.019   5.649   9.682 -0.6358 -0.0993  0.8826
    3CHL1   C18  175   5.878   5.647   9.611  0.5992  0.0217  0.1840
    3CHL1  H18A  176   5.888   5.564   9.538 -0.1637  1.1474 -1.2579
    3CHL1  H18B  177   5.787   5.633   9.674 -1.3584 -0.3436 -2.5420
    3CHL1  H18C  178   5.863   5.747   9.565  1.9470  0.4183  0.5607
    3CHL1   C12  179   6.061   5.505   9.722  0.5602  0.4017  0.2916
    3CHL1  H12A  180   6.051   5.432   9.638 -0.3832 -0.5587  1.2119
    3CHL1  H12B  181   6.169   5.509   9.750  0.2902 -0.8727  1.6636
    3CHL1   C11  182   5.970   5.451   9.834 -0.5446  0.4261 -0.6689
    3CHL1  H11A  183   5.866   5.447   9.795  0.3896 -1.4336 -3.2191
    3CHL1  H11B  184   6.008   5.347   9.849  2.1718  0.6844 -4.5117
    3CHL1    C9  185   5.981   5.544   9.961 -0.3735  0.7639 -0.6400
    3CHL1    H9  186   6.090   5.541   9.983 -0.3891  0.5789 -0.5840
    3CHL1   C10  187   5.911   5.484  10.092 -0.1397 -0.3899  0.4537
    3CHL1   C19  188   5.765   5.439  10.046 -0.6924 -0.3279  0.2062
    3CHL1  H19A  189   5.719   5.520   9.986 -1.8253 -1.7977 -0.9869
    3CHL1  H19B  190   5.767   5.354   9.975 -1.5082  0.6425 -1.0246
    3CHL1  H19C  191   5.709   5.407  10.137 -0.3269  0.1943  0.6249
    3CHL1    C1  192   5.977   5.356  10.154 -0.0792 -1.1603 -0.2734
    3CHL1   H1A  193   5.986   5.269  10.086  3.3971 -0.6544 -0.6493
    3CHL1   H1B  194   6.083   5.385  10.172 -0.7188  0.0231  2.1424
    3CHL1    C2  195   5.921   5.310  10.286 -0.4634 -0.0400  0.3957
    3CHL1   H2A  196   5.993   5.234  10.321 -2.3442 -1.1489  2.0856
    3CHL1   H2B  197   5.828   5.259  10.253 -0.5279  0.5930 -0.4386
    3CHL1   C20  198   6.122   5.718   9.444  0.4822 -0.5863 -0.7675
    3CHL1   H20  199   6.030   5.749   9.390  0.5184 -0.9113 -1.0187
    3CHL1   C21  200   6.167   5.567   9.419  0.0651  0.6720 -0.3345
    3CHL1  H21A  201   6.089   5.491   9.440  1.2490 -1.0644 -1.8743
    3CHL1  H21B  202   6.253   5.540   9.484  0.0556 -0.0782 -0.6359
    3CHL1  H21C  203   6.202   5.530   9.320 -0.9941 -2.7576  0.4412
    3CHL1   C22  204   6.228   5.819   9.383  0.3416 -0.1640 -0.1803
    3CHL1  H22A  205   6.203   5.925   9.403 -1.1291 -0.8309  1.8779
    3CHL1  H22B  206   6.324   5.799   9.435  0.9799  1.4909 -0.6781
    3CHL1   C23  207   6.269   5.806   9.231  0.5374 -0.3286 -0.4191
    3CHL1  H23A  208   6.370   5.847   9.211  2.2507 -3.4475  1.1307
    3CHL1  H23B  209   6.291   5.700   9.208 -1.0416 -0.6206 -0.7290
    3CHL1   C24  210   6.172   5.887   9.137 -0.5076 -0.2595  0.0521
    3CHL1  H24A  211   6.074   5.835   9.147 -1.4782  1.1686 -1.4411
    3CHL1  H24B  212   6.158   5.993   9.166 -1.5771  0.4623 -2.7786
    3CHL1   C25  213   6.247   5.890   8.997  0.5949  1.5162 -0.4113
    3CHL1   H25  214   6.345   5.936   9.023  1.5565 -0.6690  0.0948
    3CHL1   C26  215   6.275   5.752   8.931  0.9286 -0.3552  0.1257
    3CHL1  H26A  216   6.345   5.690   8.990 -1.3824 -2.9348  0.3776
    3CHL1  H26B  217   6.183   5.693   8.909  0.8644 -0.1473 -0.1659
    3CHL1  H26C  218   6.322   5.781   8.834  0.1889  1.7276  0.3428
    3CHL1   C27  219   6.185   5.969   8.887  0.4139  0.2013  0.2646
    3CHL1  H27A  220   6.144   6.069   8.914  0.4330 -0.3781  2.6783
    3CHL1  H27B  221   6.267   5.993   8.816  0.2963 -2.6556 -0.9467
    3CHL1  H27C  222   6.111   5.905   8.834 -3.6274  2.1491  3.0137
    4CHL1    C3  223   6.352   6.082  10.359 -0.3783 -0.0076  1.4488
    4CHL1    H3  224   6.284   5.999  10.330 -0.8481  0.8700 -0.0580
    4CHL1    O3  225   6.361   6.052  10.498  0.0661  0.1650  0.4576
    4CHL1   H3'  226   6.415   6.126  10.527  0.8281  0.5600 -1.8016
    4CHL1    C4  227   6.483   6.084  10.281  0.5000  0.7415  0.0729
    4CHL1   H4A  228   6.521   6.183  10.316 -2.1600  1.7396  0.3572
    4CHL1   H4B  229   6.551   6.003  10.313  1.4509  2.6249  3.3176
    4CHL1    C5  230   6.460   6.088  10.134  0.4891 -0.0822 -0.0652
    4CHL1    C6  231   6.501   5.985  10.054  0.2440 -0.0901  0.3122
    4CHL1    H6  232   6.541   5.901  10.112  0.0310 -0.2340  0.2538
    4CHL1    C7  233   6.478   5.987   9.909 -0.3466 -0.3247  0.0128
    4CHL1   H7A  234   6.556   5.937   9.848  2.0016  0.3862  2.2377
    4CHL1   H7B  235   6.377   5.942   9.897 -0.7535  0.2197  1.1719
    4CHL1    C8  236   6.448   6.131   9.859  0.0550 -0.6934 -0.2783
    4CHL1    H8  237   6.540   6.192   9.872 -0.0572 -0.0790 -2.0699
    4CHL1   C14  238   6.420   6.137   9.705  0.0449  0.5138 -0.3749
    4CHL1   H14  239   6.345   6.061   9.677 -0.0213  1.2239 -2.2468
    4CHL1   C15  240   6.553   6.107   9.618  0.3133  0.2800  0.1186
    4CHL1  H15A  241   6.633   6.173   9.656  0.6380 -0.7433  1.2918
    4CHL1  H15B  242   6.594   6.005   9.633  1.0915  0.7209  1.1317
    4CHL1   C16  243   6.500   6.144   9.477  0.4458  0.3860  0.1626
    4CHL1  H16A  244   6.570   6.204   9.415  0.7793 -0.6139 -0.4369
    4CHL1  H16B  245   6.476   6.045   9.432 -0.9698  0.6216  0.3332
    4CHL1   C17  246   6.370   6.229   9.495  0.4101 -0.2497 -0.2097
    4CHL1   H17  247   6.284   6.158   9.503  0.3684 -0.1224  0.5778
    4CHL1   C13  248   6.370   6.263   9.648  0.6791 -0.5876  0.0883
    4CHL1   C18  249   6.474   6.380   9.674 -0.1708  0.2638 -0.1164
    4CHL1  H18A  250   6.442   6.461   9.604 -0.0730  0.1349 -0.3097
    4CHL1  H18B  251   6.482   6.411   9.780 -0.7907  0.9596 -0.2644
    4CHL1  H18C  252   6.577   6.356   9.640 -1.3681 -2.5235 -2.0807
    4CHL1   C12  253   6.230   6.289   9.723 -0.1692  0.1945  0.1040
    4CHL1  H12A  254   6.183   6.383   9.686 -1.1146 -0.6299 -0.8828
    4CHL1  H12B  255   6.165   6.203   9.697  1.4604 -0.9212 -0.3945
    4CHL1   C11  256   6.241   6.304   9.874  0.3513 -0.1122  0.3641
    4CHL1  H11A  257   6.290   6.402   9.894 -2.3729  1.5072 -0.3306
    4CHL1  H11B  258   6.137   6.299   9.910  0.3069  0.0815  0.2639
    4CHL1    C9  259   6.333   6.187   9.939  0.1808  0.1323 -0.8830
    4CHL1    H9  260   6.251   6.113   9.941  0.3905 -0.0831  0.0642
    4CHL1   C10  261   6.373   6.203  10.088 -0.5128 -0.6512 -0.0421
    4CHL1   C19  262   6.452   6.334  10.103 -0.6121 -0.2373 -0.3251
    4CHL1  H19A  263   6.559   6.334  10.072 -0.0441  3.0279  1.2159
    4CHL1  H19B  264   6.415   6.417  10.039  1.0093  1.2493  0.5475
    4CHL1  H19C  265   6.451   6.384  10.203 -3.7441  3.2545 -1.8445
    4CHL1    C1  266   6.243   6.206  10.177 -0.8808 -0.3613  0.8142
    4CHL1   H1A  267   6.176   6.292  10.156 -0.5178 -0.3610 -0.4463
    4CHL1   H1B  268   6.178   6.120  10.149 -0.7341 -0.0371 -0.6120
    4CHL1    C2  269   6.275   6.206  10.331  0.0121 -0.0558 -0.1997
    4CHL1   H2A  270   6.187   6.219  10.397  0.9715 -0.6415  1.2257
    4CHL1   H2B  271   6.335   6.297  10.352 -1.1427  0.2289  2.2552
    4CHL1   C20  272   6.345   6.338   9.391 -0.0876 -0.1782 -0.0083
    4CHL1   H20  273   6.421   6.419   9.393 -0.9397  0.6813 -1.3846
    4CHL1   C21  274   6.207   6.411   9.416 -0.5374  0.4838 -0.2021
    4CHL1  H21A  275   6.192   6.476   9.327 -1.2272 -3.0841 -2.8781
    4CHL1  H21B  276   6.216   6.477   9.506  0.7600 -0.1813  0.1827
    4CHL1  H21C  277   6.131   6.331   9.426 -0.9635  1.0188  1.1132
    4CHL1   C22  278   6.351   6.287   9.240  0.0224  0.8454  0.4037
    4CHL1  H22A  279   6.444   6.226   9.239 -1.0742 -0.9011 -0.3167
    4CHL1  H22B  280   6.268   6.217   9.218  2.0333 -1.6984  0.3153
    4CHL1   C23  281   6.370   6.394   9.138  0.3598 -0.3794 -0.2330
    4CHL1  H23A  282   6.299   6.478   9.156 -0.2207 -0.5125 -1.7681
    4CHL1  H23B  283   6.472   6.438   9.147 -1.0557  3.5325 -1.2774
    4CHL1   C24  284   6.339   6.335   8.996  0.1833  0.2044 -0.3379
    4CHL1  H24A  285   6.411   6.251   8.987 -2.8351 -2.7955  1.2645
    4CHL1  H24B  286   6.238   6.290   8.983  0.4732 -0.7190  0.5115
    4CHL1   C25  287   6.372   6.448   8.890  0.6661  0.0537 -0.2246
    4CHL1   H25  288   6.296   6.528   8.898  1.7776  1.0189  1.0519
    4CHL1   C26  289   6.511   6.514   8.906 -0.2545  0.2344 -0.6570
    4CHL1  H26A  290   6.589   6.443   8.870  0.9141  2.1522 -2.0790
    4CHL1  H26B  291   6.519   6.602   8.840 -1.1461  0.2411 -0.7736
    4CHL1  H26C  292   6.544   6.540   9.009 -2.4428 -0.9949  0.4451
    4CHL1   C27  293   6.359   6.373   8.753 -0.1269  0.5138 -0.5212
    4CHL1  H27A  294   6.360   6.448   8.671  1.1062 -0.7393 -1.7159
    4CHL1  H27B  295   6.448   6.310   8.733  0.3938  0.6384  1.2455
    4CHL1  H27C  296   6.269   6.308   8.748 -1.1210  1.7885  0.3219
    5CHL1    C3  297   5.050   3.563  10.282  0.6562 -0.4931 -0.1945
    5CHL1    H3  298   5.160   3.571  10.279  1.0801 -4.7448 -0.8742
    5CHL1    O3  299   5.002   3.572  10.414  0.4674 -0.2795  0.0721
    5CHL1   H3'  300   4.908   3.592  10.410  0.7263  1.1200  0.5894
    5CHL1    C4  301   4.993   3.672  10.194 -0.3787  0.2870  0.0961
    5CHL1   H4A  302   4.885   3.693  10.210 -0.2215  1.1220  0.1363
    5CHL1   H4B  303   5.044   3.763  10.233  2.8447 -0.8143 -1.2329
    5CHL1    C5  304   5.017   3.651  10.047 -0.1230  0.1426 -0.5249
    5CHL1    C6  305   5.086   3.743   9.982 -0.9829 -0.9451 -0.1409
    5CHL1    H6  306   5.112   3.836  10.034 -1.1096 -1.1318  0.2584
    5CHL1    C7  307   5.125   3.737   9.829 -0.2009  0.1725  0.6252
    5CHL1   H7A  308   5.096   3.835   9.786 -0.5688 -0.1838  0.0345
    5CHL1   H7B  309   5.235   3.722   9.821  0.2403  2.0726  2.4847
    5CHL1    C8  310   5.047   3.621   9.756  0.1606 -0.5900 -0.6538
    5CHL1    H8  311   4.943   3.656   9.739  0.1770 -0.3628 -0.2917
    5CHL1   C14  312   5.103   3.595   9.616  0.1565  0.1255 -0.0301
    5CHL1   H14  313   5.194   3.537   9.640 -1.4068 -3.0763 -1.3201
    5CHL1   C15  314   5.135   3.702   9.521 -0.0220 -0.5089 -0.2813
    5CHL1  H15A  315   5.051   3.776   9.513 -0.9742 -1.3453  1.4846
    5CHL1  H15B  316   5.222   3.767   9.544 -0.2513  0.8306 -2.7359
    5CHL1   C16  317   5.169   3.638   9.387  0.1141 -0.2761 -0.4538
    5CHL1  H16A  318   5.102   3.689   9.315  0.0079 -0.7352 -0.6844
    5CHL1  H16B  319   5.277   3.658   9.367 -0.0124  1.4890  0.4815
    5CHL1   C17  320   5.123   3.489   9.404 -1.0765  0.0557  0.0514
    5CHL1   H17  321   5.219   3.435   9.423 -0.6712  0.4256 -0.8833
    5CHL1   C13  322   5.036   3.489   9.530  0.1042  0.4812  0.2143
    5CHL1   C18  323   4.890   3.523   9.495 -0.3175 -0.2864  0.3709
    5CHL1  H18A  324   4.829   3.527   9.588  0.9958  0.4641  1.2201
    5CHL1  H18B  325   4.875   3.613   9.432  1.0195 -2.3126 -3.0862
    5CHL1  H18C  326   4.834   3.451   9.431 -0.5350  1.0058 -0.9203
    5CHL1   C12  327   5.039   3.358   9.612 -0.6016  0.8258  1.0183
    5CHL1  H12A  328   4.968   3.286   9.565 -1.2806  0.4812  2.5068
    5CHL1  H12B  329   5.140   3.311   9.608 -1.4449 -1.0595  0.6850
    5CHL1   C11  330   4.995   3.368   9.761  0.1467  1.0463 -0.0305
    5CHL1  H11A  331   4.885   3.378   9.750  0.1032  0.1869 -0.4648
    5CHL1  H11B  332   4.995   3.277   9.826 -2.3003  0.8420 -0.2243
    5CHL1    C9  333   5.044   3.495   9.840 -0.0567 -0.3320 -0.0800
    5CHL1    H9  334   5.151   3.480   9.867 -0.1034 -0.1769  0.1849
    5CHL1   C10  335   4.981   3.519   9.984 -0.6467 -0.2088 -0.3679
    5CHL1   C19  336   4.828   3.512   9.972  0.0920 -0.1627 -0.2603
    5CHL1  H19A  337   4.794   3.407   9.956 -0.9264  0.4091 -2.1208
    5CHL1  H19B  338   4.776   3.547  10.064 -0.9038 -0.6049 -0.6376
    5CHL1  H19C  339   4.790   3.574   9.888 -0.1213 -0.1047 -0.1214
    5CHL1    C1  340   5.032   3.409  10.083 -0.3739 -0.2267  0.9113
    5CHL1   H1A  341   4.990   3.311  10.050  3.0158 -1.8194  0.8877
    5CHL1   H1B  342   5.141   3.395  10.066 -0.9966 -2.9612 -1.7385
    5CHL1    C2  343   4.999   3.426  10.229 -0.3953  0.8566 -0.6981
    5CHL1   H2A  344   5.050   3.351  10.293 -0.6314  1.8075  0.6582
    5CHL1   H2B  345   4.889   3.419  10.237 -0.2968  0.2414  0.4067
    5CHL1   C20  346   5.069   3.422   9.277  0.1132  0.0595 -0.3072
    5CHL1   H20  347   4.980   3.477   9.241 -0.4810  1.6901  3.2154
    5CHL1   C21  348   5.025   3.278   9.279  0.1609 -0.0362  0.1062
    5CHL1  H21A  349   4.941   3.262   9.350 -0.2953 -0.7812 -0.5882
    5CHL1  H21B  350   5.106   3.214   9.319 -1.0646 -2.3942 -1.0110
    5CHL1  H21C  351   5.001   3.240   9.177  1.5616  0.2720 -0.3575
    5CHL1   C22  352   5.180   3.433   9.167 -0.2646 -0.1161 -0.7073
    5CHL1  H22A  353   5.241   3.524   9.186 -0.0328 -0.7884  2.3991
    5CHL1  H22B  354   5.246   3.344   9.175  1.1320  0.8210 -1.4369
    5CHL1   C23  355   5.123   3.441   9.024 -0.6600  0.2954 -0.4911
    5CHL1  H23A  356   5.041   3.367   9.029 -0.8159  0.5210  0.4830
    5CHL1  H23B  357   5.087   3.545   9.009 -0.8807  0.2274 -0.4283
    5CHL1   C24  358   5.222   3.402   8.916 -0.0532  0.4947  0.5507
    5CHL1  H24A  359   5.323   3.439   8.944  2.2896 -3.7662 -1.2072
    5CHL1  H24B  360   5.247   3.294   8.911  1.5156  0.7983  1.2039
    5CHL1   C25  361   5.179   3.452   8.774  0.1835 -0.1570  0.5125
    5CHL1   H25  362   5.190   3.562   8.779  0.7274 -0.1689 -0.1561
    5CHL1   C26  363   5.286   3.398   8.681  0.4310 -0.2430 -0.1266
    5CHL1  H26A  364   5.265   3.445   8.582 -0.9241 -1.3679 -0.4074
    5CHL1  H26B  365   5.392   3.419   8.705  0.1360  0.3849  0.6402
    5CHL1  H26C  366   5.283   3.291   8.650 -1.8688 -0.1320 -0.4510
    5CHL1   C27  367   5.031   3.419   8.744 -0.3580 -0.0100  0.5435
    5CHL1  H27A  368   5.009   3.445   8.638  0.5598  0.3230  0.4293
    5CHL1  H27B  369   5.010   3.310   8.750 -0.9228 -0.0252 -1.1095
    5CHL1  H27C  370   4.956   3.465   8.813 -2.1222 -2.3997  0.3728
    6CHL1    C3  371   3.093   1.725  10.686 -0.6043  0.2647  0.0936
    6CHL1    H3  372   3.199   1.754  10.671 -1.0076  0.6125 -2.3970
    6CHL1    O3  373   3.039   1.757  10.812  0.0773  0.0994  0.9001
    6CHL1   H3'  374   2.945   1.751  10.794  0.5216 -1.8419 -1.1322
    6CHL1    C4  375   3.020   1.804  10.572  0.7698  0.1640 -0.0877
    6CHL1   H4A  376   2.910   1.787  10.572  0.6822  0.6970  0.2884
    6CHL1   H4B  377   3.031   1.914  10.580  0.6947  0.4418 -3.0473
    6CHL1    C5  378   3.053   1.768  10.426  0.1939 -0.8203 -0.3531
    6CHL1    C6  379   3.102   1.849  10.334  0.9548 -0.9294  0.1635
    6CHL1    H6  380   3.116   1.955  10.363  0.3341 -1.0552  0.9470
    6CHL1    C7  381   3.140   1.817  10.192  0.1698 -0.0165 -0.4453
    6CHL1   H7A  382   3.075   1.882  10.129  2.9663  2.7675 -0.6740
    6CHL1   H7B  383   3.246   1.822  10.161 -0.2356 -1.5848 -2.3075
    6CHL1    C8  384   3.099   1.668  10.160  0.4552 -0.5107  0.5937
    6CHL1    H8  385   2.991   1.669  10.132  0.3177 -1.5719  1.0197
    6CHL1   C14  386   3.180   1.635  10.037  1.2043 -0.3789 -0.2252
    6CHL1   H14  387   3.291   1.632  10.047  1.4817 -0.1874 -2.5478
    6CHL1   C15  388   3.167   1.732   9.919  0.4327 -0.9022 -1.4975
    6CHL1  H15A  389   3.060   1.752   9.897  0.0453 -2.5034 -1.1908
    6CHL1  H15B  390   3.226   1.826   9.922 -0.6194 -0.2457  0.2972
    6CHL1   C16  391   3.220   1.647   9.802  0.3631  0.7103  0.2229
    6CHL1  H16A  392   3.169   1.683   9.710 -0.4491  1.8724  1.0920
    6CHL1  H16B  393   3.327   1.678   9.797 -0.0146  2.6058  2.4257
    6CHL1   C17  394   3.213   1.496   9.840 -0.2052  0.2201 -0.4195
    6CHL1   H17  395   3.322   1.476   9.849  0.0011  1.0631 -0.9892
    6CHL1   C13  396   3.142   1.493   9.980 -0.0487  0.2334 -0.2146
    6CHL1   C18  397   2.993   1.498   9.942 -0.1055 -0.2515 -0.0925
    6CHL1  H18A  398   2.962   1.402   9.896 -1.7316  0.3536 -0.3346
    6CHL1  H18B  399   2.930   1.515  10.032  0.5077 -1.4199  0.5782
    6CHL1  H18C  400   2.958   1.579   9.875 -0.9029 -0.1195  0.4623
    6CHL1   C12  401   3.187   1.394  10.088  0.9796  0.2654  0.4180
    6CHL1  H12A  402   3.173   1.286  10.067 -0.0578  0.4898 -0.0800
    6CHL1  H12B  403   3.296   1.416  10.099  1.0207 -0.7694  2.5018
    6CHL1   C11  404   3.113   1.425  10.224 -0.1754 -0.2383 -0.0090
    6CHL1  H11A  405   3.006   1.402  10.205  0.2546 -1.6444 -0.8533
    6CHL1  H11B  406   3.157   1.354  10.297 -0.7510 -0.0731  0.5117
    6CHL1    C9  407   3.128   1.571  10.276  0.6102 -0.6943  0.5954
    6CHL1    H9  408   3.233   1.593  10.304  0.5031  0.2195  0.3054
    6CHL1   C10  409   3.050   1.613  10.402  0.0668 -0.0281  0.2868
    6CHL1   C19  410   2.900   1.573  10.382  0.1380  0.4910 -0.2407
    6CHL1  H19A  411   2.892   1.475  10.330 -1.6703  1.5962 -2.1795
    6CHL1  H19B  412   2.853   1.573  10.483  1.2594  1.9548  0.3097
    6CHL1  H19C  413   2.842   1.645  10.321 -0.1649  0.8211  0.4224
    6CHL1    C1  414   3.111   1.529  10.519 -0.4758  0.2705 -0.2295
    6CHL1   H1A  415   3.097   1.420  10.504  1.0929  0.3437 -3.0353
    6CHL1   H1B  416   3.220   1.552  10.522 -0.3143 -0.5493  0.8356
    6CHL1    C2  417   3.073   1.575  10.663  0.1877 -0.0051  0.0187
    6CHL1   H2A  418   3.127   1.515  10.739 -0.2419 -0.9094 -0.3844
    6CHL1   H2B  419   2.963   1.558  10.666  0.3897 -1.3582  0.3603
    6CHL1   C20  420   3.175   1.405   9.723 -0.5933 -0.0007 -0.6194
    6CHL1   H20  421   3.067   1.417   9.698 -0.5291  0.1190 -0.8368
    6CHL1   C21  422   3.185   1.256   9.765  0.4023 -0.0358  0.2597
    6CHL1  H21A  423   3.287   1.240   9.805  1.1132  0.0957 -1.4506
    6CHL1  H21B  424   3.153   1.189   9.683  2.3358  0.4020 -0.9068
    6CHL1  H21C  425   3.118   1.244   9.854 -1.2642 -2.1255 -1.1816
    6CHL1   C22  426   3.262   1.439   9.598 -0.1781  0.6412  0.1146
    6CHL1  H22A  427   3.209   1.532   9.567 -0.7209  0.2802 -0.0606
    6CHL1  H22B  428   3.371   1.446   9.618 -0.2577 -0.8656  1.2142
    6CHL1   C23  429   3.236   1.349   9.475  0.7925 -0.3428  0.3102
    6CHL1  H23A  430   3.261   1.244   9.500  0.2854 -1.5458 -3.6481
    6CHL1  H23B  431   3.128   1.357   9.449  0.9537  2.9996  0.2552
    6CHL1   C24  432   3.324   1.380   9.354 -0.4887 -0.0432 -0.5195
    6CHL1  H24A  433   3.430   1.377   9.389 -0.6214  0.5210 -0.0376
    6CHL1  H24B  434   3.305   1.302   9.277  0.4386 -0.8648  0.0413
    6CHL1   C25  435   3.308   1.514   9.285  0.3403 -0.3479  0.3669
    6CHL1   H25  436   3.311   1.589   9.367 -0.2306 -1.4160  1.4087
    6CHL1   C26  437   3.430   1.546   9.190 -0.2744  0.2936 -0.0172
    6CHL1  H26A  438   3.431   1.478   9.102  1.2899  1.0428 -0.6246
    6CHL1  H26B  439   3.426   1.648   9.146 -0.5093 -0.4009 -1.6812
    6CHL1  H26C  440   3.528   1.531   9.240  0.1571 -1.0475 -1.1893
    6CHL1   C27  441   3.173   1.532   9.208 -0.1938  1.0356  0.3726
    6CHL1  H27A  442   3.141   1.448   9.143 -2.0416  0.2489  2.2031
    6CHL1  H27B  443   3.092   1.533   9.283 -0.5134 -0.4043  0.0823
    6CHL1  H27C  444   3.184   1.629   9.155 -0.5916  0.8563 -0.0435
    7CHL1    C3  445   0.004   4.735  10.625  0.2071  0.3940  0.0699
    7CHL1    H3  446  -0.016   4.627  10.640 -2.0753  0.7527 -0.0266
    7CHL1    O3  447  -0.002   4.807  10.752  0.6632 -0.7861  0.2471
    7CHL1   H3'  448   0.091   4.817  10.770  0.1724  1.5626  1.9542
    7CHL1    C4  449   0.139   4.759  10.561  0.0169 -0.6845 -0.8468
    7CHL1   H4A  450   0.160   4.867  10.579 -1.5185 -0.5409  0.3407
    7CHL1   H4B  451   0.209   4.703  10.626 -1.6598  0.6430  2.3847
    7CHL1    C5  452   0.147   4.715  10.421  0.0929  0.7760  0.4437
    7CHL1    C6  453   0.249   4.637  10.373 -0.1915 -0.3070 -0.2136
    7CHL1    H6  454   0.329   4.609  10.443  0.1695 -0.7259 -0.7855
    7CHL1    C7  455   0.267   4.598  10.231 -0.7794 -0.7011  0.0887
    7CHL1   H7A  456   0.374   4.609  10.202 -0.3755  1.2201  2.0143
    7CHL1   H7B  457   0.248   4.489  10.223 -1.9149 -0.4391 -1.0733
    7CHL1    C8  458   0.193   4.681  10.134 -0.6302 -0.5542 -0.6386
    7CHL1    H8  459   0.242   4.781  10.127 -1.7256  0.0992  0.5154
    7CHL1   C14  460   0.188   4.613   9.997  1.2920  0.3451 -0.2635
    7CHL1   H14  461   0.144   4.512  10.014  0.0098  0.5544 -2.0910
    7CHL1   C15  462   0.321   4.584   9.928  0.5176 -0.0948  0.1050
    7CHL1  H15A  463   0.385   4.673   9.914 -0.3967  0.1935 -2.9723
    7CHL1  H15B  464   0.386   4.501   9.963  0.8453  0.3866  0.6517
    7CHL1   C16  465   0.274   4.545   9.786  0.1829 -0.2925  0.2719
    7CHL1  H16A  466   0.347   4.586   9.714  0.6352 -0.5682  0.5716
    7CHL1  H16B  467   0.272   4.436   9.765 -3.3683 -0.4512  0.7588
    7CHL1   C17  468   0.130   4.601   9.767 -0.3485 -0.5628 -0.2038
    7CHL1   H17  469   0.051   4.523   9.769 -2.4353  1.4543  0.0921
    7CHL1   C13  470   0.110   4.688   9.891 -0.4009  0.0119  0.4608
    7CHL1   C18  471   0.173   4.827   9.863  0.3596  0.9719 -0.8516
    7CHL1  H18A  472   0.267   4.819   9.805  0.1722 -2.3068 -0.9210
    7CHL1  H18B  473   0.093   4.880   9.807 -1.1924  1.1333  1.3593
    7CHL1  H18C  474   0.179   4.878   9.962  0.2793 -3.0282  1.4371
    7CHL1   C12  475  -0.034   4.706   9.951 -0.1949  0.6198  0.1873
    7CHL1  H12A  476  -0.096   4.756   9.874 -2.1739  1.3313  2.1548
    7CHL1  H12B  477  -0.081   4.606   9.962  0.3800  0.3142 -0.0991
    7CHL1   C11  478  -0.041   4.769  10.085  0.8463 -0.1401 -0.2484
    7CHL1  H11A  479  -0.010   4.875  10.072 -0.7598  0.4242  0.2825
    7CHL1  H11B  480  -0.150   4.771  10.104  0.4744 -0.3009 -2.1531
    7CHL1    C9  481   0.047   4.695  10.185 -0.0229 -0.6887 -0.3566
    7CHL1    H9  482   0.014   4.590  10.201 -0.0241 -0.4995  0.9807
    7CHL1   C10  483   0.040   4.766  10.326 -0.2059  0.1590  0.5734
    7CHL1   C19  484   0.060   4.925  10.315 -0.4214  0.3475 -0.9868
    7CHL1  H19A  485  -0.005   4.971  10.239 -0.5398 -0.9194 -1.6855
    7CHL1  H19B  486   0.034   4.986  10.404 -0.7136 -0.8426 -0.2374
    7CHL1  H19C  487   0.165   4.937  10.279  0.0857 -2.0906 -0.5160
    7CHL1    C1  488  -0.097   4.736  10.390 -0.3237  0.0893 -0.1268
    7CHL1   H1A  489  -0.177   4.769  10.321  1.7799  0.4134 -2.5650
    7CHL1   H1B  490  -0.104   4.625  10.386 -2.3136  0.1403  0.9795
    7CHL1    C2  491  -0.110   4.787  10.532  0.6649  0.5532  0.1441
    7CHL1   H2A  492  -0.208   4.752  10.572  1.2466 -1.3526  0.0247
    7CHL1   H2B  493  -0.101   4.898  10.535  3.5550  0.4404 -1.0672
    7CHL1   C20  494   0.118   4.666   9.627  0.1967 -0.4938 -0.8195
    7CHL1   H20  495   0.199   4.742   9.620  0.1956 -0.5693 -1.8283
    7CHL1   C21  496  -0.019   4.720   9.607 -0.0382  0.1525 -0.1046
    7CHL1  H21A  497  -0.099   4.654   9.647  0.6923 -0.6561  0.0577
    7CHL1  H21B  498  -0.039   4.727   9.498  2.3247  0.5053 -0.5701
    7CHL1  H21C  499  -0.036   4.822   9.649 -0.8210  0.1795 -0.4685
    7CHL1   C22  500   0.153   4.560   9.515 -0.2919 -0.5324  0.7565
    7CHL1  H22A  501   0.249   4.506   9.531  2.2373  2.6880 -1.9860
    7CHL1  H22B  502   0.064   4.495   9.502 -1.8403  1.8514 -1.4944
    7CHL1   C23  503   0.179   4.644   9.389 -0.4510  0.4024 -0.4941
    7CHL1  H23A  504   0.086   4.697   9.357 -0.4658 -0.0441 -1.2265
    7CHL1  H23B  505   0.256   4.721   9.409 -1.2175  0.8124  0.9767
    7CHL1   C24  506   0.225   4.555   9.275  0.2739  0.2489  0.5264
    7CHL1  H24A  507   0.322   4.506   9.297  0.5775  0.1848 -0.8737
    7CHL1  H24B  508   0.155   4.470   9.256  0.1801  0.3587  0.3742
    7CHL1   C25  509   0.246   4.633   9.141  0.2198 -0.6682 -0.9313
    7CHL1   H25  510   0.291   4.559   9.071  0.3924 -1.9686  0.4867
    7CHL1   C26  511   0.108   4.681   9.083 -0.5495  0.0848 -0.3670
    7CHL1  H26A  512   0.108   4.722   8.979  1.1802 -1.4991 -1.0571
    7CHL1  H26B  513   0.035   4.597   9.088  0.4716 -0.9338 -1.6255
    7CHL1  H26C  514   0.073   4.766   9.145 -0.9316  0.0417 -0.5232
    7CHL1   C27  515   0.335   4.755   9.152  0.1809  0.1348  0.9919
    7CHL1  H27A  516   0.294   4.844   9.203 -0.0875  0.9102 -0.5023
    7CHL1  H27B  517   0.432   4.730   9.199  0.4442  0.1332  0.4626
    7CHL1  H27C  518   0.368   4.788   9.051  2.1502  2.4878  2.3206
    8CHL1    C3  519   5.904   0.542  10.425 -0.8557 -0.5580  0.1809
    8CHL1    H3  520   5.799   0.575  10.415 -0.7797 -0.7670 -1.6518
    8CHL1    O3  521   5.946   0.529  10.562 -0.0690  0.0376 -0.3156
    8CHL1   H3'  522   6.039   0.551  10.551 -0.5969  1.4957 -2.3764
    8CHL1    C4  523   5.923   0.405  10.356  0.0596 -0.1610 -0.2605
    8CHL1   H4A  524   6.030   0.372  10.356 -0.6160 -2.6257  1.5342
    8CHL1   H4B  525   5.878   0.331  10.425 -0.9803  1.5888  1.0083
    8CHL1    C5  526   5.877   0.409  10.211  1.1741  0.5645  0.5270
    8CHL1    C6  527   5.776   0.336  10.162 -0.2988  0.0257 -0.8462
    8CHL1    H6  528   5.729   0.264  10.231  1.2884 -0.1844  0.0553
    8CHL1    C7  529   5.735   0.321  10.020 -0.7766  0.4832  0.3778
    8CHL1   H7A  530   5.713   0.217   9.987 -0.1492  1.4820 -3.7784
    8CHL1   H7B  531   5.640   0.380  10.013 -0.7976  0.3696 -0.3085
    8CHL1    C8  532   5.842   0.389   9.926 -0.1063 -0.2992 -0.2175
    8CHL1    H8  533   5.934   0.326   9.924  1.8148  2.3131  0.6341
    8CHL1   C14  534   5.786   0.401   9.787 -0.2118  0.1836 -0.7569
    8CHL1   H14  535   5.701   0.472   9.793 -0.0751  0.2670  0.4754
    8CHL1   C15  536   5.725   0.280   9.720  0.3181 -0.1687 -0.6320
    8CHL1  H15A  537   5.785   0.188   9.737  0.7179  0.2404  0.2392
    8CHL1  H15B  538   5.620   0.263   9.751 -0.1994  3.2485 -0.1478
    8CHL1   C16  539   5.729   0.307   9.571 -0.2646  0.5945  0.4133
    8CHL1  H16A  540   5.779   0.219   9.526  0.3328  0.4014  1.4123
    8CHL1  H16B  541   5.629   0.332   9.531  0.1791  0.7685 -0.6113
    8CHL1   C17  542   5.811   0.441   9.553 -0.2746 -0.1867  0.0427
    8CHL1   H17  543   5.739   0.526   9.553  2.1478  2.0387  2.1870
    8CHL1   C13  544   5.885   0.456   9.691  0.2781  0.4583  0.2194
    8CHL1   C18  545   6.014   0.382   9.693 -0.1805  0.1760  0.3738
    8CHL1  H18A  546   6.097   0.405   9.622  0.9605 -1.2360  1.2054
    8CHL1  H18B  547   6.071   0.390   9.788  0.5213 -3.0065  0.3119
    8CHL1  H18C  548   5.994   0.275   9.671 -0.4107  0.6330 -1.9203
    8CHL1   C12  549   5.913   0.603   9.734  0.1570  0.4955 -0.4345
    8CHL1  H12A  550   5.992   0.646   9.669  1.3003  1.3291  1.4432
    8CHL1  H12B  551   5.823   0.667   9.721  1.0374  2.1238  1.1363
    8CHL1   C11  552   5.962   0.619   9.880  0.0386 -0.3162  0.1993
    8CHL1  H11A  553   6.071   0.598   9.884 -0.2055 -1.5336  1.2198
    8CHL1  H11B  554   5.950   0.727   9.903  1.7745 -0.1376  0.4106
    8CHL1    C9  555   5.883   0.523   9.981 -0.4085  0.0689 -0.7682
    8CHL1    H9  556   5.788   0.575  10.003 -0.4556 -0.7623  1.2682
    8CHL1   C10  557   5.942   0.514  10.128 -0.4324  0.0007  0.1118
    8CHL1   C19  558   6.099   0.475  10.110  0.0331 -0.4361 -0.0427
    8CHL1  H19A  559   6.166   0.549  10.060  0.1645  0.7828  1.8599
    8CHL1  H19B  560   6.140   0.449  10.210  2.2312 -0.5481 -0.9054
    8CHL1  H19C  561   6.108   0.373  10.067  0.3200 -0.2783 -0.3662
    8CHL1    C1  562   5.933   0.657  10.196  0.4358  0.4906 -0.1329
    8CHL1   H1A  563   6.007   0.723  10.145  1.2007 -1.1467 -1.2199
    8CHL1   H1B  564   5.832   0.697  10.175  0.3720 -0.0200 -0.8140
    8CHL1    C2  565   5.975   0.652  10.347  0.3398  0.2830 -0.1053
    8CHL1   H2A  566   5.938   0.752  10.381  1.6715  1.9795 -3.2234
    8CHL1   H2B  567   6.085   0.653  10.357  0.4233  3.9383 -0.0516
    8CHL1   C20  568   5.884   0.438   9.415  0.3848  0.8658  0.2744
    8CHL1   H20  569   5.933   0.339   9.410 -1.8552 -0.2576 -1.4598
    8CHL1   C21  570   5.977   0.555   9.403  0.0502  0.5761 -0.1697
    8CHL1  H21A  571   5.924   0.653   9.403  0.2897  0.7067 -0.4325
    8CHL1  H21B  572   6.040   0.550   9.312  0.3273  0.6195  0.0190
    8CHL1  H21C  573   6.057   0.562   9.480  0.4661 -0.7004 -0.4604
    8CHL1   C22  574   5.785   0.439   9.292  0.2978  0.0230  0.5477
    8CHL1  H22A  575   5.738   0.339   9.284  0.6985 -0.2677  1.5914
    8CHL1  H22B  576   5.709   0.516   9.318  1.0935  0.7739  0.6828
    8CHL1   C23  577   5.845   0.470   9.155 -0.5142 -0.0933  0.3687
    8CHL1  H23A  578   5.879   0.575   9.139 -1.8466  0.1142 -1.4204
    8CHL1  H23B  579   5.930   0.399   9.141  0.4467  0.8313  1.3187
    8CHL1   C24  580   5.739   0.444   9.040 -0.3525 -0.0405  0.2682
    8CHL1  H24A  581   5.718   0.335   9.035 -0.7093  0.0673 -0.7053
    8CHL1  H24B  582   5.642   0.489   9.072 -1.2946 -0.8980 -1.2920
    8CHL1   C25  583   5.791   0.481   8.903 -0.2567  0.0436  0.0707
    8CHL1   H25  584   5.737   0.419   8.828 -1.1350 -0.4440  1.0817
    8CHL1   C26  585   5.757   0.632   8.880 -0.6714  0.5999  0.0050
    8CHL1  H26A  586   5.649   0.642   8.901 -0.5214 -0.1163  1.2406
    8CHL1  H26B  587   5.811   0.702   8.947 -1.1257  0.4810  0.5010
    8CHL1  H26C  588   5.786   0.672   8.780 -1.1533  4.1536  1.1348
    8CHL1   C27  589   5.943   0.449   8.884  0.3755 -0.2424 -0.1302
    8CHL1  H27A  590   5.953   0.342   8.914 -0.9582 -0.5813 -0.8165
    8CHL1  H27B  591   5.983   0.468   8.782 -0.0251 -2.7462 -0.8210
    8CHL1  H27C  592   6.003   0.512   8.953  1.2467 -1.5511  0.3615
    9CHL1    C3  593   3.388   2.690  10.193  0.5754 -0.6682 -0.4336
    9CHL1    H3  594   3.392   2.584  10.228 -0.5683 -0.3796  0.6130
    9CHL1    O3  595   3.382   2.770  10.311 -0.3340 -0.4725 -0.1377
    9CHL1   H3'  596   3.373   2.860  10.278  1.7209  0.3369  1.3605
    9CHL1    C4  597   3.521   2.714  10.109  0.1640 -0.1877  0.1658
    9CHL1   H4A  598   3.528   2.821  10.079  0.9388 -0.8491 -2.1983
    9CHL1   H4B  599   3.605   2.708  10.181 -0.8433  1.3542  1.5559
    9CHL1    C5  600   3.528   2.635   9.976  0.2412 -0.0154 -0.0969
    9CHL1    C6  601   3.628   2.557   9.937 -0.0308  0.6367 -0.7154
    9CHL1    H6  602   3.714   2.545  10.004 -0.1095  1.7362 -0.3975
    9CHL1    C7  603   3.640   2.486   9.806 -0.6205  0.1793 -0.0370
    9CHL1   H7A  604   3.740   2.496   9.760 -0.3584  0.1948  0.5326
    9CHL1   H7B  605   3.616   2.380   9.825 -1.4666  0.6724  1.9780
    9CHL1    C8  606   3.539   2.541   9.698  0.3318 -0.0643 -0.1704
    9CHL1    H8  607   3.573   2.638   9.658 -0.2731  1.1432  2.1027
    9CHL1   C14  608   3.529   2.445   9.585 -0.0348 -0.2969 -0.7717
    9CHL1   H14  609   3.488   2.349   9.625 -0.3621 -0.5047 -1.5718
    9CHL1   C15  610   3.665   2.400   9.520 -0.3159  0.0133  0.2299
    9CHL1  H15A  611   3.725   2.493   9.505 -2.1245  0.9529 -1.5760
    9CHL1  H15B  612   3.723   2.331   9.585 -1.6062 -2.3384 -1.0159
    9CHL1   C16  613   3.617   2.333   9.393 -0.1528  0.3169  0.0756
    9CHL1  H16A  614   3.680   2.354   9.304 -1.7664  0.5587 -1.0466
    9CHL1  H16B  615   3.618   2.223   9.408 -1.5088  0.5101  1.8364
    9CHL1   C17  616   3.467   2.372   9.367 -0.6867  0.7059  0.2036
    9CHL1   H17  617   3.398   2.288   9.389 -0.6313  0.7434  0.5250
    9CHL1   C13  618   3.442   2.488   9.474  0.1575 -0.3430  0.1062
    9CHL1   C18  619   3.495   2.612   9.404  0.9222 -0.9176  0.4034
    9CHL1  H18A  620   3.591   2.588   9.354  0.2132 -1.4280 -0.7556
    9CHL1  H18B  621   3.416   2.650   9.336  0.8982  1.7265  1.7531
    9CHL1  H18C  622   3.501   2.697   9.475 -0.4041 -1.5644  1.3389
    9CHL1   C12  623   3.302   2.509   9.530  0.6537  0.5075  0.2019
    9CHL1  H12A  624   3.217   2.529   9.461 -0.8859 -0.6236  1.6771
    9CHL1  H12B  625   3.277   2.411   9.577 -0.9678  0.8536  0.1380
    9CHL1   C11  626   3.291   2.604   9.645 -0.0994 -0.4699 -0.0427
    9CHL1  H11A  627   3.320   2.706   9.612  0.2282 -0.9218 -1.1935
    9CHL1  H11B  628   3.192   2.612   9.696  0.7352  2.0372  1.3449
    9CHL1    C9  629   3.399   2.565   9.756  0.2528 -0.2650  0.1632
    9CHL1    H9  630   3.360   2.467   9.791 -0.6458  0.0853  0.1707
    9CHL1   C10  631   3.396   2.656   9.887  0.4539  0.2240  0.1727
    9CHL1   C19  632   3.394   2.803   9.848  0.0867 -0.7821  0.0436
    9CHL1  H19A  633   3.478   2.829   9.780 -1.9093  2.0280 -1.5337
    9CHL1  H19B  634   3.294   2.823   9.805  0.0926 -1.9212 -0.5488
    9CHL1  H19C  635   3.399   2.876   9.932  2.1157  2.3794 -2.5501
    9CHL1    C1  636   3.266   2.629   9.970  0.2991 -0.1846  0.1467
    9CHL1   H1A  637   3.186   2.672   9.906 -1.4566 -0.0059  2.3223
    9CHL1   H1B  638   3.248   2.520   9.981 -1.1780  0.1139  1.0619
    9CHL1    C2  639   3.264   2.704  10.106  0.4537  0.2737 -0.8236
    9CHL1   H2A  640   3.170   2.671  10.156  1.5736  0.4283  1.5423
    9CHL1   H2B  641   3.264   2.814  10.099 -1.2474  0.2779 -1.2549
    9CHL1   C20  642   3.431   2.401   9.225  0.0850 -0.1440  0.2641
    9CHL1   H20  643   3.493   2.480   9.179 -1.0521  0.3399 -0.4697
    9CHL1   C21  644   3.278   2.438   9.208 -0.4644 -0.8074 -0.4455
    9CHL1  H21A  645   3.253   2.442   9.100 -0.3000  1.5389 -0.4369
    9CHL1  H21B  646   3.250   2.529   9.265  1.7393  0.5190 -1.3720
    9CHL1  H21C  647   3.222   2.353   9.252 -0.8098  0.0658  0.8598
    9CHL1   C22  648   3.444   2.283   9.125 -0.6570  0.6375 -0.0697
    9CHL1  H22A  649   3.529   2.223   9.163  0.4175  0.7102 -2.2077
    9CHL1  H22B  650   3.348   2.227   9.113 -0.9331  1.3780 -1.5196
    9CHL1   C23  651   3.495   2.328   8.987 -0.0410 -0.1350 -0.0257
    9CHL1  H23A  652   3.425   2.399   8.939 -1.0818 -1.1554 -0.0690
    9CHL1  H23B  653   3.593   2.381   8.986 -0.6209  0.9535 -0.2766
    9CHL1   C24  654   3.520   2.201   8.898 -0.0281  0.0282  0.8696
    9CHL1  H24A  655   3.595   2.222   8.819  0.4930  0.2367  1.4119
    9CHL1  H24B  656   3.560   2.113   8.952 -0.9515 -0.3586  0.9505
    9CHL1   C25  657   3.388   2.150   8.843 -0.0466 -0.4245 -0.1005
    9CHL1   H25  658   3.313   2.137   8.923 -0.4504  0.6366 -0.2921
    9CHL1   C26  659   3.335   2.240   8.740  0.2691  0.3414  0.9224
    9CHL1  H26A  660   3.239   2.209   8.693  1.9210  2.6797 -4.8812
    9CHL1  H26B  661   3.312   2.333   8.798 -1.8885 -0.6681  1.8046
    9CHL1  H26C  662   3.396   2.270   8.652 -0.2315 -0.9855  0.0971
    9CHL1   C27  663   3.412   2.015   8.781  0.0806 -0.0936  0.2863
    9CHL1  H27A  664   3.469   1.946   8.846 -0.0414 -1.2015 -0.7508
    9CHL1  H27B  665   3.307   1.981   8.768  0.4765 -0.3957 -3.4239
    9CHL1  H27C  666   3.446   2.020   8.675 -1.3640  0.1349 -0.1830
   10CHL1    C3  667   1.580   1.623  10.119 -0.2868  0.1460  0.6141
   10CHL1    H3  668   1.489   1.684  10.134  0.4786  0.8329  2.9415
   10CHL1    O3  669   1.623   1.568  10.242  0.5331  0.2573 -0.7036
   10CHL1   H3'  670   1.557   1.504  10.270  0.3481  0.2689 -1.1132
   10CHL1    C4  671   1.542   1.513  10.016 -0.1198 -0.8525 -0.4461
   10CHL1   H4A  672   1.626   1.441  10.009  1.5615  0.7244  1.8821
   10CHL1   H4B  673   1.458   1.456  10.062 -0.5277  1.1636  1.5132
   10CHL1    C5  674   1.503   1.571   9.881 -0.0514  1.0178  0.1014
   10CHL1    C6  675   1.400   1.526   9.805 -0.0081 -0.1176  0.3039
   10CHL1    H6  676   1.337   1.445   9.843 -0.2639 -0.9340 -1.7374
   10CHL1    C7  677   1.364   1.577   9.666  0.1061  0.1839  0.2064
   10CHL1   H7A  678   1.341   1.501   9.588  0.4401  0.6178 -0.3289
   10CHL1   H7B  679   1.275   1.643   9.678  1.3186  2.0575 -0.5964
   10CHL1    C8  680   1.476   1.671   9.605  0.8647  0.5133 -1.0186
   10CHL1    H8  681   1.558   1.609   9.564  1.6016  0.3991  0.5561
   10CHL1   C14  682   1.420   1.757   9.494  0.3659 -0.4834 -0.3788
   10CHL1   H14  683   1.340   1.816   9.545  0.3917 -2.0046  1.5584
   10CHL1   C15  684   1.347   1.668   9.385 -0.3268  0.0832 -0.2104
   10CHL1  H15A  685   1.415   1.580   9.386  0.6050  0.6351 -3.4420
   10CHL1  H15B  686   1.240   1.649   9.405 -0.2521 -1.2548 -0.9938
   10CHL1   C16  687   1.362   1.759   9.261 -0.5267  0.4293  0.0974
   10CHL1  H16A  688   1.432   1.702   9.197 -0.2942 -0.8889  1.4533
   10CHL1  H16B  689   1.265   1.785   9.215 -0.9560 -3.3483 -1.5782
   10CHL1   C17  690   1.438   1.881   9.308  0.6546 -0.3522  0.5360
   10CHL1   H17  691   1.353   1.943   9.342  0.7322 -0.4773  0.9594
   10CHL1   C13  692   1.517   1.842   9.431 -0.6670  0.0191 -0.4850
   10CHL1   C18  693   1.647   1.766   9.389  0.5370 -0.1257  0.0180
   10CHL1  H18A  694   1.620   1.665   9.351 -0.8055  0.3223 -0.2690
   10CHL1  H18B  695   1.702   1.821   9.310 -1.4579  0.9361 -0.7080
   10CHL1  H18C  696   1.715   1.755   9.476 -0.0494  2.0152  0.8160
   10CHL1   C12  697   1.531   1.956   9.538 -0.8527  0.5527 -1.3875
   10CHL1  H12A  698   1.602   2.029   9.494 -0.1399  2.2994  2.2373
   10CHL1  H12B  699   1.435   2.010   9.546 -0.9563  0.1807  0.2030
   10CHL1   C11  700   1.595   1.891   9.668  0.6285 -0.2342  0.4796
   10CHL1  H11A  701   1.697   1.858   9.640 -0.1861 -3.5774  1.0618
   10CHL1  H11B  702   1.597   1.964   9.751  0.5423  2.1018 -1.4382
   10CHL1    C9  703   1.521   1.763   9.715 -0.0692  0.3389 -0.5223
   10CHL1    H9  704   1.432   1.815   9.757  0.4775  0.6315  0.3014
   10CHL1   C10  705   1.591   1.685   9.826  0.1347  0.0397  0.3410
   10CHL1   C19  706   1.726   1.625   9.783 -0.1579  0.0351  0.3219
   10CHL1  H19A  707   1.705   1.545   9.709  0.8680  1.6950 -1.9152
   10CHL1  H19B  708   1.799   1.694   9.734 -0.9530  0.4508 -0.2939
   10CHL1  H19C  709   1.784   1.569   9.859  0.5573 -1.2218 -1.0800
   10CHL1    C1  710   1.636   1.787   9.933 -0.2016 -0.3275 -0.0971
   10CHL1   H1A  711   1.721   1.851   9.899 -0.0470 -0.0922  0.7196
   10CHL1   H1B  712   1.550   1.850   9.965 -0.6303 -1.9031  2.0475
   10CHL1    C2  713   1.682   1.728  10.070 -0.4998  0.0674  0.3067
   10CHL1   H2A  714   1.697   1.815  10.139 -1.3512  0.4134  0.0695
   10CHL1   H2B  715   1.782   1.682  10.057  0.7023  3.0509 -2.3152
   10CHL1   C20  716   1.505   1.955   9.192  0.4722  0.0048  0.6979
   10CHL1   H20  717   1.582   1.888   9.149 -0.6474 -0.3373 -0.8502
   10CHL1   C21  718   1.580   2.086   9.226 -0.5369 -0.5647  0.8003
   10CHL1  H21A  719   1.664   2.063   9.296 -0.3326  1.4700  1.2727
   10CHL1  H21B  720   1.523   2.163   9.281 -1.7147  0.6982 -2.0111
   10CHL1  H21C  721   1.611   2.131   9.130 -2.6321 -1.0314 -0.1315
   10CHL1   C22  722   1.414   1.984   9.062  0.3561  0.1439 -0.2830
   10CHL1  H22A  723   1.331   1.911   9.053 -0.4906  1.1907 -1.3662
   10CHL1  H22B  724   1.366   2.084   9.071 -0.0420 -0.0230 -0.5106
   10CHL1   C23  725   1.493   1.981   8.931 -0.2551 -0.6039 -0.3018
   10CHL1  H23A  726   1.575   2.056   8.932  0.8772 -1.7608 -1.5966
   10CHL1  H23B  727   1.540   1.880   8.936 -0.1070 -0.4924  0.8491
   10CHL1   C24  728   1.405   2.013   8.814  0.5575 -0.7670 -0.2020
   10CHL1  H24A  729   1.318   1.944   8.811 -0.7050  0.8248 -2.0659
   10CHL1  H24B  730   1.356   2.112   8.826  0.6360 -0.7072 -0.3769
   10CHL1   C25  731   1.468   2.000   8.676  0.0751  0.3802  0.5800
   10CHL1   H25  732   1.513   1.900   8.660  0.1179  0.3957  0.6024
   10CHL1   C26  733   1.357   2.019   8.574 -0.0658 -0.6089 -0.5499
   10CHL1  H26A  734   1.394   2.013   8.469 -2.4770  0.2794 -1.5013
   10CHL1  H26B  735   1.273   1.948   8.584  0.4020 -0.9460  1.4116
   10CHL1  H26C  736   1.321   2.124   8.584 -1.1506 -0.9501 -0.7420
   10CHL1   C27  737   1.583   2.099   8.641  0.9420  0.4551  0.5810
   10CHL1  H27A  738   1.636   2.060   8.552  1.5216 -1.1443  1.5839
   10CHL1  H27B  739   1.536   2.199   8.630  1.2255  0.3969 -1.5291
   10CHL1  H27C  740   1.651   2.103   8.728  2.8437  0.5942 -0.8507
   11CHL1    C3  741   3.333   0.994  10.331  0.3899  0.2915  0.2022
   11CHL1    H3  742   3.239   1.045  10.303  1.7070  3.6641  1.3709
   11CHL1    O3  743   3.340   1.000  10.472 -0.3636  0.2401  0.1215
   11CHL1   H3'  744   3.429   0.969  10.489 -0.2942 -0.0093 -0.6650
   11CHL1    C4  745   3.340   0.858  10.275  0.5772  1.5301  1.1781
   11CHL1   H4A  746   3.432   0.811  10.316  0.6815  1.7268  1.1656
   11CHL1   H4B  747   3.254   0.801  10.316  0.8096  0.4162  0.1784
   11CHL1    C5  748   3.337   0.841  10.128 -0.5287 -0.8379 -0.6373
   11CHL1    C6  749   3.252   0.766  10.063  0.3225 -0.5683 -0.1257
   11CHL1    H6  750   3.180   0.704  10.118  2.4098 -2.9579  0.0968
   11CHL1    C7  751   3.244   0.753   9.914 -0.4676 -0.4388  0.1883
   11CHL1   H7A  752   3.228   0.647   9.886  2.0408 -0.7724 -0.2062
   11CHL1   H7B  753   3.160   0.806   9.865  0.4446 -1.0521 -2.2069
   11CHL1    C8  754   3.372   0.801   9.847 -0.3915 -0.2128 -0.3890
   11CHL1    H8  755   3.457   0.732   9.866  0.1948  0.3704 -0.8795
   11CHL1   C14  756   3.348   0.815   9.693  0.3044 -0.5253  0.3930
   11CHL1   H14  757   3.260   0.883   9.684 -1.1186 -2.1979  1.1450
   11CHL1   C15  758   3.305   0.687   9.620 -0.3831  0.0559 -0.2679
   11CHL1  H15A  759   3.367   0.602   9.655 -0.0002  1.3471  2.4845
   11CHL1  H15B  760   3.198   0.657   9.629 -0.5376  0.9762  1.4555
   11CHL1   C16  761   3.346   0.714   9.470 -0.3312  0.1868 -0.6404
   11CHL1  H16A  762   3.435   0.651   9.451  0.0057  0.7045 -0.8002
   11CHL1  H16B  763   3.265   0.688   9.400 -0.0479 -0.1098 -0.8577
   11CHL1   C17  764   3.398   0.860   9.470 -0.5486  0.5308 -0.4047
   11CHL1   H17  765   3.305   0.920   9.463 -1.6035 -0.7471  1.5860
   11CHL1   C13  766   3.459   0.877   9.615 -0.2306 -0.1423 -0.2290
   11CHL1   C18  767   3.595   0.796   9.637 -0.0166 -0.6779  0.1785
   11CHL1  H18A  768   3.583   0.690   9.604 -0.9305 -0.1293 -1.3207
   11CHL1  H18B  769   3.671   0.842   9.571  0.2021  0.0417  0.9145
   11CHL1  H18C  770   3.642   0.812   9.736  2.6019  0.3514 -1.1269
   11CHL1   C12  771   3.479   1.020   9.666 -0.1075  0.6088  0.5711
   11CHL1  H12A  772   3.563   1.074   9.619  0.2481 -0.9187 -0.6543
   11CHL1  H12B  773   3.386   1.076   9.642 -0.1006  1.5512  2.5328
   11CHL1   C11  774   3.506   1.023   9.817 -0.1478  0.2259  0.1752
   11CHL1  H11A  775   3.610   0.984   9.827 -0.1604 -1.5023 -4.2613
   11CHL1  H11B  776   3.514   1.130   9.845  0.1963 -0.1735  1.7064
   11CHL1    C9  777   3.409   0.939   9.905  0.4128  0.1102 -0.1166
   11CHL1    H9  778   3.319   1.004   9.900 -0.1219 -0.6607 -3.5900
   11CHL1   C10  779   3.447   0.926  10.056  0.1069 -0.4008  0.0467
   11CHL1   C19  780   3.594   0.867  10.069 -0.3782  0.3031  0.4806
   11CHL1  H19A  781   3.601   0.838  10.176 -2.8564 -1.3127  0.2860
   11CHL1  H19B  782   3.593   0.778  10.003 -1.7172  0.8584 -0.2976
   11CHL1  H19C  783   3.671   0.938  10.031  0.1022 -0.1334  0.6396
   11CHL1    C1  784   3.446   1.071  10.113 -0.2543 -0.8161 -0.2308
   11CHL1   H1A  785   3.542   1.120  10.085 -1.1039  1.1813  0.1321
   11CHL1   H1B  786   3.366   1.132  10.067 -1.8146 -0.9853  2.1331
   11CHL1    C2  787   3.443   1.075  10.267  0.4692 -0.1507  0.3467
   11CHL1   H2A  788   3.449   1.176  10.313 -0.5900 -0.4601  1.2167
   11CHL1   H2B  789   3.541   1.040  10.306  1.1231 -0.4779 -1.4816
   11CHL1   C20  790   3.487   0.893   9.349  0.6178  0.0201  0.2546
   11CHL1   H20  791   3.585   0.843   9.360 -0.0416 -1.9528 -2.0069
   11CHL1   C21  792   3.534   1.032   9.337  0.5415 -0.2155 -0.2034
   11CHL1  H21A  793   3.446   1.098   9.354  0.2767 -0.9145  1.3232
   11CHL1  H21B  794   3.576   1.058   9.237 -0.1315  2.1956  0.0779
   11CHL1  H21C  795   3.622   1.053   9.402 -0.6122 -1.4441  1.8428
   11CHL1   C22  796   3.427   0.852   9.211 -0.0579  0.0089  0.2663
   11CHL1  H22A  797   3.486   0.904   9.133 -0.6391 -0.1619 -0.2869
   11CHL1  H22B  798   3.444   0.744   9.192  0.8347  0.4579 -1.6842
   11CHL1   C23  799   3.285   0.901   9.186  0.2540 -0.2487  0.3072
   11CHL1  H23A  800   3.206   0.848   9.243 -1.3991  1.0203 -0.6912
   11CHL1  H23B  801   3.273   1.003   9.227  1.4699  0.8703 -1.8902
   11CHL1   C24  802   3.244   0.905   9.033  1.0399  0.0311  0.0890
   11CHL1  H24A  803   3.321   0.952   8.969  1.7510 -2.6009 -1.1125
   11CHL1  H24B  804   3.228   0.799   9.002 -2.1922  0.1143  1.1023
   11CHL1   C25  805   3.103   0.980   9.006 -0.9507 -0.2479 -0.2913
   11CHL1   H25  806   3.040   0.952   9.093  3.8556 -3.1722  2.7753
   11CHL1   C26  807   3.135   1.132   9.015  0.7434  0.3054  0.1342
   11CHL1  H26A  808   3.040   1.189   9.006 -0.1404 -0.9777  1.0479
   11CHL1  H26B  809   3.180   1.159   9.113  1.2504  1.3073 -0.3622
   11CHL1  H26C  810   3.200   1.171   8.934  0.9422  0.0295  0.1591
   11CHL1   C27  811   3.035   0.946   8.878  0.1109 -0.8936  0.4407
   11CHL1  H27A  812   3.104   0.946   8.791 -3.0566 -0.4701 -2.2531
   11CHL1  H27B  813   3.003   0.841   8.892  0.8186 -1.4192 -1.5598
   11CHL1  H27C  814   2.947   1.012   8.863  0.6350  0.0687  1.3884
   12CHL1    C3  815   0.720   0.148  10.213  0.2142  0.0453 -0.8457
   12CHL1    H3  816   0.733   0.040  10.189 -1.2996 -0.1619 -0.7944
   12CHL1    O3  817   0.687   0.169  10.351 -0.0767  0.7697 -0.0121
   12CHL1   H3'  818   0.641   0.253  10.355 -0.5390  0.4832  1.1528
   12CHL1    C4  819   0.853   0.215  10.197  0.4539  0.6685  0.3032
   12CHL1   H4A  820   0.854   0.319  10.237  0.0436  0.9014 -0.2801
   12CHL1   H4B  821   0.925   0.163  10.265  1.1404  2.3068  0.8826
   12CHL1    C5  822   0.904   0.224  10.058 -0.5736 -0.2555 -0.3238
   12CHL1    C6  823   1.027   0.181  10.015  0.9317 -0.1128 -0.2236
   12CHL1    H6  824   1.100   0.143  10.088 -0.0043  1.9729  1.9475
   12CHL1    C7  825   1.086   0.188   9.880 -0.1785 -0.2547 -0.3191
   12CHL1   H7A  826   1.186   0.235   9.881 -0.5781  0.6467  2.1541
   12CHL1   H7B  827   1.099   0.082   9.849  3.5692  0.3903 -1.4200
   12CHL1    C8  828   0.996   0.276   9.781  0.2260 -0.2920 -0.1031
   12CHL1    H8  829   1.023   0.382   9.802  0.9123 -1.0272  3.2467
   12CHL1   C14  830   1.021   0.249   9.635  0.7976 -0.4165 -0.4260
   12CHL1   H14  831   0.975   0.150   9.614  0.0607 -0.1561 -0.0602
   12CHL1   C15  832   1.166   0.221   9.593  0.2235  0.4952 -0.5550
   12CHL1  H15A  833   1.235   0.299   9.632 -1.2057  1.4414  0.1631
   12CHL1  H15B  834   1.200   0.118   9.617  0.6346  1.0097  1.2320
   12CHL1   C16  835   1.163   0.241   9.440  0.0946  0.3424 -0.2644
   12CHL1  H16A  836   1.230   0.328   9.421  2.3899 -1.9291 -3.6968
   12CHL1  H16B  837   1.206   0.155   9.384  0.7874  1.0918 -0.9136
   12CHL1   C17  838   1.014   0.284   9.407 -0.4008 -0.2170 -0.2472
   12CHL1   H17  839   0.956   0.193   9.382 -0.9938 -0.2381  1.1371
   12CHL1   C13  840   0.950   0.341   9.540 -0.4861 -0.1032  0.6557
   12CHL1   C18  841   0.993   0.493   9.554  0.0321  0.0132 -0.3289
   12CHL1  H18A  842   0.931   0.549   9.480  0.8484  1.0097 -0.2749
   12CHL1  H18B  843   0.957   0.537   9.649  2.0056  1.3924 -0.1702
   12CHL1  H18C  844   1.102   0.501   9.538  0.1376 -0.0787  0.3518
   12CHL1   C12  845   0.801   0.311   9.549 -0.6044  0.1786  0.4595
   12CHL1  H12A  846   0.743   0.368   9.473 -0.4088 -0.8358 -0.4664
   12CHL1  H12B  847   0.788   0.205   9.520 -0.4553  0.8671 -2.4268
   12CHL1   C11  848   0.754   0.327   9.701 -0.1447  0.4056  0.4586
   12CHL1  H11A  849   0.741   0.436   9.714 -0.3874  0.6830 -1.7084
   12CHL1  H11B  850   0.649   0.290   9.705  0.3386 -1.4882 -1.8296
   12CHL1    C9  851   0.843   0.247   9.804 -0.1935  0.0959 -0.0074
   12CHL1    H9  852   0.822   0.138   9.794 -2.0475  0.4153  0.1029
   12CHL1   C10  853   0.801   0.270   9.953 -0.3932  0.3038 -0.2412
   12CHL1   C19  854   0.778   0.421   9.981 -0.9237  0.2782 -1.0268
   12CHL1  H19A  855   0.741   0.427  10.086 -1.9201  0.8732 -1.4037
   12CHL1  H19B  856   0.877   0.470   9.969  0.4044 -2.1406 -0.7342
   12CHL1  H19C  857   0.698   0.468   9.920 -0.4993  3.2300  0.5126
   12CHL1    C1  858   0.672   0.186   9.976 -0.2430 -0.5565 -0.3794
   12CHL1   H1A  859   0.585   0.201   9.909  0.0109  1.7081 -0.2918
   12CHL1   H1B  860   0.707   0.082   9.959  1.2565 -0.1299 -0.0978
   12CHL1    C2  861   0.615   0.200  10.122 -0.0520 -0.2572  0.2392
   12CHL1   H2A  862   0.526   0.134  10.125 -0.6139  0.2505 -2.4869
   12CHL1   H2B  863   0.589   0.302  10.156  2.6897 -0.1716  2.3890
   12CHL1   C20  864   1.012   0.372   9.279 -0.5704  0.2273 -0.3092
   12CHL1   H20  865   1.040   0.476   9.306 -0.3513 -0.0435  0.5474
   12CHL1   C21  866   0.868   0.385   9.235  0.1990 -0.2676 -0.0549
   12CHL1  H21A  867   0.816   0.287   9.245  0.3060 -0.2831  0.3403
   12CHL1  H21B  868   0.857   0.407   9.126 -1.6837 -0.8314 -0.0238
   12CHL1  H21C  869   0.820   0.468   9.292 -0.7563  1.0135 -2.5500
   12CHL1   C22  870   1.104   0.327   9.161  0.2820 -0.3741  0.0669
   12CHL1  H22A  871   1.206   0.321   9.206 -0.0685 -2.5714  0.7281
   12CHL1  H22B  872   1.081   0.230   9.112 -0.7216 -0.3699  0.5129
   12CHL1   C23  873   1.112   0.425   9.045  0.4585 -0.2652  0.1557
   12CHL1  H23A  874   1.024   0.418   8.978 -0.0053 -1.8217  0.9017
   12CHL1  H23B  875   1.131   0.528   9.082 -0.6397  0.4931 -1.2985
   12CHL1   C24  876   1.230   0.379   8.958 -0.6578 -0.1105 -0.6034
   12CHL1  H24A  877   1.314   0.394   9.029  0.1142  0.4568 -1.6134
   12CHL1  H24B  878   1.229   0.270   8.936  0.3317  0.0894 -1.7722
   12CHL1   C25  879   1.251   0.447   8.825 -0.1048  0.2068 -0.7388
   12CHL1   H25  880   1.338   0.396   8.778 -0.2018 -0.0408 -0.6539
   12CHL1   C26  881   1.129   0.429   8.729  0.1872  0.3182 -0.3700
   12CHL1  H26A  882   1.038   0.460   8.785  0.8918  0.5466  0.6698
   12CHL1  H26B  883   1.123   0.479   8.630  2.8321 -2.6944 -2.2092
   12CHL1  H26C  884   1.123   0.321   8.705 -0.3405 -0.0529  1.2958
   12CHL1   C27  885   1.276   0.600   8.843 -0.4479 -0.3166 -0.2886
   12CHL1  H27A  886   1.318   0.644   8.750  0.8361 -1.0120 -0.0512
   12CHL1  H27B  887   1.170   0.633   8.855 -0.1810  0.6259 -0.4910
   12CHL1  H27C  888   1.342   0.626   8.928  0.7945  0.0153 -1.3329
   13CHL1    C3  889   6.085   2.492   9.883  0.3432  0.0431  0.0555
   13CHL1    H3  890   6.141   2.396   9.871  0.9907  0.4248 -0.0336
   13CHL1    O3  891   6.051   2.501  10.017 -0.0411 -0.0326  0.5396
   13CHL1   H3'  892   6.130   2.498  10.070  1.8087  3.5320 -1.6322
   13CHL1    C4  893   6.183   2.610   9.853 -0.2750  0.5305 -0.2241
   13CHL1   H4A  894   6.130   2.704   9.876  1.2261  0.9838  1.6466
   13CHL1   H4B  895   6.275   2.604   9.914  0.5747 -0.7378 -1.5517
   13CHL1    C5  896   6.221   2.599   9.706 -0.4251 -0.6247 -0.6443
   13CHL1    C6  897   6.347   2.595   9.666 -0.2677  0.3006 -0.4212
   13CHL1    H6  898   6.423   2.618   9.741  0.0148  0.2121 -0.6757
   13CHL1    C7  899   6.408   2.591   9.529 -0.3147  0.2507  0.6403
   13CHL1   H7A  900   6.473   2.678   9.509 -0.8532  0.8865  1.5917
   13CHL1   H7B  901   6.465   2.496   9.515  1.6436  1.4734 -0.1486
   13CHL1    C8  902   6.292   2.606   9.428 -0.3160 -0.7220  0.5381
   13CHL1    H8  903   6.272   2.714   9.412  1.2145 -0.8450 -3.1828
   13CHL1   C14  904   6.337   2.554   9.288  0.3366  0.5386 -0.3567
   13CHL1   H14  905   6.362   2.451   9.322  2.0356  1.1660  0.4182
   13CHL1   C15  906   6.476   2.601   9.241  0.4737 -0.2585 -0.2024
   13CHL1  H15A  907   6.496   2.710   9.242 -0.9868  0.0287 -0.2301
   13CHL1  H15B  908   6.549   2.543   9.301 -0.1445 -0.6595  0.1823
   13CHL1   C16  909   6.474   2.555   9.087 -0.1153 -0.3024  0.1978
   13CHL1  H16A  910   6.497   2.652   9.037 -2.3408  0.3467  0.3169
   13CHL1  H16B  911   6.552   2.482   9.056 -0.1002 -0.0283 -0.4231
   13CHL1   C17  912   6.331   2.501   9.059 -0.3719  0.0558 -1.0771
   13CHL1   H17  913   6.338   2.391   9.071 -1.4030  0.1484  0.7451
   13CHL1   C13  914   6.241   2.556   9.173 -0.0286  0.0559  0.7928
   13CHL1   C18  915   6.203   2.707   9.140 -0.3936 -0.5252 -0.5880
   13CHL1  H18A  916   6.289   2.769   9.107  0.1292 -1.9499 -1.9899
   13CHL1  H18B  917   6.126   2.717   9.062  1.0324  2.9193 -1.7632
   13CHL1  H18C  918   6.160   2.752   9.233  0.2281  0.3809 -0.7171
   13CHL1   C12  919   6.122   2.465   9.219 -0.4163  0.4615  0.0354
   13CHL1  H12A  920   6.038   2.462   9.147 -0.5005 -0.6762  0.1558
   13CHL1  H12B  921   6.162   2.361   9.224 -0.8395  0.2641 -0.5557
   13CHL1   C11  922   6.070   2.516   9.354  0.1569  0.4083  0.0853
   13CHL1  H11A  923   6.038   2.617   9.320 -1.2475 -0.4441 -1.2748
   13CHL1  H11B  924   5.989   2.446   9.384  1.2210 -1.2017 -0.6650
   13CHL1    C9  925   6.172   2.523   9.466  0.0962 -0.5716 -0.5647
   13CHL1    H9  926   6.213   2.424   9.498  0.7949  0.3616  1.6583
   13CHL1   C10  927   6.107   2.577   9.601 -0.0620  0.1434  0.6210
   13CHL1   C19  928   6.034   2.710   9.570  0.1462  0.1685  0.3898
   13CHL1  H19A  929   5.949   2.708   9.499 -0.7548  1.4413  1.3924
   13CHL1  H19B  930   5.985   2.742   9.665 -0.7301 -0.9001  0.3271
   13CHL1  H19C  931   6.108   2.788   9.542 -0.0473 -0.7018 -2.9251
   13CHL1    C1  932   6.005   2.479   9.648 -0.0146 -1.2295 -0.1709
   13CHL1   H1A  933   5.919   2.490   9.579  1.4369  2.2593 -1.6779
   13CHL1   H1B  934   6.048   2.377   9.642 -0.6059 -1.6372  1.7183
   13CHL1    C2  935   5.963   2.498   9.789 -0.4086  0.3062 -0.1869
   13CHL1   H2A  936   5.883   2.424   9.811  0.8123 -2.4892 -4.0901
   13CHL1   H2B  937   5.913   2.595   9.808 -0.4814 -0.0041  1.3968
   13CHL1   C20  938   6.278   2.523   8.919 -0.5218  0.4393  0.0975
   13CHL1   H20  939   6.257   2.631   8.912  0.3391  0.7312  1.5796
   13CHL1   C21  940   6.139   2.452   8.900 -0.3209 -0.1890 -0.0551
   13CHL1  H21A  941   6.103   2.445   8.795  0.0418 -0.1980 -0.1819
   13CHL1  H21B  942   6.073   2.523   8.953  0.2585 -0.1606  0.6579
   13CHL1  H21C  943   6.144   2.355   8.955  1.0431 -0.0798  0.0551
   13CHL1   C22  944   6.380   2.481   8.812  0.4355  1.0589  0.1985
   13CHL1  H22A  945   6.482   2.522   8.828  1.1680 -0.9005  0.8563
   13CHL1  H22B  946   6.393   2.371   8.813 -2.2887  0.6281 -1.7781
   13CHL1   C23  947   6.346   2.537   8.671 -0.1369  0.3015  0.6339
   13CHL1  H23A  948   6.239   2.516   8.649  0.3800 -1.0540 -0.7224
   13CHL1  H23B  949   6.358   2.648   8.674 -0.9994  0.5141 -1.5624
   13CHL1   C24  950   6.435   2.474   8.554  0.0616  0.3790  0.1359
   13CHL1  H24A  951   6.536   2.472   8.601  1.6665 -0.5203 -3.0777
   13CHL1  H24B  952   6.399   2.371   8.535  0.5630  0.3413 -0.6477
   13CHL1   C25  953   6.440   2.550   8.422 -0.3270 -0.4109 -0.6169
   13CHL1   H25  954   6.346   2.535   8.365  0.4967  1.4779 -2.6118
   13CHL1   C26  955   6.451   2.704   8.434 -0.5237 -0.1430  0.4197
   13CHL1  H26A  956   6.448   2.744   8.330 -0.8903 -1.6028 -0.1585
   13CHL1  H26B  957   6.362   2.741   8.489 -0.6031  0.4067 -0.0684
   13CHL1  H26C  958   6.534   2.754   8.489 -0.1290 -1.1835  0.7925
   13CHL1   C27  959   6.560   2.509   8.341  0.2130 -0.0901  0.2348
   13CHL1  H27A  960   6.558   2.579   8.255 -0.5431 -0.6013 -0.1766
   13CHL1  H27B  961   6.654   2.525   8.398  1.2439 -2.6874 -0.5967
   13CHL1  H27C  962   6.551   2.409   8.294 -2.7133  1.6110 -3.3452
   14CHL1    C3  963   5.959   3.173  10.493  0.4174  0.0458  0.2202
   14CHL1    H3  964   5.890   3.257  10.471  1.4117  1.0551  0.8823
   14CHL1    O3  965   5.962   3.149  10.629  0.1295 -0.0692 -0.6016
   14CHL1   H3'  966   6.013   3.068  10.637  0.5068  0.3465  2.0884
   14CHL1    C4  967   5.909   3.050  10.411 -0.0583 -0.8456  0.6235
   14CHL1   H4A  968   5.979   2.964  10.422  1.3438 -0.2164 -2.3972
   14CHL1   H4B  969   5.811   3.023  10.456 -0.7769  2.8299  1.5309
   14CHL1    C5  970   5.901   3.082  10.264  0.4531  0.3833  0.3697
   14CHL1    C6  971   5.783   3.066  10.196  0.1417 -0.5405  0.2856
   14CHL1    H6  972   5.689   3.041  10.247 -1.4612  1.8160 -1.3268
   14CHL1    C7  973   5.764   3.074  10.052  0.2835  0.7391  0.4898
   14CHL1   H7A  974   5.723   2.978  10.014 -2.7829  1.6665  1.1590
   14CHL1   H7B  975   5.695   3.156  10.024 -2.3538 -0.6195  2.5202
   14CHL1    C8  976   5.898   3.093   9.974 -0.5740  0.6062 -0.6501
   14CHL1    H8  977   5.946   2.993   9.970 -3.7928 -1.0469 -1.4344
   14CHL1   C14  978   5.881   3.147   9.833  0.1764 -0.0602  0.8626
   14CHL1   H14  979   5.841   3.251   9.839  1.4568  0.5923 -1.0716
   14CHL1   C15  980   5.790   3.070   9.728  0.2023 -0.1361  0.8038
   14CHL1  H15A  981   5.825   2.965   9.730  2.0844  0.4645  1.2486
   14CHL1  H15B  982   5.692   3.101   9.772  1.5066 -0.3797  4.1983
   14CHL1   C16  983   5.833   3.119   9.589 -0.4981  0.0668 -0.0232
   14CHL1  H16A  984   5.859   3.033   9.523 -3.6407 -1.0716  0.0435
   14CHL1  H16B  985   5.760   3.187   9.541  1.0214  1.3350 -0.6361
   14CHL1   C17  986   5.953   3.215   9.621  0.0519  0.2564 -0.2065
   14CHL1   H17  987   5.914   3.319   9.633 -0.7681 -0.1595  0.8854
   14CHL1   C13  988   6.010   3.182   9.758  0.2855 -0.1054  0.0335
   14CHL1   C18  989   6.105   3.063   9.748  0.1611  0.4319  0.8333
   14CHL1  H18A  990   6.119   3.017   9.848 -0.5117 -0.4490  0.5415
   14CHL1  H18B  991   6.067   2.999   9.666 -2.3575  4.1020 -1.1157
   14CHL1  H18C  992   6.209   3.099   9.728  0.4647 -0.8468 -0.0710
   14CHL1   C12  993   6.081   3.291   9.836  0.2713  0.4068  0.3459
   14CHL1  H12A  994   6.178   3.327   9.795 -0.5070  1.6549 -0.4611
   14CHL1  H12B  995   6.009   3.374   9.851 -1.1891 -0.5507 -1.0409
   14CHL1   C11  996   6.114   3.236   9.975 -0.3041 -0.2358 -0.0486
   14CHL1  H11A  997   6.191   3.156   9.964 -0.3203 -0.0220 -2.0477
   14CHL1  H11B  998   6.162   3.320  10.031 -1.5035 -0.1937  0.9489
   14CHL1    C9  999   5.989   3.188  10.055  1.0159  0.4795  0.0726
   14CHL1    H9 1000   5.919   3.275  10.062  0.7982  0.6341 -2.7369
   14CHL1   C10 1001   6.026   3.126  10.194  0.3992 -0.0277 -0.0163
   14CHL1   C19 1002   6.113   3.007  10.170  0.5273 -0.2560 -0.5622
   14CHL1  H19A 1003   6.138   2.948  10.260  0.2071  0.6120  0.1077
   14CHL1  H19B 1004   6.067   2.929  10.106  1.5250 -1.2081 -0.1315
   14CHL1  H19C 1005   6.211   3.037  10.126  0.0411  0.0099 -1.4874
   14CHL1    C1 1006   6.089   3.231  10.288  0.1299  0.0815  0.6433
   14CHL1   H1A 1007   6.195   3.250  10.259 -0.3995 -1.2645 -2.6511
   14CHL1   H1B 1008   6.023   3.320  10.279 -2.0131 -1.4491  0.4475
   14CHL1    C2 1009   6.096   3.205  10.442  0.5333 -0.1833 -0.3050
   14CHL1   H2A 1010   6.133   3.295  10.496  1.2387 -1.4429  1.3796
   14CHL1   H2B 1011   6.155   3.115  10.469 -1.3106 -1.2297  0.4220
   14CHL1   C20 1012   6.052   3.218   9.493  0.1693  0.5283  0.7830
   14CHL1   H20 1013   6.088   3.114   9.479 -2.1162 -0.3428  0.9315
   14CHL1   C21 1014   6.165   3.323   9.507  0.1379  0.0279  0.4442
   14CHL1  H21A 1015   6.136   3.430   9.500  0.1955 -0.0033 -0.4771
   14CHL1  H21B 1016   6.230   3.305   9.419  0.9386 -0.5438  1.1356
   14CHL1  H21C 1017   6.224   3.311   9.600 -0.7089  2.6016  1.3787
   14CHL1   C22 1018   5.973   3.250   9.356  0.0510  0.1347 -0.0718
   14CHL1  H22A 1019   5.863   3.239   9.369  0.2153 -2.5334 -0.4922
   14CHL1  H22B 1020   6.001   3.354   9.329  0.2087  0.6797  2.0495
   14CHL1   C23 1021   5.993   3.161   9.229 -0.3935  0.3369 -0.9032
   14CHL1  H23A 1022   6.101   3.173   9.211 -0.5052  2.0864 -0.6685
   14CHL1  H23B 1023   5.977   3.055   9.256 -0.6128  0.6024  0.0789
   14CHL1   C24 1024   5.912   3.198   9.105  0.7188  0.2931  0.7481
   14CHL1  H24A 1025   5.808   3.174   9.134  0.5831 -2.5857 -1.6444
   14CHL1  H24B 1026   5.935   3.302   9.074 -0.9850 -0.0776 -2.0435
   14CHL1   C25 1027   5.922   3.110   8.971  0.1820 -0.4911  0.4514
   14CHL1   H25 1028   6.022   3.128   8.926  0.0396 -1.8189 -0.4681
   14CHL1   C26 1029   5.899   2.961   9.000 -0.1792  0.5268 -0.7918
   14CHL1  H26A 1030   5.903   2.904   8.905 -0.0723 -0.9453  0.0703
   14CHL1  H26B 1031   5.974   2.927   9.075 -0.8356  1.6128  0.4035
   14CHL1  H26C 1032   5.799   2.949   9.048 -0.3503  1.0706 -0.9999
   14CHL1   C27 1033   5.810   3.162   8.872 -0.2990 -0.4891 -0.3392
   14CHL1  H27A 1034   5.784   3.077   8.804  0.9866 -0.4226 -0.9532
   14CHL1  H27B 1035   5.713   3.185   8.920  0.2954 -0.0467  0.6582
   14CHL1  H27C 1036   5.846   3.249   8.813  0.7613 -0.8063 -0.1931
   15CHL1    C3 1037   4.832   1.676  10.125 -0.1527 -0.4993  0.7063
   15CHL1    H3 1038   4.924   1.700  10.067 -0.2619 -2.8390 -0.5254
   15CHL1    O3 1039   4.803   1.770  10.222  0.3687  0.1495 -0.0657
   15CHL1   H3' 1040   4.801   1.717  10.301  1.2361 -0.8555 -0.6988
   15CHL1    C4 1041   4.710   1.661  10.033  0.4800 -0.1778 -0.3627
   15CHL1   H4A 1042   4.624   1.638  10.099 -0.1367  2.1619 -0.2599
   15CHL1   H4B 1043   4.683   1.768  10.019  1.5637  0.0403 -0.8247
   15CHL1    C5 1044   4.752   1.576   9.919 -0.0481  0.4996 -0.9809
   15CHL1    C6 1045   4.753   1.623   9.794 -0.2450 -0.8366  0.3860
   15CHL1    H6 1046   4.706   1.720   9.775 -0.4892 -1.3621 -2.0997
   15CHL1    C7 1047   4.801   1.549   9.671 -1.1558  1.0035 -0.6114
   15CHL1   H7A 1048   4.728   1.552   9.587  0.5493  1.8016 -2.1279
   15CHL1   H7B 1049   4.901   1.587   9.642 -1.5805  1.5286 -1.4259
   15CHL1    C8 1050   4.805   1.399   9.698  0.1831  0.0240  0.7429
   15CHL1    H8 1051   4.702   1.356   9.704  0.4218 -0.5318  0.9270
   15CHL1   C14 1052   4.881   1.325   9.591 -0.5505 -0.4918 -0.8933
   15CHL1   H14 1053   4.985   1.361   9.606  0.0159 -0.6172 -3.8128
   15CHL1   C15 1054   4.860   1.361   9.451 -0.4590  0.7936  0.3183
   15CHL1  H15A 1055   4.752   1.358   9.423 -0.2835 -1.3445 -0.2685
   15CHL1  H15B 1056   4.900   1.463   9.430  0.0853  0.7546  1.1446
   15CHL1   C16 1057   4.937   1.248   9.373 -0.8294  0.5807 -0.9425
   15CHL1  H16A 1058   4.871   1.209   9.292 -0.5371  0.6113 -1.1974
   15CHL1  H16B 1059   5.032   1.295   9.341  2.3652 -1.8109  3.9031
   15CHL1   C17 1060   4.986   1.143   9.479 -0.1460  0.6477 -0.3972
   15CHL1   H17 1061   5.090   1.176   9.496  0.3594 -1.0620  0.0703
   15CHL1   C13 1062   4.893   1.171   9.602  0.6024  0.1132  0.1977
   15CHL1   C18 1063   4.752   1.104   9.575 -0.0896 -0.3436  0.3036
   15CHL1  H18A 1064   4.723   1.113   9.468  2.6284  2.1052 -0.3745
   15CHL1  H18B 1065   4.763   0.995   9.594 -0.8161 -0.4009  0.4087
   15CHL1  H18C 1066   4.672   1.142   9.641 -0.6468 -1.2345  0.1595
   15CHL1   C12 1067   4.959   1.142   9.739  0.1317 -0.5365  0.2938
   15CHL1  H12A 1068   4.955   1.031   9.748 -2.4017 -0.7574 -2.0861
   15CHL1  H12B 1069   5.062   1.179   9.724 -0.3686  0.4521 -0.9383
   15CHL1   C11 1070   4.887   1.211   9.858 -0.4910 -0.2719 -0.1620
   15CHL1  H11A 1071   4.791   1.157   9.871 -0.6864 -0.8282 -3.2666
   15CHL1  H11B 1072   4.958   1.188   9.941  0.0778  0.6995 -0.3662
   15CHL1    C9 1073   4.865   1.362   9.836 -0.1087 -0.1892 -0.4147
   15CHL1    H9 1074   4.968   1.399   9.817  0.0555 -0.6303 -0.4003
   15CHL1   C10 1075   4.805   1.431   9.966  0.2656  0.2183  0.7120
   15CHL1   C19 1076   4.681   1.350  10.013 -0.4071 -1.1575  0.2685
   15CHL1  H19A 1077   4.628   1.401  10.096  3.5077 -0.1372  2.3741
   15CHL1  H19B 1078   4.609   1.344   9.929  0.4064  0.4732 -0.5900
   15CHL1  H19C 1079   4.718   1.252  10.051 -0.2904  0.2940  4.3747
   15CHL1    C1 1080   4.906   1.433  10.085  0.5060  1.0116 -0.0344
   15CHL1   H1A 1081   4.931   1.333  10.125  0.9055  2.0111  2.4235
   15CHL1   H1B 1082   4.994   1.477  10.033 -0.8004  2.2539 -1.3049
   15CHL1    C2 1083   4.867   1.533  10.194 -0.0186 -0.5716  0.2007
   15CHL1   H2A 1084   4.951   1.551  10.264  0.4740  2.8307 -1.0975
   15CHL1   H2B 1085   4.783   1.493  10.256 -0.5946 -0.6880 -0.6396
   15CHL1   C20 1086   4.984   1.001   9.417  0.3602 -0.0622 -0.0129
   15CHL1   H20 1087   4.883   0.985   9.375  1.1227 -0.0018 -1.9938
   15CHL1   C21 1088   5.039   0.903   9.514 -0.0585  0.4463  0.1102
   15CHL1  H21A 1089   5.134   0.934   9.563  0.0434 -2.5821  2.1318
   15CHL1  H21B 1090   5.055   0.804   9.466 -1.3531  1.2932 -2.1822
   15CHL1  H21C 1091   4.970   0.891   9.601  0.7746 -0.4490  0.6663
   15CHL1   C22 1092   5.069   1.010   9.281 -1.0626 -0.0424  0.0830
   15CHL1  H22A 1093   5.007   1.068   9.208 -0.3798  0.0827 -0.4078
   15CHL1  H22B 1094   5.172   1.048   9.297 -0.6192 -1.2851  0.2509
   15CHL1   C23 1095   5.096   0.872   9.209 -0.4877 -0.2191  0.2002
   15CHL1  H23A 1096   5.158   0.891   9.119  1.5010  2.7201  2.0159
   15CHL1  H23B 1097   5.162   0.812   9.274 -0.5835  1.7128  2.2105
   15CHL1   C24 1098   4.970   0.785   9.185  0.3632  0.4459  0.2643
   15CHL1  H24A 1099   4.939   0.754   9.287  3.0903 -0.2429  0.9754
   15CHL1  H24B 1100   4.890   0.831   9.124 -0.8434 -2.4884 -0.5359
   15CHL1   C25 1101   5.007   0.656   9.104  0.3645  0.0359 -0.4216
   15CHL1   H25 1102   5.045   0.694   9.007  1.2819  0.7198  0.1879
   15CHL1   C26 1103   5.122   0.564   9.169  0.5239 -0.0591  0.6826
   15CHL1  H26A 1104   5.078   0.520   9.261  0.7523 -0.2465  0.7049
   15CHL1  H26B 1105   5.160   0.475   9.114  1.0815 -0.5346  1.8127
   15CHL1  H26C 1106   5.215   0.616   9.202 -1.1266  2.3867  1.7714
   15CHL1   C27 1107   4.881   0.568   9.076 -0.0932  0.7552 -0.3644
   15CHL1  H27A 1108   4.912   0.467   9.040  0.6890  0.3348  1.3718
   15CHL1  H27B 1109   4.824   0.548   9.170  1.1704 -0.6278  0.1472
   15CHL1  H27C 1110   4.815   0.623   9.006 -0.6161 -0.2369 -0.6842
   16CHL1    C3 1111   6.610   4.121  10.603 -0.2209  0.6648  0.5549
   16CHL1    H3 1112   6.509   4.158  10.575  0.3814  2.4339  0.5794
   16CHL1    O3 1113   6.618   4.112  10.746  0.3957 -0.1817  0.6644
   16CHL1   H3' 1114   6.531   4.081  10.773 -0.2686  1.5681  0.6978
   16CHL1    C4 1115   6.631   3.980  10.545  0.5802 -0.2704  0.2829
   16CHL1   H4A 1116   6.735   3.944  10.562  1.2258  1.6628  0.7175
   16CHL1   H4B 1117   6.556   3.919  10.599 -1.4987  1.6610 -0.3040
   16CHL1    C5 1118   6.613   3.987  10.392 -1.2531  0.2177  0.0011
   16CHL1    C6 1119   6.522   3.916  10.332 -0.2723  0.1818  0.4494
   16CHL1    H6 1120   6.448   3.857  10.388 -1.7706  0.6957 -0.9063
   16CHL1    C7 1121   6.513   3.917  10.180  0.1216  0.1682  0.4217
   16CHL1   H7A 1122   6.506   3.814  10.140 -1.5352  0.4135  0.0035
   16CHL1   H7B 1123   6.421   3.963  10.137 -0.6340 -0.7933  0.9674
   16CHL1    C8 1124   6.643   3.971  10.101  0.2929  0.5091 -0.8605
   16CHL1    H8 1125   6.726   3.900  10.117  3.3344  3.5258 -2.1129
   16CHL1   C14 1126   6.600   4.002   9.959  0.2832 -0.4528  0.3077
   16CHL1   H14 1127   6.524   4.080   9.981  0.2504 -0.9320  2.0032
   16CHL1   C15 1128   6.540   3.892   9.864 -0.3563  0.4151 -0.4247
   16CHL1  H15A 1129   6.598   3.799   9.885  2.1903  1.7794 -0.9526
   16CHL1  H15B 1130   6.434   3.860   9.874 -0.6812  1.2532 -1.0821
   16CHL1   C16 1131   6.558   3.947   9.721 -0.1375  0.1540  0.4250
   16CHL1  H16A 1132   6.608   3.877   9.651  0.3627 -0.8653  1.7613
   16CHL1  H16B 1133   6.456   3.968   9.681 -0.0336  1.3282  0.7672
   16CHL1   C17 1134   6.644   4.082   9.734 -1.1144  0.1313  0.5132
   16CHL1   H17 1135   6.564   4.159   9.732  0.6201  1.9995 -1.5473
   16CHL1   C13 1136   6.709   4.068   9.876  0.6360  0.0088 -0.3095
   16CHL1   C18 1137   6.824   3.969   9.867  0.0989 -0.6959 -0.4595
   16CHL1  H18A 1138   6.864   3.933   9.964 -0.6880  0.6324  0.3949
   16CHL1  H18B 1139   6.792   3.875   9.819  0.8340 -1.4450  0.4871
   16CHL1  H18C 1140   6.908   4.013   9.808 -0.5208  1.3855  0.1127
   16CHL1   C12 1141   6.749   4.204   9.948 -0.2243  0.1859  0.2350
   16CHL1  H12A 1142   6.835   4.253   9.898 -0.9425  0.6021 -0.6202
   16CHL1  H12B 1143   6.662   4.272   9.936  0.0364  1.0219  2.5936
   16CHL1   C11 1144   6.791   4.184  10.096 -0.0528 -0.5125  0.0277
   16CHL1  H11A 1145   6.890   4.135  10.093  0.3792  0.3565 -0.3077
   16CHL1  H11B 1146   6.802   4.283  10.144  1.1578  0.0978 -1.4338
   16CHL1    C9 1147   6.682   4.102  10.168 -0.6506 -0.7207 -0.1541
   16CHL1    H9 1148   6.600   4.177  10.161  0.5932  0.5478 -2.1117
   16CHL1   C10 1149   6.718   4.086  10.322 -0.5499 -0.4220 -0.0933
   16CHL1   C19 1150   6.858   4.024  10.336  0.1213  0.1221 -0.2136
   16CHL1  H19A 1151   6.940   4.091  10.302  0.1404  0.9173  1.3406
   16CHL1  H19B 1152   6.883   4.010  10.443  1.1175  1.2174 -0.2892
   16CHL1  H19C 1153   6.867   3.925  10.287  2.2829 -0.6178  1.5519
   16CHL1    C1 1154   6.714   4.222  10.394 -0.4539 -0.4845  0.4835
   16CHL1   H1A 1155   6.793   4.289  10.354 -0.3591 -0.0337  1.4215
   16CHL1   H1B 1156   6.618   4.266  10.360 -0.8081  0.0599  2.1175
   16CHL1    C2 1157   6.714   4.219  10.544  0.3946 -0.0002  0.2627
   16CHL1   H2A 1158   6.704   4.322  10.586 -1.9886  0.9358 -2.2619
   16CHL1   H2B 1159   6.811   4.177  10.579 -0.0587  1.4160  3.5246
   16CHL1   C20 1160   6.731   4.109   9.608  0.1316 -0.2669 -0.2979
   16CHL1   H20 1161   6.810   4.032   9.600  0.2728 -0.1559  0.0249
   16CHL1   C21 1162   6.803   4.247   9.625 -0.0719  0.4054 -0.1602
   16CHL1  H21A 1163   6.864   4.278   9.538  3.7192  2.6155  2.9638
   16CHL1  H21B 1164   6.884   4.249   9.701  0.7479 -0.8237 -0.9669
   16CHL1  H21C 1165   6.735   4.334   9.641  0.2521  0.3852  1.5354
   16CHL1   C22 1166   6.649   4.093   9.473 -0.4562 -1.0656 -0.0923
   16CHL1  H22A 1167   6.618   3.988   9.454 -1.1274 -0.9557  0.3510
   16CHL1  H22B 1168   6.550   4.142   9.483  0.9011  1.4707  2.2688
   16CHL1   C23 1169   6.716   4.150   9.343 -0.5820  0.1403 -0.5546
   16CHL1  H23A 1170   6.732   4.259   9.360 -3.0088  0.1288  2.6939
   16CHL1  H23B 1171   6.814   4.100   9.333  0.6311  1.9225  1.6678
   16CHL1   C24 1172   6.605   4.143   9.229  0.1121  0.2902  0.6879
   16CHL1  H24A 1173   6.535   4.060   9.252  0.7558 -0.0969  1.3013
   16CHL1  H24B 1174   6.542   4.234   9.228 -3.1872 -1.7009  3.7128
   16CHL1   C25 1175   6.669   4.126   9.091 -0.7796 -0.1439 -0.4803
   16CHL1   H25 1176   6.722   4.029   9.080  0.6232  0.6255 -0.7597
   16CHL1   C26 1177   6.551   4.114   8.987 -0.8337 -0.7919  0.3350
   16CHL1  H26A 1178   6.474   4.041   9.018 -1.9848  0.6226  0.9459
   16CHL1  H26B 1179   6.486   4.205   8.984  0.2376 -0.0133 -1.9448
   16CHL1  H26C 1180   6.602   4.096   8.890  1.1614  1.7802  0.7878
   16CHL1   C27 1181   6.763   4.247   9.051  0.0593  0.6819  0.7985
   16CHL1  H27A 1182   6.699   4.336   9.033 -2.6430 -0.7583  2.5097
   16CHL1  H27B 1183   6.835   4.282   9.127  0.3517  1.9194 -0.0264
   16CHL1  H27C 1184   6.811   4.215   8.956  0.8284 -1.1111  1.7363
   17CHL1    C3 1185   1.216   1.819  10.272  0.3694  0.5661  0.0409
   17CHL1    H3 1186   1.312   1.785  10.229  0.3463 -0.4416  0.7479
   17CHL1    O3 1187   1.212   1.823  10.408 -0.1609 -0.3767 -0.2301
   17CHL1   H3' 1188   1.227   1.913  10.438 -1.5254 -0.7984  1.9469
   17CHL1    C4 1189   1.172   1.953  10.212  0.0704 -0.4772 -0.0947
   17CHL1   H4A 1190   1.080   1.986  10.266  0.5170 -0.5592  0.7365
   17CHL1   H4B 1191   1.254   2.024  10.236  0.5138 -0.9199 -0.2939
   17CHL1    C5 1192   1.160   1.961  10.063  0.1211  0.0239 -0.5215
   17CHL1    C6 1193   1.228   2.051   9.993  0.3108  0.5073 -0.5018
   17CHL1    H6 1194   1.295   2.124  10.041  2.0497 -1.3722  0.0638
   17CHL1    C7 1195   1.197   2.060   9.845 -0.6172  0.7226  0.2490
   17CHL1   H7A 1196   1.165   2.163   9.821 -0.9694  1.1850  2.4758
   17CHL1   H7B 1197   1.284   2.033   9.780 -0.9261  1.5501 -0.5157
   17CHL1    C8 1198   1.076   1.978   9.795 -0.7029 -0.9004  0.5313
   17CHL1    H8 1199   0.984   2.028   9.833 -2.1975 -3.1446  0.0696
   17CHL1   C14 1200   1.077   1.982   9.642 -0.5734 -0.4335  0.2433
   17CHL1   H14 1201   1.168   1.921   9.623 -0.6207 -0.5623  0.4212
   17CHL1   C15 1202   1.097   2.109   9.561  0.3909 -0.4432 -0.1721
   17CHL1  H15A 1203   1.034   2.190   9.604  2.4872  0.0518  2.1959
   17CHL1  H15B 1204   1.203   2.142   9.564  0.2471 -0.0241  1.0586
   17CHL1   C16 1205   1.063   2.074   9.416  0.4813  0.4494  0.2234
   17CHL1  H16A 1206   0.992   2.148   9.374  2.1070  1.5860 -0.6630
   17CHL1  H16B 1207   1.151   2.071   9.348  1.4492  1.8724  1.3612
   17CHL1   C17 1208   1.002   1.930   9.421  0.5560  0.6326 -0.3197
   17CHL1   H17 1209   1.081   1.855   9.401 -0.1450  0.4066 -2.4830
   17CHL1   C13 1210   0.964   1.909   9.570 -0.5923  0.4373 -0.0522
   17CHL1   C18 1211   0.824   1.973   9.592 -0.1824  0.4676 -0.1233
   17CHL1  H18A 1212   0.802   2.070   9.542  0.2184 -0.1980 -1.6732
   17CHL1  H18B 1213   0.746   1.900   9.562 -0.8191  1.3544 -0.6423
   17CHL1  H18C 1214   0.813   1.993   9.700  0.3942 -1.2801  0.3010
   17CHL1   C12 1215   0.971   1.760   9.621 -0.0144 -0.5356 -0.2566
   17CHL1  H12A 1216   0.890   1.698   9.577  0.7258 -2.3631  0.8451
   17CHL1  H12B 1217   1.068   1.721   9.585 -0.3267  0.7489 -2.6890
   17CHL1   C11 1218   0.969   1.745   9.778 -0.0341  0.0476  0.2156
   17CHL1  H11A 1219   0.863   1.760   9.808  0.0005  1.5998 -0.3577
   17CHL1  H11B 1220   0.993   1.638   9.797 -3.0833 -0.5467  1.1967
   17CHL1    C9 1221   1.075   1.841   9.853 -0.0322  0.2196 -0.4293
   17CHL1    H9 1222   1.169   1.788   9.826 -0.0510  1.1436 -2.4693
   17CHL1   C10 1223   1.068   1.849  10.004  0.2618  0.5694  0.1577
   17CHL1   C19 1224   0.920   1.894  10.040 -0.3904  0.1482 -0.3513
   17CHL1  H19A 1225   0.889   1.994  10.003 -0.8463 -0.3957 -1.4937
   17CHL1  H19B 1226   0.843   1.822  10.003 -1.7000  1.9697 -1.3033
   17CHL1  H19C 1227   0.900   1.902  10.149 -0.3883  1.9353 -0.4595
   17CHL1    C1 1228   1.096   1.714  10.072 -0.2844  0.2901 -0.0485
   17CHL1   H1A 1229   1.019   1.635  10.063 -0.0199 -0.3813  2.6350
   17CHL1   H1B 1230   1.192   1.671  10.035  0.4273  1.3308  0.5281
   17CHL1    C2 1231   1.114   1.720  10.229 -0.4856  0.3010  0.3560
   17CHL1   H2A 1232   1.129   1.622  10.278 -2.3773 -0.2542 -0.0956
   17CHL1   H2B 1233   1.017   1.752  10.271 -2.2255 -0.9503 -2.4088
   17CHL1   C20 1234   0.898   1.922   9.304 -0.2647 -0.0608 -0.7733
   17CHL1   H20 1235   0.817   1.992   9.332  2.0170  1.7664  1.6978
   17CHL1   C21 1236   0.843   1.778   9.289  0.6066 -0.6179 -0.7157
   17CHL1  H21A 1237   0.824   1.741   9.393  0.1874  0.8429 -0.2513
   17CHL1  H21B 1238   0.922   1.708   9.254  2.3439  0.8863  0.0371
   17CHL1  H21C 1239   0.749   1.781   9.230 -1.4718 -1.7193  2.2488
   17CHL1   C22 1240   0.951   1.966   9.165 -0.0293 -0.3822 -0.6284
   17CHL1  H22A 1241   0.972   2.075   9.172  0.2725 -0.4374 -0.6517
   17CHL1  H22B 1242   1.051   1.923   9.142  0.9380  0.9507  0.8574
   17CHL1   C23 1243   0.859   1.954   9.045  0.3635  0.0186  0.3158
   17CHL1  H23A 1244   0.829   1.848   9.032 -0.4218  0.4914 -2.2340
   17CHL1  H23B 1245   0.759   1.997   9.067 -1.0493  0.0214 -4.7783
   17CHL1   C24 1246   0.914   2.022   8.917  0.0356  0.1723 -0.0464
   17CHL1  H24A 1247   0.911   2.133   8.925 -0.3514  0.2398 -0.9719
   17CHL1  H24B 1248   1.023   2.005   8.910 -0.4741 -2.9856 -3.7650
   17CHL1   C25 1249   0.847   1.990   8.780 -0.4168 -0.1977  1.1883
   17CHL1   H25 1250   0.800   1.890   8.790  1.7698 -1.1645  2.7318
   17CHL1   C26 1251   0.728   2.087   8.758 -0.4107  0.2235 -0.0544
   17CHL1  H26A 1252   0.765   2.190   8.740  0.9156 -0.3480 -0.7213
   17CHL1  H26B 1253   0.687   2.056   8.660  2.4152 -0.8027 -0.9850
   17CHL1  H26C 1254   0.653   2.062   8.837 -0.5685 -3.1734 -1.1260
   17CHL1   C27 1255   0.956   1.982   8.668  0.5190  0.0169  0.4694
   17CHL1  H27A 1256   0.909   1.943   8.575 -1.1111  0.1401  1.2069
   17CHL1  H27B 1257   0.997   2.082   8.644  1.5570 -0.8415 -1.5190
   17CHL1  H27C 1258   1.040   1.916   8.698  0.4856  0.3498  1.3221
   18CHL1    C3 1259   3.546   6.101  10.481 -0.5765  0.1864 -0.3015
   18CHL1    H3 1260   3.650   6.064  10.489 -0.2668  1.2724  0.9967
   18CHL1    O3 1261   3.507   6.145  10.607 -0.2301  0.7490 -0.0672
   18CHL1   H3' 1262   3.423   6.188  10.591 -0.6541 -0.6703 -2.0572
   18CHL1    C4 1263   3.530   6.217  10.381 -0.0824 -0.8522  0.6904
   18CHL1   H4A 1264   3.440   6.278  10.406  0.8802  0.2126  1.6826
   18CHL1   H4B 1265   3.606   6.296  10.399 -1.0029  0.3532 -0.5287
   18CHL1    C5 1266   3.538   6.181  10.235  0.4069 -0.0776 -0.1665
   18CHL1    C6 1267   3.612   6.245  10.144 -0.2452 -0.1189  0.2986
   18CHL1    H6 1268   3.667   6.337  10.170  0.6943 -1.0602  1.7532
   18CHL1    C7 1269   3.619   6.224   9.992 -0.0843 -0.4744 -0.4450
   18CHL1   H7A 1270   3.620   6.321   9.937  3.5681  0.5568  1.1280
   18CHL1   H7B 1271   3.715   6.174   9.965  1.1659 -0.4701  3.4143
   18CHL1    C8 1272   3.498   6.126   9.953  0.3110  0.5065 -0.2041
   18CHL1    H8 1273   3.412   6.195   9.937  0.2845  0.6793  0.6447
   18CHL1   C14 1274   3.528   6.063   9.816  0.0764 -0.3463  0.0650
   18CHL1   H14 1275   3.599   5.982   9.839  0.3095 -0.1614  0.0002
   18CHL1   C15 1276   3.602   6.151   9.706 -0.6203 -1.0524  0.2727
   18CHL1  H15A 1277   3.556   6.251   9.688  1.4318 -0.2684 -0.9428
   18CHL1  H15B 1278   3.706   6.179   9.733  0.2172  0.0203 -3.4553
   18CHL1   C16 1279   3.581   6.062   9.585 -0.4910 -0.3349  0.0636
   18CHL1  H16A 1280   3.554   6.134   9.505  1.0316 -0.9931 -1.1115
   18CHL1  H16B 1281   3.676   6.012   9.553 -1.2379 -0.2126 -2.6362
   18CHL1   C17 1282   3.474   5.953   9.607  0.3026 -0.0408 -0.3885
   18CHL1   H17 1283   3.514   5.852   9.629 -0.9212 -0.8873 -1.8018
   18CHL1   C13 1284   3.411   5.985   9.747  0.1217 -0.7712 -0.0308
   18CHL1   C18 1285   3.287   6.079   9.733 -0.5872  0.0477 -0.1591
   18CHL1  H18A 1286   3.257   6.136   9.824  0.1704  1.2429 -0.6351
   18CHL1  H18B 1287   3.302   6.159   9.657  2.6545  1.2077  1.5576
   18CHL1  H18C 1288   3.194   6.025   9.706  0.1674 -0.6445 -1.4552
   18CHL1   C12 1289   3.396   5.855   9.836  0.6800  0.2374 -0.6756
   18CHL1  H12A 1290   3.330   5.777   9.794  1.2181  0.8729 -2.8027
   18CHL1  H12B 1291   3.495   5.805   9.846  0.3249 -0.6620 -1.5511
   18CHL1   C11 1292   3.357   5.906   9.981  0.4678 -0.1812 -1.0107
   18CHL1  H11A 1293   3.258   5.956   9.972  0.2112 -0.4262  0.2756
   18CHL1  H11B 1294   3.357   5.823  10.055  0.8625  0.9656  0.3341
   18CHL1    C9 1295   3.463   6.007  10.047 -0.3635  0.2274  0.1282
   18CHL1    H9 1296   3.557   5.950  10.031  0.3443  2.2469 -4.7017
   18CHL1   C10 1297   3.443   6.060  10.192 -0.2422 -0.4197  0.8779
   18CHL1   C19 1298   3.288   6.108  10.199  0.2524 -0.0324 -0.3599
   18CHL1  H19A 1299   3.263   6.174  10.114 -1.0059  1.0138  0.7703
   18CHL1  H19B 1300   3.220   6.021  10.193 -0.1173  0.3380 -1.9386
   18CHL1  H19C 1301   3.269   6.165  10.293  0.2165  0.1159 -0.4581
   18CHL1    C1 1302   3.465   5.945  10.291 -0.1878 -0.3558  0.0220
   18CHL1   H1A 1303   3.401   5.858  10.265 -1.9950  0.2613  2.0495
   18CHL1   H1B 1304   3.569   5.918  10.264  0.4575  0.8758  1.1443
   18CHL1    C2 1305   3.445   5.985  10.441 -0.4727 -0.8006 -0.0106
   18CHL1   H2A 1306   3.473   5.899  10.505  0.0604 -1.5769 -1.2412
   18CHL1   H2B 1307   3.338   6.007  10.460 -1.1052 -3.4613 -0.0369
   18CHL1   C20 1308   3.375   5.927   9.490  0.7559 -0.1038  0.1655
   18CHL1   H20 1309   3.306   6.013   9.480 -0.1013 -0.9531 -1.9160
   18CHL1   C21 1310   3.280   5.812   9.527 -0.1728 -0.3879  0.3012
   18CHL1  H21A 1311   3.187   5.809   9.466 -0.1721  0.5083  0.2557
   18CHL1  H21B 1312   3.256   5.832   9.633  3.5679  0.6440  1.1149
   18CHL1  H21C 1313   3.324   5.709   9.522 -1.4000 -1.0293  1.9430
   18CHL1   C22 1314   3.448   5.898   9.357 -0.4915  0.0106  0.4636
   18CHL1  H22A 1315   3.529   5.972   9.338 -0.2170 -0.5605 -0.7103
   18CHL1  H22B 1316   3.495   5.797   9.361  1.5433  0.8032 -1.3771
   18CHL1   C23 1317   3.353   5.875   9.235 -0.3694  0.5794 -0.1617
   18CHL1  H23A 1318   3.301   5.779   9.255  0.0644  0.4517  0.3625
   18CHL1  H23B 1319   3.278   5.956   9.223 -0.2515  0.7851  0.4978
   18CHL1   C24 1320   3.445   5.860   9.107 -0.2196  0.6300 -0.4883
   18CHL1  H24A 1321   3.533   5.927   9.108 -0.2674  0.7327  1.9631
   18CHL1  H24B 1322   3.480   5.755   9.112 -1.4982  0.2357  1.1023
   18CHL1   C25 1323   3.391   5.859   8.961  0.3346  0.4111 -0.1097
   18CHL1   H25 1324   3.377   5.966   8.935  2.4349  0.5764 -0.7548
   18CHL1   C26 1325   3.485   5.799   8.855 -0.4733 -0.1010  0.0466
   18CHL1  H26A 1326   3.416   5.754   8.781 -1.3984 -0.2291  0.9717
   18CHL1  H26B 1327   3.555   5.875   8.813  1.9448 -1.2348  1.7580
   18CHL1  H26C 1328   3.556   5.726   8.899 -0.2244  1.1947  1.9475
   18CHL1   C27 1329   3.252   5.792   8.963  0.0508  0.0835 -0.2467
   18CHL1  H27A 1330   3.181   5.844   9.030  1.6767  1.4652  0.4479
   18CHL1  H27B 1331   3.226   5.790   8.855 -0.3135 -0.5540 -0.1568
   18CHL1  H27C 1332   3.270   5.691   9.007  1.5514  0.1378 -0.6944
   19CHL1    C3 1333   4.671   4.471  10.237 -0.0765 -0.0048 -0.2948
   19CHL1    H3 1334   4.691   4.364  10.216  0.3192 -0.0332  0.2213
   19CHL1    O3 1335   4.656   4.487  10.376 -0.2777 -0.0840 -0.0470
   19CHL1   H3' 1336   4.581   4.546  10.384 -0.6993 -0.7777  1.2574
   19CHL1    C4 1337   4.788   4.567  10.204  0.2665  0.8439  0.4126
   19CHL1   H4A 1338   4.760   4.672  10.226  0.8732  0.9331  0.7997
   19CHL1   H4B 1339   4.874   4.532  10.265  0.7712  0.1719 -0.6431
   19CHL1    C5 1340   4.817   4.553  10.055 -0.6597  0.2658 -0.4889
   19CHL1    C6 1341   4.938   4.522  10.009 -0.6271  0.7098 -1.0229
   19CHL1    H6 1342   5.017   4.502  10.083 -0.6654 -0.0414 -1.1830
   19CHL1    C7 1343   4.973   4.505   9.869  0.0497 -0.1627  0.5553
   19CHL1   H7A 1344   5.072   4.553   9.855  0.7303 -1.7348 -0.3054
   19CHL1   H7B 1345   5.000   4.400   9.843 -0.3208 -0.1365  0.0479
   19CHL1    C8 1346   4.876   4.579   9.778 -0.6414  0.7632  0.4262
   19CHL1    H8 1347   4.904   4.686   9.787  1.7907  0.0518  2.0308
   19CHL1   C14 1348   4.898   4.543   9.632 -0.0323 -0.4722  0.6899
   19CHL1   H14 1349   4.872   4.436   9.624  1.2624 -0.7636 -0.0491
   19CHL1   C15 1350   5.037   4.559   9.567  0.0491 -0.2842  0.2956
   19CHL1  H15A 1351   5.080   4.660   9.587  1.8414 -1.0105  0.2667
   19CHL1  H15B 1352   5.113   4.487   9.601  1.2636  0.9283  0.2261
   19CHL1   C16 1353   5.009   4.535   9.415 -0.2117  0.4496  0.2583
   19CHL1  H16A 1354   5.079   4.600   9.359  0.5247  0.4379  1.1337
   19CHL1  H16B 1355   5.026   4.428   9.390  1.1404  0.4485  1.0910
   19CHL1   C17 1356   4.863   4.571   9.394 -0.0457  0.3831 -0.1849
   19CHL1   H17 1357   4.806   4.476   9.385  1.1410 -0.3846  0.1303
   19CHL1   C13 1358   4.805   4.613   9.531  0.1534  1.2648 -0.3084
   19CHL1   C18 1359   4.818   4.763   9.546  0.1653  0.0703  0.4431
   19CHL1  H18A 1360   4.758   4.811   9.466  1.5778  0.2829 -0.5069
   19CHL1  H18B 1361   4.790   4.803   9.646 -0.4475 -1.7321  1.0261
   19CHL1  H18C 1362   4.921   4.794   9.519  0.2987 -1.4718 -0.9671
   19CHL1   C12 1363   4.660   4.570   9.566  0.9059  0.5565  1.1597
   19CHL1  H12A 1364   4.574   4.604   9.505  2.2970  0.4326 -0.9723
   19CHL1  H12B 1365   4.667   4.460   9.552 -0.4942  0.5937 -0.1158
   19CHL1   C11 1366   4.627   4.595   9.715 -0.2421 -0.0720 -0.0716
   19CHL1  H11A 1367   4.633   4.706   9.714  2.2987 -0.1224  1.1412
   19CHL1  H11B 1368   4.525   4.554   9.729 -0.1061  0.1706  1.8142
   19CHL1    C9 1369   4.730   4.541   9.817 -0.1158  0.4368 -0.3196
   19CHL1    H9 1370   4.731   4.430   9.804  0.2836  0.3977  0.0330
   19CHL1   C10 1371   4.695   4.573   9.964 -0.3630 -0.5859  0.6615
   19CHL1   C19 1372   4.659   4.728   9.975 -0.0701 -0.0543  0.3334
   19CHL1  H19A 1373   4.638   4.750  10.082 -1.3824 -3.0114  0.7803
   19CHL1  H19B 1374   4.754   4.782   9.955  0.1813 -0.7000 -0.2496
   19CHL1  H19C 1375   4.593   4.765   9.895  1.1402 -1.5282 -1.4266
   19CHL1    C1 1376   4.571   4.498  10.000 -0.2630  0.0429 -0.6151
   19CHL1   H1A 1377   4.476   4.538   9.958 -0.7029  2.5651  2.3711
   19CHL1   H1B 1378   4.585   4.391   9.973  0.3502  0.1109 -0.5888
   19CHL1    C2 1379   4.538   4.498  10.158  0.2642  0.2895  0.1158
   19CHL1   H2A 1380   4.456   4.429  10.187  0.0255  1.0542  1.3266
   19CHL1   H2B 1381   4.494   4.599  10.175 -1.3257  0.4276 -3.7048
   19CHL1   C20 1382   4.825   4.668   9.267  0.1504  0.2735 -0.3885
   19CHL1   H20 1383   4.851   4.771   9.299 -3.7763  1.0234  0.9418
   19CHL1   C21 1384   4.675   4.670   9.240 -0.3712  0.2699 -0.1654
   19CHL1  H21A 1385   4.616   4.727   9.316 -1.8543 -0.2939 -0.8546
   19CHL1  H21B 1386   4.634   4.567   9.243  0.9078 -0.3647 -2.4377
   19CHL1  H21C 1387   4.653   4.733   9.151 -2.2156  1.8139  1.2829
   19CHL1   C22 1388   4.902   4.621   9.145  1.2794 -0.0768 -0.8707
   19CHL1  H22A 1389   5.008   4.649   9.160  1.8800 -1.3693 -2.4362
   19CHL1  H22B 1390   4.888   4.512   9.131  0.6590 -0.3223  1.2704
   19CHL1   C23 1391   4.871   4.703   9.017 -0.3056  0.3890  0.0378
   19CHL1  H23A 1392   4.767   4.741   9.002 -0.6437 -0.8224 -0.8463
   19CHL1  H23B 1393   4.941   4.789   9.023 -0.2982  0.3269  1.0161
   19CHL1   C24 1394   4.897   4.617   8.886  0.7056 -0.7623  0.0683
   19CHL1  H24A 1395   4.840   4.522   8.891  2.0474 -1.5498  1.9544
   19CHL1  H24B 1396   4.865   4.682   8.802 -1.9980 -1.3229  0.5727
   19CHL1   C25 1397   5.044   4.561   8.861  0.2591 -0.4654  0.4891
   19CHL1   H25 1398   5.072   4.502   8.951  0.3775 -1.5336 -0.2300
   19CHL1   C26 1399   5.038   4.475   8.734  0.4100 -0.5907  0.5831
   19CHL1  H26A 1400   5.127   4.409   8.738  0.9364  0.0991  0.4690
   19CHL1  H26B 1401   4.943   4.418   8.739 -0.8653  1.3836  0.3937
   19CHL1  H26C 1402   5.020   4.546   8.650 -0.5076  0.8211  1.9098
   19CHL1   C27 1403   5.160   4.666   8.848  0.1858 -0.6456  0.4150
   19CHL1  H27A 1404   5.170   4.732   8.937  0.0198 -0.6308  0.4212
   19CHL1  H27B 1405   5.261   4.624   8.826  0.7218  0.9497 -0.2994
   19CHL1  H27C 1406   5.142   4.739   8.766 -1.2651 -0.3026  1.0185
   20CHL1    C3 1407   6.404   2.045  10.141 -0.0467 -0.4611  0.1550
   20CHL1    H3 1408   6.385   1.939  10.116 -1.7820  0.2478 -1.8807
   20CHL1    O3 1409   6.399   2.072  10.276  1.1257 -0.2181  0.6791
   20CHL1   H3' 1410   6.440   1.991  10.310  1.6405  0.8099  2.6554
   20CHL1    C4 1411   6.542   2.087  10.088  0.0692 -0.9434 -0.1445
   20CHL1   H4A 1412   6.554   2.191  10.123 -3.2586 -0.1051 -1.1276
   20CHL1   H4B 1413   6.629   2.038  10.138  0.7228 -0.4202 -0.7400
   20CHL1    C5 1414   6.563   2.078   9.940 -0.2454 -0.1769  1.1580
   20CHL1    C6 1415   6.655   1.999   9.890 -0.0217 -0.1420  0.2028
   20CHL1    H6 1416   6.716   1.934   9.954  1.0905 -1.4284 -2.0505
   20CHL1    C7 1417   6.681   1.981   9.741  0.1402 -0.0447 -0.3353
   20CHL1   H7A 1418   6.785   2.012   9.720  0.4144 -1.5466 -1.3246
   20CHL1   H7B 1419   6.661   1.878   9.704 -1.4697  1.3023 -3.6277
   20CHL1    C8 1420   6.593   2.074   9.649 -0.7868 -0.1135  0.1608
   20CHL1    H8 1421   6.640   2.174   9.649 -2.0833  0.5388  1.9055
   20CHL1   C14 1422   6.587   2.023   9.502  0.1415  0.3747  0.3811
   20CHL1   H14 1423   6.533   1.926   9.506  0.2939  0.1346 -2.0449
   20CHL1   C15 1424   6.721   1.997   9.438  0.4279 -0.4029 -0.7691
   20CHL1  H15A 1425   6.784   2.087   9.454 -1.2724  0.8030 -0.6060
   20CHL1  H15B 1426   6.777   1.910   9.479  2.0454  0.5276 -0.9180
   20CHL1   C16 1427   6.693   1.987   9.292 -0.3075 -0.1928 -0.0725
   20CHL1  H16A 1428   6.765   2.051   9.237 -0.9100  1.4160  0.9371
   20CHL1  H16B 1429   6.718   1.888   9.250  0.8808  0.2172 -0.3741
   20CHL1   C17 1430   6.540   2.024   9.268  0.1792 -0.0074 -0.0355
   20CHL1   H17 1431   6.485   1.928   9.276 -0.1914  0.1367 -0.7911
   20CHL1   C13 1432   6.505   2.104   9.397  0.0258 -0.9782 -1.3059
   20CHL1   C18 1433   6.564   2.240   9.385  0.0307 -0.2271 -0.2882
   20CHL1  H18A 1434   6.668   2.236   9.345  0.7380  0.0686  1.4312
   20CHL1  H18B 1435   6.511   2.292   9.302  0.4069  1.2402  0.3562
   20CHL1  H18C 1436   6.554   2.300   9.478 -2.5472  1.3953 -1.4842
   20CHL1   C12 1437   6.362   2.108   9.460 -0.4338  0.4487  0.4387
   20CHL1  H12A 1438   6.307   2.171   9.386 -0.9124 -1.6861 -1.1070
   20CHL1  H12B 1439   6.324   2.004   9.454  2.7138 -0.8412  1.1681
   20CHL1   C11 1440   6.361   2.164   9.605 -0.2897  0.0079  0.3746
   20CHL1  H11A 1441   6.377   2.274   9.615 -0.4442 -0.1488  2.8099
   20CHL1  H11B 1442   6.261   2.153   9.651  1.0154  0.3501  3.5005
   20CHL1    C9 1443   6.454   2.086   9.709 -0.1232  0.1756  0.9255
   20CHL1    H9 1444   6.407   1.985   9.714 -0.4625 -0.0465 -3.1525
   20CHL1   C10 1445   6.454   2.145   9.848 -0.4248 -0.3251 -0.1460
   20CHL1   C19 1446   6.484   2.298   9.860 -0.2851 -0.7361  0.0137
   20CHL1  H19A 1447   6.510   2.345   9.957 -1.1365 -1.3754  0.5623
   20CHL1  H19B 1448   6.569   2.330   9.796 -1.7574  0.3775 -1.4566
   20CHL1  H19C 1449   6.393   2.351   9.825  0.7935  1.2746  0.1147
   20CHL1    C1 1450   6.310   2.119   9.910  0.1601  0.4371  0.2392
   20CHL1   H1A 1451   6.235   2.189   9.867  0.2138  0.4922  0.2353
   20CHL1   H1B 1452   6.271   2.025   9.865 -1.4659  2.0779 -2.0460
   20CHL1    C2 1453   6.288   2.119  10.064  0.1895  0.1508  0.1220
   20CHL1   H2A 1454   6.191   2.069  10.085  1.2794 -1.6905  1.0517
   20CHL1   H2B 1455   6.290   2.226  10.095  1.4255  0.1476  0.1173
   20CHL1   C20 1456   6.517   2.070   9.121  0.3451  0.3176 -0.3419
   20CHL1   H20 1457   6.544   2.178   9.111 -0.3443  0.5721  0.3894
   20CHL1   C21 1458   6.369   2.064   9.106  0.1293 -0.3917  0.4081
   20CHL1  H21A 1459   6.329   2.148   9.167  0.9320 -0.2146  0.7050
   20CHL1  H21B 1460   6.325   1.968   9.142  0.0497  0.2184  2.0521
   20CHL1  H21C 1461   6.336   2.074   9.001  0.2684 -2.2953  0.1499
   20CHL1   C22 1462   6.582   1.985   9.013 -0.1160 -0.7614 -0.1378
   20CHL1  H22A 1463   6.687   1.971   9.047  0.8498 -0.4475 -2.7525
   20CHL1  H22B 1464   6.533   1.885   9.010 -0.3736 -0.7541  2.1838
   20CHL1   C23 1465   6.568   2.030   8.864  0.1956  0.4044  0.1918
   20CHL1  H23A 1466   6.468   2.004   8.823  1.0210 -1.0695 -0.9441
   20CHL1  H23B 1467   6.592   2.139   8.858  0.0763  0.3581 -1.6073
   20CHL1   C24 1468   6.669   1.961   8.769 -0.5286 -0.3916 -0.2957
   20CHL1  H24A 1469   6.773   1.986   8.802  0.1120 -2.7976 -0.2849
   20CHL1  H24B 1470   6.673   1.852   8.788  2.7645 -0.8099 -2.5085
   20CHL1   C25 1471   6.646   1.996   8.624 -0.0766 -0.0190  0.4724
   20CHL1   H25 1472   6.646   2.107   8.613  1.5698 -0.0296  0.0501
   20CHL1   C26 1473   6.768   1.956   8.543  0.7626 -0.2965 -0.1462
   20CHL1  H26A 1474   6.857   2.008   8.587  0.3656  0.6283 -0.4063
   20CHL1  H26B 1475   6.772   1.845   8.545 -3.7089 -0.7196 -2.3278
   20CHL1  H26C 1476   6.748   1.983   8.437  2.6707 -2.6931 -1.2098
   20CHL1   C27 1477   6.509   1.944   8.573 -1.1217  0.0103  0.0762
   20CHL1  H27A 1478   6.502   1.970   8.466 -2.4187 -1.1960 -0.1671
   20CHL1  H27B 1479   6.489   1.835   8.577  0.9706 -0.6253 -3.2158
   20CHL1  H27C 1480   6.431   2.011   8.616 -0.7950  1.4997 -1.5349
   21CHL1    C3 1481   1.435   0.130  10.557  0.1888 -0.0839 -0.4025
   21CHL1    H3 1482   1.369   0.212  10.523  0.7481  0.7815  0.5622
   21CHL1    O3 1483   1.403   0.088  10.690  0.4116  0.1773  0.4528
   21CHL1   H3' 1484   1.487   0.058  10.727  1.0584 -0.1788 -1.2121
   21CHL1    C4 1485   1.410   0.014  10.460 -0.0915  1.1744  0.3549
   21CHL1   H4A 1486   1.469  -0.072  10.497 -2.1405 -0.9542 -1.0705
   21CHL1   H4B 1487   1.305  -0.021  10.469 -0.5372  2.2564 -0.3536
   21CHL1    C5 1488   1.450   0.031  10.313  0.3909 -0.6685 -1.3920
   21CHL1    C6 1489   1.354   0.017  10.221 -0.2580  0.1330 -0.7603
   21CHL1    H6 1490   1.259  -0.028  10.251  0.7659 -0.4380  1.9683
   21CHL1    C7 1491   1.377   0.040  10.076 -0.3874 -0.4422 -0.2169
   21CHL1   H7A 1492   1.357  -0.048  10.011 -2.4215  0.5197 -1.0006
   21CHL1   H7B 1493   1.311   0.121  10.038  0.3441 -0.1280 -0.8502
   21CHL1    C8 1494   1.521   0.074  10.041 -1.0087  0.9906  0.0311
   21CHL1    H8 1495   1.574  -0.023  10.034  0.3436  1.7935 -1.2550
   21CHL1   C14 1496   1.538   0.130   9.903 -0.2348 -0.1010  0.0908
   21CHL1   H14 1497   1.487   0.228   9.912  0.3772  0.1218  1.2157
   21CHL1   C15 1498   1.473   0.061   9.780 -1.3541  0.5423 -0.5621
   21CHL1  H15A 1499   1.490  -0.049   9.786 -0.7489  0.6351 -0.5558
   21CHL1  H15B 1500   1.363   0.081   9.782 -1.3874  0.5413  2.4453
   21CHL1   C16 1501   1.551   0.125   9.659 -0.5008  0.0044 -0.4421
   21CHL1  H16A 1502   1.594   0.038   9.604 -1.0036 -0.0671 -0.7319
   21CHL1  H16B 1503   1.491   0.184   9.587 -1.2387  0.4448  0.5064
   21CHL1   C17 1504   1.664   0.219   9.720 -0.0850  0.1343  0.0049
   21CHL1   H17 1505   1.617   0.319   9.729 -3.7663 -1.4873  0.4796
   21CHL1   C13 1506   1.690   0.160   9.866 -0.0371 -0.3874  0.0277
   21CHL1   C18 1507   1.774   0.029   9.865  0.1006  0.7516 -0.0559
   21CHL1  H18A 1508   1.758  -0.027   9.771  0.5210 -0.3199  0.4924
   21CHL1  H18B 1509   1.881   0.059   9.868 -0.3909  2.7268 -0.7812
   21CHL1  H18C 1510   1.740  -0.043   9.943  0.2685 -0.1304 -0.7854
   21CHL1   C12 1511   1.747   0.264   9.967 -0.0156  0.6853  0.3528
   21CHL1  H12A 1512   1.856   0.276   9.948  0.3584 -0.7384  1.4179
   21CHL1  H12B 1513   1.694   0.361   9.973 -2.5032 -0.5443 -0.1819
   21CHL1   C11 1514   1.742   0.198  10.105 -0.8639 -0.4823 -0.5131
   21CHL1  H11A 1515   1.789   0.098  10.116 -0.2495 -0.3062 -1.5018
   21CHL1  H11B 1516   1.787   0.274  10.173 -1.9653  0.1289 -0.4377
   21CHL1    C9 1517   1.597   0.159  10.145  0.5232 -0.0612 -0.6012
   21CHL1    H9 1518   1.535   0.251  10.139  0.8097  0.0809 -1.5353
   21CHL1   C10 1519   1.588   0.092  10.284  0.0536 -0.4840 -0.1356
   21CHL1   C19 1520   1.685  -0.026  10.302  0.7180 -0.1625 -0.2856
   21CHL1  H19A 1521   1.671  -0.103  10.223 -0.5722  0.3374 -0.5678
   21CHL1  H19B 1522   1.786   0.020  10.297  0.8981 -0.3258  1.3507
   21CHL1  H19C 1523   1.686  -0.072  10.403  0.2972  1.6708  0.5849
   21CHL1    C1 1524   1.621   0.199  10.394  0.0827  0.1317 -0.2601
   21CHL1   H1A 1525   1.728   0.227  10.382 -0.2764  0.8313 -2.2539
   21CHL1   H1B 1526   1.562   0.288  10.361  0.1234  0.7839  1.3241
   21CHL1    C2 1527   1.584   0.170  10.546  0.3242 -1.0708  0.3982
   21CHL1   H2A 1528   1.584   0.271  10.591  0.6374  0.2403 -2.3746
   21CHL1   H2B 1529   1.657   0.099  10.591  0.3596 -0.3867  1.4444
   21CHL1   C20 1530   1.796   0.220   9.637 -0.8129 -0.4283  0.2642
   21CHL1   H20 1531   1.874   0.143   9.653  2.0454  2.0274 -0.9974
   21CHL1   C21 1532   1.866   0.353   9.672  0.1697  0.0835 -0.1858
   21CHL1  H21A 1533   1.811   0.449   9.664  1.8027  1.3604  2.6017
   21CHL1  H21B 1534   1.947   0.356   9.596 -1.0191 -0.0422 -1.4970
   21CHL1  H21C 1535   1.925   0.334   9.764  0.1116  1.8792  0.2484
   21CHL1   C22 1536   1.779   0.217   9.479  0.1940 -0.6713 -0.6309
   21CHL1  H22A 1537   1.881   0.197   9.440  0.7174 -1.0762  0.9121
   21CHL1  H22B 1538   1.734   0.119   9.453  1.9339 -1.3079 -1.3791
   21CHL1   C23 1539   1.707   0.329   9.422  0.7716  0.0419 -0.4571
   21CHL1  H23A 1540   1.601   0.330   9.454  1.0014 -0.9839  0.3840
   21CHL1  H23B 1541   1.742   0.431   9.451 -0.2093  0.0639  0.7225
   21CHL1   C24 1542   1.706   0.329   9.275 -0.1531 -0.5461 -0.1971
   21CHL1  H24A 1543   1.664   0.421   9.227  2.1052 -0.2859 -1.8241
   21CHL1  H24B 1544   1.806   0.331   9.227  0.0366  2.4060  0.1665
   21CHL1   C25 1545   1.619   0.218   9.206 -0.3646 -0.0881  1.0380
   21CHL1   H25 1546   1.668   0.123   9.234 -0.4498 -0.4478 -0.0263
   21CHL1   C26 1547   1.483   0.211   9.277  0.1980  0.2377  0.1157
   21CHL1  H26A 1548   1.425   0.305   9.262  1.4409  0.8757 -0.8691
   21CHL1  H26B 1549   1.428   0.124   9.233  2.4531 -1.6287  0.8005
   21CHL1  H26C 1550   1.486   0.177   9.383 -1.2415 -1.3908 -0.3137
   21CHL1   C27 1551   1.617   0.231   9.052 -0.0418 -0.2080 -0.6478
   21CHL1  H27A 1552   1.718   0.238   9.006  0.7926 -0.7855  1.0112
   21CHL1  H27B 1553   1.565   0.146   9.001  1.9226 -0.2968 -2.6359
   21CHL1  H27C 1554   1.556   0.318   9.018  0.3443  0.3273  0.0154
   22CHL1    C3 1555   6.273   1.510  10.159  0.4245  0.4875 -0.5272
   22CHL1    H3 1556   6.382   1.531  10.151  0.6466  1.2391  3.0737
   22CHL1    O3 1557   6.251   1.511  10.300 -0.4367 -0.3495 -0.2108
   22CHL1   H3' 1558   6.158   1.503  10.321 -0.4802 -0.7897 -0.5454
   22CHL1    C4 1559   6.211   1.629  10.084  0.6198 -0.7042  0.0167
   22CHL1   H4A 1560   6.103   1.618  10.104  0.5267  0.6026  0.3624
   22CHL1   H4B 1561   6.240   1.729  10.124 -0.9085  0.6295 -1.9820
   22CHL1    C5 1562   6.225   1.619   9.930  0.2524 -0.7637 -1.0682
   22CHL1    C6 1563   6.273   1.723   9.861 -0.5063  0.1958 -0.1556
   22CHL1    H6 1564   6.281   1.826   9.900  1.5271  0.3354 -0.8131
   22CHL1    C7 1565   6.303   1.731   9.711 -0.0602 -0.5307 -0.1886
   22CHL1   H7A 1566   6.248   1.809   9.654  1.5180  1.0801  0.4100
   22CHL1   H7B 1567   6.411   1.746   9.693 -0.3440 -0.1984 -1.6970
   22CHL1    C8 1568   6.248   1.598   9.646  0.1294 -0.6084 -0.4535
   22CHL1    H8 1569   6.137   1.607   9.643  0.1992  1.0775  0.5910
   22CHL1   C14 1570   6.293   1.591   9.504 -0.1762  0.1150 -0.2924
   22CHL1   H14 1571   6.404   1.581   9.513 -0.0496  1.3521 -0.2573
   22CHL1   C15 1572   6.284   1.715   9.421 -0.0093 -0.1759  0.6915
   22CHL1  H15A 1573   6.187   1.763   9.443 -0.3357 -2.2524  4.5878
   22CHL1  H15B 1574   6.360   1.793   9.443  0.7031 -0.4379 -0.6944
   22CHL1   C16 1575   6.302   1.666   9.271 -0.1377 -0.0739 -0.2979
   22CHL1  H16A 1576   6.209   1.688   9.215 -0.3264 -1.0752 -0.4072
   22CHL1  H16B 1577   6.373   1.721   9.206  1.0348 -0.9144  0.2125
   22CHL1   C17 1578   6.323   1.513   9.289  0.8673 -0.3592  0.4758
   22CHL1   H17 1579   6.432   1.499   9.303  1.1953  0.4666 -1.1207
   22CHL1   C13 1580   6.248   1.474   9.428  0.0333  0.1917  0.3375
   22CHL1   C18 1581   6.098   1.475   9.406 -0.0850 -1.1075  0.4785
   22CHL1  H18A 1582   6.053   1.440   9.502 -0.6429  2.0859  1.5411
   22CHL1  H18B 1583   6.064   1.571   9.361  1.4855 -0.4276  0.6573
   22CHL1  H18C 1584   6.075   1.398   9.330  0.7560 -1.0865  0.1965
   22CHL1   C12 1585   6.304   1.352   9.506 -0.5957 -0.5203 -0.5503
   22CHL1  H12A 1586   6.278   1.254   9.460  0.1722 -0.3840 -1.2859
   22CHL1  H12B 1587   6.414   1.361   9.508 -0.6004  0.6881 -2.5444
   22CHL1   C11 1588   6.244   1.347   9.648 -0.9013 -0.3262 -0.6456
   22CHL1  H11A 1589   6.134   1.332   9.639 -1.1424  2.1290 -2.8894
   22CHL1  H11B 1590   6.288   1.254   9.690 -1.9906 -0.4106  0.3759
   22CHL1    C9 1591   6.272   1.469   9.730  0.3495 -0.1919 -0.5211
   22CHL1    H9 1592   6.382   1.473   9.744  0.2047 -1.7852  1.4650
   22CHL1   C10 1593   6.209   1.479   9.868 -0.0491 -0.3503  0.6255
   22CHL1   C19 1594   6.065   1.433   9.857  0.0223 -0.9293 -0.9348
   22CHL1  H19A 1595   6.009   1.505   9.793  1.8107  1.4078  0.0049
   22CHL1  H19B 1596   6.057   1.332   9.813 -0.4858 -0.9843 -0.7250
   22CHL1  H19C 1597   6.017   1.433   9.957  1.6202  0.5158 -0.1109
   22CHL1    C1 1598   6.278   1.374   9.956  0.7364  0.1235  0.9251
   22CHL1   H1A 1599   6.253   1.275   9.912 -2.3759  0.4396  1.6914
   22CHL1   H1B 1600   6.388   1.387   9.960  0.8646 -0.6650  0.2282
   22CHL1    C2 1601   6.231   1.375  10.108  0.0615  0.4805  0.7215
   22CHL1   H2A 1602   6.300   1.311  10.168 -1.5721  1.6643  4.1316
   22CHL1   H2B 1603   6.123   1.352  10.114 -0.1548  1.1870 -0.3106
   22CHL1   C20 1604   6.288   1.432   9.165 -0.4536 -0.2497  0.2280
   22CHL1   H20 1605   6.177   1.430   9.152 -0.5654 -1.8361  1.1661
   22CHL1   C21 1606   6.320   1.277   9.189 -0.5657  0.1718  0.2012
   22CHL1  H21A 1607   6.323   1.220   9.094 -0.0243 -0.1644  0.4166
   22CHL1  H21B 1608   6.238   1.241   9.255 -0.4748 -3.9371 -1.6018
   22CHL1  H21C 1609   6.418   1.273   9.240 -1.5036 -3.4998  2.0931
   22CHL1   C22 1610   6.361   1.484   9.041 -0.6357 -0.6338 -0.7017
   22CHL1  H22A 1611   6.363   1.595   9.036  1.3954 -0.6828 -2.2352
   22CHL1  H22B 1612   6.467   1.463   9.067 -0.1459  2.6534  0.4986
   22CHL1   C23 1613   6.335   1.421   8.905 -0.5562  0.1450 -0.1620
   22CHL1  H23A 1614   6.398   1.466   8.824  0.3387 -0.9814 -0.1173
   22CHL1  H23B 1615   6.367   1.315   8.912  0.7587  0.5637  0.6792
   22CHL1   C24 1616   6.184   1.412   8.874 -0.2553  0.3095 -0.4011
   22CHL1  H24A 1617   6.175   1.338   8.792 -1.9740 -0.5008  0.4582
   22CHL1  H24B 1618   6.127   1.376   8.962  0.5687 -1.1058 -0.4192
   22CHL1   C25 1619   6.106   1.534   8.825 -0.8454 -0.1010  0.3601
   22CHL1   H25 1620   6.027   1.509   8.751 -1.3311  0.5875  0.6358
   22CHL1   C26 1621   6.050   1.614   8.944  0.0634 -0.2984 -0.1434
   22CHL1  H26A 1622   5.987   1.555   9.015 -1.7434  1.5000 -0.1661
   22CHL1  H26B 1623   6.122   1.676   9.001 -0.6836  1.9302 -1.4901
   22CHL1  H26C 1624   5.980   1.689   8.901  1.3414  0.1440 -1.5266
   22CHL1   C27 1625   6.195   1.631   8.740  0.4881  0.0827 -0.6990
   22CHL1  H27A 1626   6.272   1.684   8.800  1.5634 -1.2319 -0.8655
   22CHL1  H27B 1627   6.238   1.573   8.656  0.4573 -1.0597  0.0562
   22CHL1  H27C 1628   6.128   1.712   8.703 -1.2241 -1.3024 -0.7661
   23CHL1    C3 1629   2.071   2.626  10.234 -0.1910 -0.2473 -0.0565
   23CHL1    H3 1630   2.178   2.595  10.230  0.3085  1.2852  0.7105
   23CHL1    O3 1631   2.046   2.641  10.374  0.2554  0.1372 -0.0031
   23CHL1   H3' 1632   1.950   2.638  10.371  0.1886  1.7654 -0.2433
   23CHL1    C4 1633   2.052   2.749  10.157 -0.1218 -0.5633  0.7777
   23CHL1   H4A 1634   1.949   2.781  10.186  0.8754  1.2470  2.5237
   23CHL1   H4B 1635   2.110   2.837  10.192 -1.8707  0.6075  0.8657
   23CHL1    C5 1636   2.066   2.731  10.004  0.1687  0.1664 -0.1747
   23CHL1    C6 1637   2.158   2.807   9.928 -0.3182 -0.3423 -0.1253
   23CHL1    H6 1638   2.221   2.880   9.981  2.8784 -2.4034 -0.7743
   23CHL1    C7 1639   2.171   2.786   9.775  0.9406 -0.0916  0.2591
   23CHL1   H7A 1640   2.176   2.885   9.726 -1.4294  0.3384  0.7458
   23CHL1   H7B 1641   2.271   2.740   9.761  1.5808  1.0631  0.9167
   23CHL1    C8 1642   2.050   2.707   9.715 -0.5783  0.3636 -0.0371
   23CHL1    H8 1643   1.963   2.775   9.717 -0.2001  0.8765 -0.6257
   23CHL1   C14 1644   2.071   2.682   9.569  0.5600  0.3946  0.7134
   23CHL1   H14 1645   2.170   2.631   9.571  0.8750  0.9701  0.3162
   23CHL1   C15 1646   2.103   2.807   9.482 -0.6147 -0.1549 -0.1993
   23CHL1  H15A 1647   2.034   2.885   9.519  1.3053  0.8589  1.4209
   23CHL1  H15B 1648   2.210   2.830   9.503 -0.1756  0.6563 -2.8677
   23CHL1   C16 1649   2.064   2.761   9.340  0.3000  0.2723 -0.2055
   23CHL1  H16A 1650   1.983   2.828   9.305  0.4768  1.8177  2.1336
   23CHL1  H16B 1651   2.147   2.764   9.266  0.3411 -1.4506 -0.2603
   23CHL1   C17 1652   2.013   2.618   9.353 -0.2470 -1.1271  0.4115
   23CHL1   H17 1653   2.101   2.550   9.344  0.1335 -0.5990  0.0663
   23CHL1   C13 1654   1.964   2.601   9.497  0.3844  0.5175 -0.3335
   23CHL1   C18 1655   1.825   2.672   9.518 -0.0032 -0.0856  0.9513
   23CHL1  H18A 1656   1.740   2.605   9.493 -0.3022  0.5345  0.2544
   23CHL1  H18B 1657   1.805   2.707   9.621 -0.9991 -1.5944  1.2986
   23CHL1  H18C 1658   1.824   2.767   9.461 -1.0006 -0.2526  0.6810
   23CHL1   C12 1659   1.952   2.466   9.561 -0.4311  0.4300 -0.1331
   23CHL1  H12A 1660   1.857   2.419   9.529  0.2720 -0.7850 -0.4991
   23CHL1  H12B 1661   2.039   2.399   9.547 -0.2815  0.7696 -0.8538
   23CHL1   C11 1662   1.918   2.495   9.716  0.1431 -0.7505 -0.2671
   23CHL1  H11A 1663   1.818   2.543   9.720  0.3134 -0.4275  0.1177
   23CHL1  H11B 1664   1.916   2.399   9.771  0.3982 -0.9603 -0.6107
   23CHL1    C9 1665   2.017   2.583   9.797  0.0907  0.2796  0.1207
   23CHL1    H9 1666   2.105   2.517   9.811 -0.2750 -0.6417 -1.6128
   23CHL1   C10 1667   1.980   2.611   9.944 -0.7365 -1.1399 -0.0105
   23CHL1   C19 1668   1.834   2.654   9.946  0.5877  0.2565  0.4093
   23CHL1  H19A 1669   1.805   2.682  10.049  0.6612 -0.2922  0.5797
   23CHL1  H19B 1670   1.818   2.746   9.886  1.0780  0.2026  0.1866
   23CHL1  H19C 1671   1.767   2.568   9.925 -0.3882  1.3479 -1.1844
   23CHL1    C1 1672   2.002   2.489  10.025 -0.0490  0.0912 -0.2990
   23CHL1   H1A 1673   1.937   2.408   9.985  0.5587 -0.5243 -0.0585
   23CHL1   H1B 1674   2.110   2.468  10.011 -0.4238 -1.7303 -0.6631
   23CHL1    C2 1675   1.987   2.511  10.179 -0.4295  0.5026 -0.5380
   23CHL1   H2A 1676   2.028   2.417  10.223  1.8636  1.8919  0.4549
   23CHL1   H2B 1677   1.880   2.523  10.208 -0.2415 -0.1080  0.4782
   23CHL1   C20 1678   1.925   2.573   9.235  0.9655  0.2281  1.1435
   23CHL1   H20 1679   1.835   2.637   9.229 -0.6516 -1.9159  0.9661
   23CHL1   C21 1680   1.864   2.434   9.258  0.7748 -0.7893 -0.3345
   23CHL1  H21A 1681   1.945   2.367   9.295 -0.6537 -2.1490  0.4104
   23CHL1  H21B 1682   1.835   2.386   9.162  4.2943 -1.4845 -1.1953
   23CHL1  H21C 1683   1.780   2.441   9.329  1.2381 -0.3310  0.1806
   23CHL1   C22 1684   2.001   2.579   9.101  0.4841 -0.4224  0.6463
   23CHL1  H22A 1685   2.031   2.684   9.081 -1.8005  0.1590 -0.0423
   23CHL1  H22B 1686   2.096   2.522   9.105  0.6542 -0.1109  1.0516
   23CHL1   C23 1687   1.912   2.544   8.979 -0.4140 -0.3343 -0.4800
   23CHL1  H23A 1688   1.906   2.433   8.975  0.3380 -0.4469  0.9605
   23CHL1  H23B 1689   1.813   2.593   8.996 -0.6598 -1.9693  4.0630
   23CHL1   C24 1690   1.958   2.593   8.845 -0.2092  0.0809 -0.4122
   23CHL1  H24A 1691   1.974   2.703   8.840 -2.0620  0.4871  1.1159
   23CHL1  H24B 1692   2.056   2.549   8.817  0.5037 -0.0044  2.0318
   23CHL1   C25 1693   1.843   2.569   8.739  0.2213 -0.5285 -0.1495
   23CHL1   H25 1694   1.749   2.609   8.781  1.0779 -1.9873  3.5079
   23CHL1   C26 1695   1.875   2.631   8.597  0.0423  0.2111  0.3198
   23CHL1  H26A 1696   1.932   2.725   8.613 -0.6080  0.3250  2.2349
   23CHL1  H26B 1697   1.936   2.565   8.532 -0.0453 -0.2256  0.6702
   23CHL1  H26C 1698   1.783   2.655   8.540 -0.3917  3.4965  2.1134
   23CHL1   C27 1699   1.805   2.418   8.713 -0.4778 -0.8538  0.7573
   23CHL1  H27A 1700   1.837   2.361   8.804  1.3488 -0.1809  0.5854
   23CHL1  H27B 1701   1.698   2.395   8.701 -0.4954 -0.1528 -0.5814
   23CHL1  H27C 1702   1.852   2.388   8.617 -2.5054 -0.6883 -0.3219
   24CHL1    C3 1703   5.548   3.377  10.361 -0.3614  0.2925  0.4632
   24CHL1    H3 1704   5.633   3.305  10.357  0.1575  0.7583  2.0655
   24CHL1    O3 1705   5.518   3.374  10.498  0.0333 -0.0978 -0.4042
   24CHL1   H3' 1706   5.439   3.429  10.500  1.1209  1.5509  0.9742
   24CHL1    C4 1707   5.581   3.520  10.317  1.1493 -0.2349 -0.4514
   24CHL1   H4A 1708   5.492   3.579  10.345  0.9433 -0.3963 -0.7514
   24CHL1   H4B 1709   5.663   3.550  10.385  2.2229 -1.7401 -1.0064
   24CHL1    C5 1710   5.623   3.530  10.171 -0.3242  0.5067 -0.5751
   24CHL1    C6 1711   5.752   3.562  10.136 -0.5763 -0.0747 -0.2718
   24CHL1    H6 1712   5.820   3.586  10.219 -0.4895  3.4038 -1.1854
   24CHL1    C7 1713   5.787   3.578   9.995 -0.1274  0.2005  0.5135
   24CHL1   H7A 1714   5.850   3.669   9.985  2.3386 -1.0271  3.5431
   24CHL1   H7B 1715   5.863   3.505   9.962 -0.7246  0.5964 -2.0052
   24CHL1    C8 1716   5.662   3.579   9.894  0.2879 -0.0618 -0.0430
   24CHL1    H8 1717   5.611   3.676   9.912  0.1928 -0.2570  0.8021
   24CHL1   C14 1718   5.709   3.563   9.748 -0.3007 -0.2234 -0.2066
   24CHL1   H14 1719   5.765   3.468   9.740  1.1477  0.5632  0.2318
   24CHL1   C15 1720   5.819   3.662   9.703  0.6467  0.2209  0.3892
   24CHL1  H15A 1721   5.792   3.764   9.738  0.8451 -0.4323  2.5870
   24CHL1  H15B 1722   5.921   3.634   9.737  0.2254 -0.5759  1.0087
   24CHL1   C16 1723   5.803   3.636   9.554  0.2061 -0.4392 -0.2741
   24CHL1  H16A 1724   5.775   3.737   9.515 -0.3134 -0.1861  0.7277
   24CHL1  H16B 1725   5.891   3.609   9.492  1.5222  0.6157  1.0665
   24CHL1   C17 1726   5.684   3.540   9.525 -0.0299  0.1064 -0.5210
   24CHL1   H17 1727   5.722   3.436   9.536 -1.3606 -0.3319  0.1197
   24CHL1   C13 1728   5.592   3.562   9.649 -0.2666 -0.0198  0.4377
   24CHL1   C18 1729   5.516   3.697   9.639  0.4737 -0.2577  0.5156
   24CHL1  H18A 1730   5.493   3.735   9.740 -1.3880 -1.6378  0.6614
   24CHL1  H18B 1731   5.572   3.771   9.577  0.2534 -0.8888 -0.4610
   24CHL1  H18C 1732   5.419   3.670   9.592  0.5988 -0.9375  0.6378
   24CHL1   C12 1733   5.498   3.448   9.679  0.9274  0.1299 -0.4417
   24CHL1  H12A 1734   5.413   3.451   9.608 -0.9033 -0.0025  1.6165
   24CHL1  H12B 1735   5.551   3.351   9.669  0.8858  0.0052  0.4431
   24CHL1   C11 1736   5.444   3.449   9.826  0.7805 -0.2883 -0.0646
   24CHL1  H11A 1737   5.380   3.540   9.822 -0.9405 -1.4845 -2.6289
   24CHL1  H11B 1738   5.384   3.358   9.846 -0.8998  0.0187 -3.1455
   24CHL1    C9 1739   5.559   3.465   9.931  0.3935 -0.6100 -0.3348
   24CHL1    H9 1740   5.613   3.368   9.928  0.3340 -0.6165 -2.2138
   24CHL1   C10 1741   5.515   3.479  10.073  0.2112 -0.7847 -1.0470
   24CHL1   C19 1742   5.399   3.587  10.087  0.0208  0.4829  0.1234
   24CHL1  H19A 1743   5.422   3.685  10.039  0.3396  0.2467 -0.2004
   24CHL1  H19B 1744   5.303   3.547  10.048  1.2102  0.1427 -2.6483
   24CHL1  H19C 1745   5.385   3.617  10.194 -1.2504  1.0520 -0.1796
   24CHL1    C1 1746   5.461   3.341  10.122 -0.3270 -0.0326 -1.0231
   24CHL1   H1A 1747   5.375   3.311  10.059 -2.0440  3.5618 -0.6457
   24CHL1   H1B 1748   5.546   3.269  10.120  0.2012  0.5172  0.3306
   24CHL1    C2 1749   5.433   3.323  10.278  0.0112 -0.0167  0.0922
   24CHL1   H2A 1750   5.416   3.217  10.307  0.9954 -0.6429 -1.4761
   24CHL1   H2B 1751   5.352   3.394  10.307  1.3501  0.9549  1.6439
   24CHL1   C20 1752   5.633   3.549   9.379  0.5445 -0.1043  0.0364
   24CHL1   H20 1753   5.553   3.626   9.376  1.1033  0.4920 -3.1929
   24CHL1   C21 1754   5.566   3.421   9.330 -0.2050  0.0990 -0.1009
   24CHL1  H21A 1755   5.534   3.419   9.224  0.1546 -2.8064 -0.2535
   24CHL1  H21B 1756   5.488   3.385   9.401  0.7729  0.6553  1.3170
   24CHL1  H21C 1757   5.649   3.347   9.319  1.1061  1.6923 -1.4188
   24CHL1   C22 1758   5.736   3.604   9.284 -0.2570  0.0610 -0.2060
   24CHL1  H22A 1759   5.774   3.708   9.298  0.9884 -0.2329 -1.2512
   24CHL1  H22B 1760   5.826   3.540   9.298  0.0267  0.9315  2.5634
   24CHL1   C23 1761   5.701   3.608   9.133  0.3409 -0.6306 -0.8231
   24CHL1  H23A 1762   5.687   3.502   9.100  0.4042 -0.3147 -1.9146
   24CHL1  H23B 1763   5.611   3.670   9.114  1.6400  1.3118 -0.9304
   24CHL1   C24 1764   5.796   3.685   9.040 -0.3295 -0.2583  0.7032
   24CHL1  H24A 1765   5.806   3.795   9.053  0.3902 -0.1794 -0.3365
   24CHL1  H24B 1766   5.899   3.644   9.054 -0.7553 -2.1451 -1.1593
   24CHL1   C25 1767   5.758   3.669   8.884 -0.3799  0.6573  0.2084
   24CHL1   H25 1768   5.661   3.719   8.862 -0.2952  0.1816 -1.4167
   24CHL1   C26 1769   5.866   3.742   8.801  0.2455 -0.0621  0.1562
   24CHL1  H26A 1770   5.840   3.740   8.693  0.0795 -0.2809  0.1996
   24CHL1  H26B 1771   5.879   3.849   8.829 -0.7904  0.1658 -0.1913
   24CHL1  H26C 1772   5.965   3.694   8.817 -0.1326 -0.0126  3.2779
   24CHL1   C27 1773   5.739   3.522   8.834 -0.1475  0.0137  0.5509
   24CHL1  H27A 1774   5.648   3.484   8.885  0.8446 -1.0452  1.5953
   24CHL1  H27B 1775   5.725   3.512   8.724  0.7701  1.8859  0.2266
   24CHL1  H27C 1776   5.816   3.455   8.877 -2.5338 -2.8382  0.7275
   25CHL1    C3 1777   0.495   4.066  10.574  0.2296  0.3137  0.1794
   25CHL1    H3 1778   0.388   4.069  10.544  0.5977  1.1288 -1.1008
   25CHL1    O3 1779   0.497   4.049  10.718  0.0102  0.1104  0.7713
   25CHL1   H3' 1780   0.581   4.010  10.742 -0.5678 -1.9776 -0.2901
   25CHL1    C4 1781   0.580   3.948  10.514 -0.0413  0.6563  0.5123
   25CHL1   H4A 1782   0.686   3.953  10.546  0.4270 -0.4573 -0.7676
   25CHL1   H4B 1783   0.541   3.852  10.554 -0.5778  0.6219 -0.0829
   25CHL1    C5 1784   0.567   3.952  10.363  0.3486  0.3554 -0.7829
   25CHL1    C6 1785   0.521   3.843  10.300  0.4574  0.3819 -0.3927
   25CHL1    H6 1786   0.510   3.750  10.359  0.7784 -0.0018 -0.9229
   25CHL1    C7 1787   0.490   3.837  10.154 -0.0612 -0.0662 -0.2569
   25CHL1   H7A 1788   0.516   3.737  10.113 -1.9033 -0.7534  0.1396
   25CHL1   H7B 1789   0.379   3.847  10.144 -0.1649 -1.3162 -0.5461
   25CHL1    C8 1790   0.562   3.955  10.072  0.7269 -0.3120 -0.0123
   25CHL1    H8 1791   0.667   3.928  10.051  0.0239 -1.7965 -1.9643
   25CHL1   C14 1792   0.483   3.988   9.944  0.1287 -0.3180  0.4070
   25CHL1   H14 1793   0.379   4.014   9.973 -0.0801 -0.9338  0.2413
   25CHL1   C15 1794   0.461   3.870   9.845  0.1417 -0.1318 -0.1570
   25CHL1  H15A 1795   0.555   3.811   9.852 -1.4942 -2.7976  0.5002
   25CHL1  H15B 1796   0.378   3.805   9.881 -1.0697  0.4830 -1.7077
   25CHL1   C16 1797   0.448   3.924   9.707 -0.4822  0.1456  0.8191
   25CHL1  H16A 1798   0.512   3.872   9.632  0.7007  1.5481  0.8160
   25CHL1  H16B 1799   0.342   3.914   9.677 -0.3926 -0.5252  0.7068
   25CHL1   C17 1800   0.467   4.076   9.727  0.5371  1.0742 -0.5311
   25CHL1   H17 1801   0.365   4.116   9.745 -0.1158 -0.6434 -0.1786
   25CHL1   C13 1802   0.538   4.103   9.860  0.5092 -0.4864  0.0740
   25CHL1   C18 1803   0.691   4.075   9.834 -0.1847 -0.4056  0.0683
   25CHL1  H18A 1804   0.709   3.972   9.796 -0.0294 -1.1741  2.0834
   25CHL1  H18B 1805   0.741   4.136   9.756  0.0825 -0.4691  0.1908
   25CHL1  H18C 1806   0.761   4.086   9.919 -1.4692 -1.5340  1.3312
   25CHL1   C12 1807   0.533   4.238   9.934  0.5165 -0.1839  0.6645
   25CHL1  H12A 1808   0.594   4.314   9.881  0.8089  0.2218  1.5758
   25CHL1  H12B 1809   0.427   4.272   9.944  0.6867  0.2406  1.0575
   25CHL1   C11 1810   0.592   4.223  10.078 -0.0116 -0.1530 -1.0268
   25CHL1  H11A 1811   0.702   4.235  10.067  0.0274  1.9074  0.8772
   25CHL1  H11B 1812   0.559   4.307  10.142  1.2827 -0.5734  0.2633
   25CHL1    C9 1813   0.557   4.091  10.157 -0.5105 -0.2272  0.4405
   25CHL1    H9 1814   0.448   4.111  10.170 -0.4000  0.8479 -0.1394
   25CHL1   C10 1815   0.596   4.086  10.304  0.5284  0.3412 -0.2559
   25CHL1   C19 1816   0.751   4.098  10.303  0.2678  0.6687  0.1394
   25CHL1  H19A 1817   0.782   4.114  10.409  1.3061  0.4090 -0.1112
   25CHL1  H19B 1818   0.797   4.011  10.251 -0.1285  1.9515 -2.4940
   25CHL1  H19C 1819   0.777   4.192  10.251 -0.2357  0.1534 -1.0665
   25CHL1    C1 1820   0.538   4.211  10.380  0.3987 -0.7514 -1.0436
   25CHL1   H1A 1821   0.590   4.302  10.342 -1.8597  0.7132 -0.8075
   25CHL1   H1B 1822   0.431   4.227  10.354  0.2378 -0.5226 -0.2472
   25CHL1    C2 1823   0.551   4.198  10.533  0.2082 -0.1316 -0.2322
   25CHL1   H2A 1824   0.486   4.271  10.584 -1.6124 -0.7399 -1.5902
   25CHL1   H2B 1825   0.657   4.213  10.563 -0.0507  0.3091  0.4798
   25CHL1   C20 1826   0.516   4.140   9.597 -0.0678 -0.4504  0.3167
   25CHL1   H20 1827   0.624   4.122   9.581 -0.0944  0.2498 -0.7601
   25CHL1   C21 1828   0.517   4.291   9.614  0.0004 -0.9711 -0.1823
   25CHL1  H21A 1829   0.597   4.315   9.687 -0.3072  0.8724 -0.4010
   25CHL1  H21B 1830   0.415   4.332   9.631  0.5482  0.6253 -0.5438
   25CHL1  H21C 1831   0.545   4.341   9.519  1.0208 -1.0840  0.0480
   25CHL1   C22 1832   0.427   4.105   9.470 -0.8638  0.0127  0.7954
   25CHL1  H22A 1833   0.394   4.000   9.483 -0.0683 -0.4455 -0.6411
   25CHL1  H22B 1834   0.330   4.158   9.479 -2.0574 -1.6758 -1.1945
   25CHL1   C23 1835   0.506   4.126   9.335  0.1823  0.5258  0.0418
   25CHL1  H23A 1836   0.521   4.235   9.322 -3.4539  1.0735 -0.8366
   25CHL1  H23B 1837   0.601   4.069   9.336  0.0238  0.2357  2.0798
   25CHL1   C24 1838   0.430   4.078   9.203 -0.4290 -0.5001 -0.3585
   25CHL1  H24A 1839   0.427   3.968   9.216 -0.2532 -0.3814  0.8293
   25CHL1  H24B 1840   0.329   4.121   9.221  0.9872  2.1475  2.1579
   25CHL1   C25 1841   0.487   4.127   9.070 -0.2778 -0.2818  0.1772
   25CHL1   H25 1842   0.530   4.229   9.079  1.2709 -0.6161 -2.2659
   25CHL1   C26 1843   0.619   4.048   9.031  0.0651 -0.3380  0.5116
   25CHL1  H26A 1844   0.587   3.941   9.033 -2.0269  0.1506 -1.8346
   25CHL1  H26B 1845   0.638   4.078   8.926 -3.1397  1.7296  0.3738
   25CHL1  H26C 1846   0.695   4.076   9.106  0.4440  2.2849 -0.7182
   25CHL1   C27 1847   0.387   4.138   8.948 -0.1005  0.3343 -0.1476
   25CHL1  H27A 1848   0.300   4.195   8.987 -0.4530 -1.6962  2.2568
   25CHL1  H27B 1849   0.450   4.170   8.862  0.6769 -2.3049 -0.6656
   25CHL1  H27C 1850   0.359   4.035   8.919 -0.5491  0.9974 -2.2251
   26CHL1    C3 1851   1.424   1.062  10.345  0.4040  0.3074 -0.7689
   26CHL1    H3 1852   1.370   1.158  10.331  0.3169  0.4938  0.7291
   26CHL1    O3 1853   1.409   1.010  10.478  0.1069 -0.0629  0.2580
   26CHL1   H3' 1854   1.446   1.068  10.545 -0.0876 -1.7153  1.8612
   26CHL1    C4 1855   1.384   0.952  10.247 -1.1969 -0.1151 -0.3653
   26CHL1   H4A 1856   1.440   0.857  10.262  0.6276  0.7212 -1.5438
   26CHL1   H4B 1857   1.276   0.939  10.272 -1.1027  2.8655  2.3234
   26CHL1    C5 1858   1.403   0.995  10.107 -0.2603 -0.2824  0.6229
   26CHL1    C6 1859   1.305   0.997  10.013 -0.2235  0.2037 -0.1082
   26CHL1    H6 1860   1.205   0.958  10.038 -0.0278 -0.2248  0.0211
   26CHL1    C7 1861   1.326   1.028   9.865 -0.1951 -0.9597  0.0001
   26CHL1   H7A 1862   1.287   0.944   9.804  1.1002 -0.1585 -2.0581
   26CHL1   H7B 1863   1.277   1.125   9.841  2.2850  0.3167 -0.2163
   26CHL1    C8 1864   1.476   1.050   9.823  0.5296  0.3933  0.0578
   26CHL1    H8 1865   1.514   0.946   9.810  0.0053  0.3932 -1.7419
   26CHL1   C14 1866   1.482   1.135   9.694 -0.7865 -0.0178  0.8470
   26CHL1   H14 1867   1.449   1.238   9.721  1.0924  1.0182 -0.5280
   26CHL1   C15 1868   1.392   1.101   9.577 -0.1359  0.2493 -0.3182
   26CHL1  H15A 1869   1.392   0.991   9.563  0.1315  0.0523  1.0783
   26CHL1  H15B 1870   1.289   1.126   9.609 -0.3278 -3.5445  2.6273
   26CHL1   C16 1871   1.456   1.172   9.460 -0.5123 -0.7539  0.6016
   26CHL1  H16A 1872   1.458   1.109   9.368  0.8540  0.7553 -0.4687
   26CHL1  H16B 1873   1.385   1.254   9.436  0.1136 -0.7757 -1.5520
   26CHL1   C17 1874   1.590   1.243   9.512 -0.6032  0.1276  0.4218
   26CHL1   H17 1875   1.554   1.345   9.538 -1.6110  0.7523 -2.8888
   26CHL1   C13 1876   1.626   1.163   9.640 -0.6257  0.4485  0.1081
   26CHL1   C18 1877   1.698   1.034   9.600 -0.9270 -0.7892 -0.4761
   26CHL1  H18A 1878   1.630   0.985   9.527 -3.5191  1.0350  0.5411
   26CHL1  H18B 1879   1.782   1.051   9.530 -0.9865 -2.7471 -1.0771
   26CHL1  H18C 1880   1.705   0.965   9.687 -1.5155 -1.1192 -0.6835
   26CHL1   C12 1881   1.706   1.235   9.758  0.5320 -0.8186 -0.0547
   26CHL1  H12A 1882   1.810   1.249   9.723 -0.5469  2.1132 -2.5324
   26CHL1  H12B 1883   1.662   1.337   9.764  0.3143 -0.9683  1.2188
   26CHL1   C11 1884   1.701   1.158   9.892  0.1192 -0.2149 -0.5686
   26CHL1  H11A 1885   1.772   1.075   9.870  1.6561  0.8359  0.1704
   26CHL1  H11B 1886   1.749   1.219   9.972 -1.9468  1.7175 -0.7190
   26CHL1    C9 1887   1.556   1.113   9.935  0.0654 -0.6387  0.6895
   26CHL1    H9 1888   1.502   1.210   9.949  1.2690  0.0396  0.7967
   26CHL1   C10 1889   1.543   1.042  10.072 -0.6435 -0.5351  0.0286
   26CHL1   C19 1890   1.640   0.926  10.075  0.6842  0.6396  0.5938
   26CHL1  H19A 1891   1.741   0.953  10.113  1.4317 -0.1676 -0.7498
   26CHL1  H19B 1892   1.614   0.842  10.143  0.4262 -0.1150 -0.4156
   26CHL1  H19C 1893   1.647   0.887   9.971  1.4574 -1.0750  1.2533
   26CHL1    C1 1894   1.587   1.146  10.185  0.5159 -0.3334 -0.2554
   26CHL1   H1A 1895   1.694   1.170  10.166  0.5869 -1.8816 -2.2036
   26CHL1   H1B 1896   1.549   1.249  10.167  1.1514 -0.3753 -2.0866
   26CHL1    C2 1897   1.570   1.102  10.330  0.4323 -0.5407  0.4303
   26CHL1   H2A 1898   1.596   1.183  10.401 -0.2680 -0.3947  0.5336
   26CHL1   H2B 1899   1.627   1.010  10.355 -0.8098 -1.3171  0.5263
   26CHL1   C20 1900   1.706   1.277   9.414  0.4136  0.1384 -0.4145
   26CHL1   H20 1901   1.741   1.176   9.383  1.1882 -0.3189  1.8263
   26CHL1   C21 1902   1.832   1.337   9.480  0.2762  0.2423  0.0591
   26CHL1  H21A 1903   1.823   1.425   9.546  0.9864  0.7601 -0.5139
   26CHL1  H21B 1904   1.914   1.355   9.406  1.0834 -1.0178  0.6040
   26CHL1  H21C 1905   1.883   1.263   9.545  0.2700 -1.1730 -1.4641
   26CHL1   C22 1906   1.657   1.364   9.299  0.3102  0.4577 -0.2007
   26CHL1  H22A 1907   1.573   1.307   9.252  0.9412 -0.7402  0.0896
   26CHL1  H22B 1908   1.601   1.452   9.338 -3.1690 -1.6773  0.0834
   26CHL1   C23 1909   1.764   1.396   9.197  0.5254 -0.4153  0.0588
   26CHL1  H23A 1910   1.843   1.457   9.246  0.5092 -1.0482  0.8795
   26CHL1  H23B 1911   1.807   1.303   9.155 -0.3592 -1.1825  0.8170
   26CHL1   C24 1912   1.706   1.493   9.088  0.8185  0.1392 -0.6447
   26CHL1  H24A 1913   1.597   1.472   9.078  0.2028  2.4967  0.3272
   26CHL1  H24B 1914   1.732   1.601   9.100 -0.7090  0.3519  1.1211
   26CHL1   C25 1915   1.754   1.458   8.950 -1.0890 -0.2403  0.0609
   26CHL1   H25 1916   1.865   1.454   8.948 -0.9651  0.6311  2.2652
   26CHL1   C26 1917   1.689   1.324   8.897 -0.1992 -0.1701 -0.0580
   26CHL1  H26A 1918   1.730   1.242   8.959  0.6293 -1.2797 -2.0051
   26CHL1  H26B 1919   1.578   1.330   8.901 -0.4340 -3.2086 -0.3852
   26CHL1  H26C 1920   1.716   1.320   8.790 -0.0359 -1.8888  0.0290
   26CHL1   C27 1921   1.707   1.568   8.849  0.1109  0.1636  0.6749
   26CHL1  H27A 1922   1.596   1.573   8.839  0.1516  0.9844  0.5878
   26CHL1  H27B 1923   1.736   1.673   8.868 -3.9684  1.8244 -1.1863
   26CHL1  H27C 1924   1.738   1.540   8.746  2.3133  2.6594  0.5622
   27CHL1    C3 1925   0.692   4.877  10.565 -0.0342 -0.5623  0.1157
   27CHL1    H3 1926   0.747   4.782  10.547 -1.9101 -1.3608 -1.8659
   27CHL1    O3 1927   0.696   4.890  10.707 -0.1479  0.4022 -0.4224
   27CHL1   H3' 1928   0.626   4.954  10.723 -0.4685 -0.1820  0.6757
   27CHL1    C4 1929   0.770   4.993  10.508  0.0845 -0.1320  0.3483
   27CHL1   H4A 1930   0.721   5.091  10.526  0.8324  1.0886 -3.4150
   27CHL1   H4B 1931   0.871   4.991  10.553  0.5146  2.6306 -0.3430
   27CHL1    C5 1932   0.789   4.982  10.354  0.1679 -0.5977 -0.2117
   27CHL1    C6 1933   0.909   4.985  10.295  0.0527  0.6981 -0.6614
   27CHL1    H6 1934   1.000   4.983  10.357 -0.2533  0.0269 -0.2221
   27CHL1    C7 1935   0.926   4.988  10.149 -0.1152 -0.0215 -0.9179
   27CHL1   H7A 1936   1.004   5.065  10.133 -0.2907  0.5224  0.7249
   27CHL1   H7B 1937   0.970   4.895  10.106  1.8687 -0.1927  1.3000
   27CHL1    C8 1938   0.793   5.012  10.078  0.7722 -0.0444  0.1183
   27CHL1    H8 1939   0.777   5.121  10.091  0.4653 -0.1099  0.3147
   27CHL1   C14 1940   0.805   4.982   9.930  0.3146  0.0146 -0.6276
   27CHL1   H14 1941   0.835   4.875   9.933 -0.6269 -0.2495  1.7217
   27CHL1   C15 1942   0.912   5.043   9.843  0.3537 -0.6165  0.2447
   27CHL1  H15A 1943   0.892   5.152   9.844 -1.0619 -0.8563  0.6457
   27CHL1  H15B 1944   1.012   5.023   9.886  1.1746  1.3583 -0.6221
   27CHL1   C16 1945   0.884   4.998   9.704  0.3423  0.1930 -0.8021
   27CHL1  H16A 1946   0.890   5.077   9.626 -0.5779  0.3641 -0.7140
   27CHL1  H16B 1947   0.949   4.914   9.672 -1.9924 -1.3853 -1.6833
   27CHL1   C17 1948   0.736   4.941   9.703  0.9071 -0.0057 -0.5577
   27CHL1   H17 1949   0.750   4.831   9.709  0.2181 -0.0286  1.2220
   27CHL1   C13 1950   0.677   4.990   9.845 -0.1160 -0.7390 -0.5658
   27CHL1   C18 1951   0.621   5.137   9.853 -0.0211  0.4822 -0.0447
   27CHL1  H18A 1952   0.523   5.138   9.802 -0.1637 -1.5499  0.0890
   27CHL1  H18B 1953   0.599   5.163   9.959  0.9417  0.8709  0.0698
   27CHL1  H18C 1954   0.683   5.214   9.802 -0.3888  0.8712  0.0885
   27CHL1   C12 1955   0.575   4.892   9.909 -0.1036 -0.6131  0.0410
   27CHL1  H12A 1956   0.476   4.908   9.861 -1.6551 -0.2359  3.1304
   27CHL1  H12B 1957   0.609   4.786   9.902  2.1217 -0.0454  1.3208
   27CHL1   C11 1958   0.552   4.926  10.056  0.4154  0.0142 -0.6580
   27CHL1  H11A 1959   0.507   5.027  10.058  0.0590 -0.1370 -1.0662
   27CHL1  H11B 1960   0.481   4.848  10.090  0.2850  0.5446  0.3360
   27CHL1    C9 1961   0.677   4.930  10.141 -0.1648 -0.1482 -1.2375
   27CHL1    H9 1962   0.698   4.822  10.154 -2.5598 -0.4512  0.7994
   27CHL1   C10 1963   0.652   4.974  10.293  0.3203  0.4322  0.1516
   27CHL1   C19 1964   0.592   5.113  10.296  0.4096  0.7683 -0.9439
   27CHL1  H19A 1965   0.572   5.151  10.398  3.1027  0.3177 -0.1778
   27CHL1  H19B 1966   0.656   5.197  10.261  0.2575  2.0689  1.6581
   27CHL1  H19C 1967   0.495   5.122  10.243  0.5559  1.2651 -1.1417
   27CHL1    C1 1968   0.556   4.867  10.357 -0.4160  0.4059  0.4051
   27CHL1   H1A 1969   0.455   4.891  10.316 -0.7524 -0.2451  0.8257
   27CHL1   H1B 1970   0.579   4.766  10.315 -1.0568  0.5487 -0.3362
   27CHL1    C2 1971   0.551   4.867  10.506  0.0342  0.2980  0.0409
   27CHL1   H2A 1972   0.499   4.774  10.540 -0.7664 -0.4935 -3.0932
   27CHL1   H2B 1973   0.486   4.950  10.538 -0.2715  1.0195 -2.2828
   27CHL1   C20 1974   0.641   4.976   9.592 -0.9621  0.4755  0.5306
   27CHL1   H20 1975   0.603   5.079   9.608 -1.4761  0.2842  0.5457
   27CHL1   C21 1976   0.517   4.888   9.591  0.3259 -0.2832 -0.7937
   27CHL1  H21A 1977   0.464   4.897   9.494 -1.5995 -1.0656  0.1480
   27CHL1  H21B 1978   0.435   4.904   9.664  0.4487  2.8492 -1.2040
   27CHL1  H21C 1979   0.540   4.780   9.598  0.0217 -0.2434  1.8717
   27CHL1   C22 1980   0.702   4.958   9.444 -0.3181  0.4198  0.7187
   27CHL1  H22A 1981   0.809   4.988   9.447  0.6975 -2.7234  0.1126
   27CHL1  H22B 1982   0.718   4.849   9.429  1.3234  0.7483 -0.0995
   27CHL1   C23 1983   0.644   5.043   9.337 -0.1691 -0.5312 -0.8392
   27CHL1  H23A 1984   0.535   5.020   9.341 -0.4019  0.5320 -0.8808
   27CHL1  H23B 1985   0.668   5.150   9.350 -1.0326 -0.1796 -1.9790
   27CHL1   C24 1986   0.688   5.011   9.197  0.4342 -0.9256 -0.4718
   27CHL1  H24A 1987   0.785   5.063   9.187 -0.3395  1.1742  1.9074
   27CHL1  H24B 1988   0.693   4.900   9.190  1.6275 -0.7968 -2.3342
   27CHL1   C25 1989   0.594   5.049   9.088 -0.2248 -0.1099  0.6316
   27CHL1   H25 1990   0.494   5.001   9.090 -2.1372  3.4868 -0.7510
   27CHL1   C26 1991   0.553   5.205   9.075  0.4496  0.2605 -1.0297
   27CHL1  H26A 1992   0.524   5.248   9.174 -1.5477  1.5492 -2.0975
   27CHL1  H26B 1993   0.636   5.267   9.036  1.0466  0.4879  0.5367
   27CHL1  H26C 1994   0.464   5.214   9.009 -0.0234  0.5357 -0.3679
   27CHL1   C27 1995   0.662   5.012   8.957 -0.2698 -0.4577  0.5860
   27CHL1  H27A 1996   0.587   5.016   8.876 -0.0671 -1.5481  0.3297
   27CHL1  H27B 1997   0.742   5.087   8.937 -1.7898  0.9108 -0.5849
   27CHL1  H27C 1998   0.688   4.904   8.954  2.3697  0.1234 -1.1968
   28CHL1    C3 1999   4.026   3.160  10.195 -0.0546  0.0482 -0.4724
   28CHL1    H3 2000   3.934   3.221  10.179  1.0207  1.6414 -0.8533
   28CHL1    O3 2001   4.076   3.168  10.330 -1.2262 -0.1225  0.3301
   28CHL1   H3' 2002   4.078   3.263  10.348  0.3416  0.1398 -1.0365
   28CHL1    C4 2003   4.001   3.012  10.166  0.1558 -0.0651  0.2884
   28CHL1   H4A 2004   4.097   2.965  10.194  1.1868  2.9530  2.3975
   28CHL1   H4B 2005   3.924   2.983  10.241  1.8514 -0.4514  1.9391
   28CHL1    C5 2006   3.960   2.992  10.024 -0.6877  0.6375  0.3447
   28CHL1    C6 2007   3.847   2.928   9.996  0.4060  0.6113  0.1000
   28CHL1    H6 2008   3.782   2.892  10.077  0.0472 -0.0231 -0.4556
   28CHL1    C7 2009   3.803   2.903   9.853  0.1076  0.2156 -0.2664
   28CHL1   H7A 2010   3.757   2.803   9.840 -1.3685  0.8926 -0.3949
   28CHL1   H7B 2011   3.725   2.976   9.824 -1.5969  0.2607  3.7094
   28CHL1    C8 2012   3.918   2.921   9.756 -0.4607  0.1120 -0.2217
   28CHL1    H8 2013   3.986   2.835   9.778  0.8488  1.5282  1.5272
   28CHL1   C14 2014   3.875   2.923   9.609  0.0432  0.0394 -0.7709
   28CHL1   H14 2015   3.801   3.006   9.601 -0.2730 -0.0672  0.6922
   28CHL1   C15 2016   3.789   2.805   9.562  0.2285 -0.8179  0.3504
   28CHL1  H15A 2017   3.834   2.707   9.588 -0.8434 -1.4700 -0.1909
   28CHL1  H15B 2018   3.686   2.814   9.604 -0.6642 -1.9633 -1.4669
   28CHL1   C16 2019   3.781   2.824   9.412 -0.2426 -0.5579 -0.6777
   28CHL1  H16A 2020   3.796   2.722   9.370  1.8321  0.0013 -1.4090
   28CHL1  H16B 2021   3.689   2.873   9.373  0.8207  1.8059 -0.3704
   28CHL1   C17 2022   3.905   2.919   9.380  0.0612 -0.2788  0.0627
   28CHL1   H17 2023   3.861   3.017   9.352 -2.2094 -1.6727 -1.5518
   28CHL1   C13 2024   3.989   2.946   9.509 -0.3538  0.4925 -0.6484
   28CHL1   C18 2025   4.092   2.833   9.521 -0.7517  0.2612 -0.5182
   28CHL1  H18A 2026   4.043   2.739   9.487  2.5859 -1.3209 -1.3760
   28CHL1  H18B 2027   4.174   2.840   9.447  0.0249 -1.1337  0.1852
   28CHL1  H18C 2028   4.130   2.818   9.624 -0.1701  0.6961 -0.6657
   28CHL1   C12 2029   4.036   3.087   9.535 -0.0899  0.2086  0.3437
   28CHL1  H12A 2030   4.108   3.116   9.456 -0.9742  1.1077 -0.1610
   28CHL1  H12B 2031   3.952   3.160   9.538  1.1318  1.6433  1.1434
   28CHL1   C11 2032   4.102   3.080   9.673 -0.3830  0.0785  0.6499
   28CHL1  H11A 2033   4.189   3.010   9.677 -0.4310  0.0304  0.8409
   28CHL1  H11B 2034   4.139   3.182   9.695 -2.1837  1.8470 -3.4431
   28CHL1    C9 2035   4.004   3.046   9.784  0.6267  0.3447  0.0821
   28CHL1    H9 2036   3.926   3.124   9.778 -0.6530 -1.0240 -3.0990
   28CHL1   C10 2037   4.059   3.047   9.928  0.1747 -0.3640 -0.3031
   28CHL1   C19 2038   4.187   2.964   9.921  0.0592  0.3844  0.0403
   28CHL1  H19A 2039   4.218   2.941  10.025 -3.1030  0.3610  1.0817
   28CHL1  H19B 2040   4.170   2.867   9.869 -1.1010  0.0308  1.0646
   28CHL1  H19C 2041   4.268   3.017   9.865  0.2944 -1.5324 -1.5370
   28CHL1    C1 2042   4.099   3.193   9.965 -0.3252 -0.1106 -0.2277
   28CHL1   H1A 2043   4.189   3.229   9.911  1.1849  0.0763  2.2818
   28CHL1   H1B 2044   4.019   3.264   9.937 -0.2805  0.4953  1.1047
   28CHL1    C2 2045   4.139   3.204  10.108 -0.2982  0.4252 -0.2992
   28CHL1   H2A 2046   4.170   3.309  10.127 -1.4649  0.6279  0.6244
   28CHL1   H2B 2047   4.224   3.142  10.142 -1.2366  0.2222  1.8716
   28CHL1   C20 2048   3.980   2.867   9.253 -0.0790  0.4385  1.3420
   28CHL1   H20 2049   4.030   2.771   9.277  2.2461  1.3666  0.4381
   28CHL1   C21 2050   4.084   2.969   9.203 -0.7095  0.4033  0.8817
   28CHL1  H21A 2051   4.129   2.933   9.108 -0.1806 -1.0468  1.6575
   28CHL1  H21B 2052   4.159   3.000   9.279  1.0442 -0.8591 -0.2417
   28CHL1  H21C 2053   4.028   3.060   9.172 -0.1401 -0.2451 -2.4114
   28CHL1   C22 2054   3.890   2.834   9.133 -0.8077 -0.1939  0.5413
   28CHL1  H22A 2055   3.952   2.807   9.045  0.7215  2.9842  0.5064
   28CHL1  H22B 2056   3.832   2.744   9.165 -0.9600 -0.7532 -1.2211
   28CHL1   C23 2057   3.803   2.945   9.077 -0.2574 -0.0882  0.7592
   28CHL1  H23A 2058   3.749   2.994   9.161 -0.0491  1.4927  0.0112
   28CHL1  H23B 2059   3.868   3.018   9.024 -0.3872 -1.8692 -2.0116
   28CHL1   C24 2060   3.685   2.901   8.987 -0.9904 -0.4333  0.3095
   28CHL1  H24A 2061   3.729   2.886   8.885  0.3821  0.2603  0.7679
   28CHL1  H24B 2062   3.651   2.801   9.019 -2.0545 -0.1417  0.1212
   28CHL1   C25 2063   3.558   2.990   8.976 -0.0401 -0.1968  0.0079
   28CHL1   H25 2064   3.508   2.993   9.075 -3.7906 -0.2625 -1.7122
   28CHL1   C26 2065   3.589   3.136   8.935 -0.0129  1.0778 -0.5879
   28CHL1  H26A 2066   3.667   3.140   8.856 -0.4923 -2.8535 -1.4785
   28CHL1  H26B 2067   3.496   3.188   8.906 -0.8716 -0.1867 -0.2091
   28CHL1  H26C 2068   3.635   3.177   9.028 -0.2547  1.2359 -0.5363
   28CHL1   C27 2069   3.474   2.919   8.871 -0.1026 -0.0129  0.6941
   28CHL1  H27A 2070   3.366   2.942   8.870  0.0294  0.8502 -2.0504
   28CHL1  H27B 2071   3.525   2.943   8.775 -3.0352  1.4140 -0.6311
   28CHL1  H27C 2072   3.487   2.809   8.887  0.4819 -0.2367 -1.0623
   29CHL1    C3 2073   1.959   2.642   6.674 -0.5230 -0.6299 -0.0632
   29CHL1    H3 2074   2.045   2.575   6.698 -0.5037 -0.7177 -0.3714
   29CHL1    O3 2075   1.927   2.648   6.534  0.1005  1.2223  0.0009
   29CHL1   H3' 2076   1.857   2.712   6.522 -0.1046  1.5354  2.4648
   29CHL1    C4 2077   1.843   2.580   6.750  0.6080 -0.3170 -0.2620
   29CHL1   H4A 2078   1.749   2.629   6.719 -0.0560 -1.2393  0.2497
   29CHL1   H4B 2079   1.833   2.473   6.722  0.7449  0.0217 -1.6696
   29CHL1    C5 2080   1.866   2.590   6.903 -0.4884 -0.4771  1.0525
   29CHL1    C6 2081   1.880   2.478   6.973  0.2998 -0.9523 -0.0682
   29CHL1    H6 2082   1.867   2.379   6.927  1.1055 -1.7239  1.2831
   29CHL1    C7 2083   1.903   2.471   7.122 -0.4302 -0.8388 -0.7526
   29CHL1   H7A 2084   1.833   2.394   7.162 -2.7744 -0.6422 -4.0002
   29CHL1   H7B 2085   2.007   2.444   7.147 -0.1242 -0.0767 -1.1632
   29CHL1    C8 2086   1.866   2.609   7.195 -0.1976  0.9823 -0.0728
   29CHL1    H8 2087   1.756   2.612   7.187 -0.5540 -3.0140  1.2581
   29CHL1   C14 2088   1.920   2.611   7.342 -0.3120  0.2653  0.2576
   29CHL1   H14 2089   2.030   2.601   7.328 -0.2005 -0.0615  1.2992
   29CHL1   C15 2090   1.876   2.499   7.428 -0.5914 -0.2027  0.2758
   29CHL1  H15A 2091   1.766   2.494   7.440 -0.5072  2.1144  3.1567
   29CHL1  H15B 2092   1.925   2.402   7.407  0.2778  0.0176  1.1914
   29CHL1   C16 2093   1.940   2.545   7.561 -0.1461  0.1495 -0.0598
   29CHL1  H16A 2094   1.863   2.522   7.638  0.2145  0.0313  0.2677
   29CHL1  H16B 2095   2.031   2.487   7.587 -0.9386 -1.5528 -0.9280
   29CHL1   C17 2096   1.976   2.697   7.552 -0.6178 -0.5614 -1.1490
   29CHL1   H17 2097   2.085   2.703   7.533  0.0744  0.3704  2.4464
   29CHL1   C13 2098   1.910   2.742   7.420 -0.4173 -0.2391  0.6638
   29CHL1   C18 2099   1.764   2.768   7.439  0.1145 -0.5030  0.1866
   29CHL1  H18A 2100   1.703   2.727   7.355 -0.0296  0.8372 -0.3824
   29CHL1  H18B 2101   1.722   2.719   7.529 -0.8818  0.6142  0.3523
   29CHL1  H18C 2102   1.760   2.878   7.446  2.8649 -0.2206 -1.1201
   29CHL1   C12 2103   1.992   2.847   7.331  0.2258  0.0681 -0.9083
   29CHL1  H12A 2104   1.989   2.946   7.383 -2.7806 -2.3254  4.2525
   29CHL1  H12B 2105   2.098   2.818   7.319  0.4216  1.2173 -2.3464
   29CHL1   C11 2106   1.931   2.859   7.185  0.0757  0.7531  0.8333
   29CHL1  H11A 2107   1.829   2.899   7.203 -0.9292 -0.7838 -1.0896
   29CHL1  H11B 2108   1.990   2.934   7.128 -1.0132  1.5521  0.7232
   29CHL1    C9 2109   1.936   2.726   7.115  0.9112  0.0804 -0.4582
   29CHL1    H9 2110   2.043   2.694   7.116  0.7373 -0.5138  0.2269
   29CHL1   C10 2111   1.892   2.730   6.966  0.3046  0.2896  0.5525
   29CHL1   C19 2112   1.758   2.809   6.950 -0.4138  0.1744 -1.1032
   29CHL1  H19A 2113   1.767   2.911   6.994 -0.6663  0.9041 -2.6770
   29CHL1  H19B 2114   1.736   2.826   6.843 -1.1867 -0.4317 -1.0494
   29CHL1  H19C 2115   1.676   2.749   6.995 -1.0138  0.9904 -1.0860
   29CHL1    C1 2116   1.996   2.798   6.876 -0.5632 -0.5373  0.5493
   29CHL1   H1A 2117   2.014   2.905   6.901 -1.2408 -0.1951 -0.4174
   29CHL1   H1B 2118   2.088   2.741   6.901 -0.7241 -0.5082  1.2370
   29CHL1    C2 2119   1.983   2.787   6.720  0.1259  0.1036  0.6178
   29CHL1   H2A 2120   2.074   2.824   6.669 -1.5223  0.4546 -2.3279
   29CHL1   H2B 2121   1.890   2.840   6.687 -1.5494 -2.4998  0.8507
   29CHL1   C20 2122   1.946   2.781   7.682 -0.1401 -0.0103 -0.4144
   29CHL1   H20 2123   1.839   2.766   7.709 -0.2144 -0.8579 -1.1519
   29CHL1   C21 2124   1.975   2.932   7.657  0.0539 -0.1372  0.9099
   29CHL1  H21A 2125   1.971   2.993   7.749  0.9891  2.9417 -0.9576
   29CHL1  H21B 2126   1.896   2.970   7.589 -1.0726 -1.1303  1.6280
   29CHL1  H21C 2127   2.078   2.938   7.614  0.8276 -1.5437  2.4386
   29CHL1   C22 2128   2.037   2.727   7.800  0.1205 -0.0077  0.9160
   29CHL1  H22A 2129   2.021   2.618   7.790  2.4322 -0.3360  0.2918
   29CHL1  H22B 2130   2.144   2.758   7.798 -0.1995  1.1690 -0.7784
   29CHL1   C23 2131   1.978   2.791   7.931 -0.3307 -0.3147  0.4237
   29CHL1  H23A 2132   1.962   2.901   7.930 -0.8758 -0.3869 -0.8468
   29CHL1  H23B 2133   1.874   2.753   7.938 -1.3679  2.1719 -0.3635
   29CHL1   C24 2134   2.055   2.766   8.065  1.1664  0.2936  0.0668
   29CHL1  H24A 2135   2.041   2.656   8.076  2.8100  0.1715  1.2383
   29CHL1  H24B 2136   2.164   2.787   8.060  1.2652  0.7432  2.6153
   29CHL1   C25 2137   1.997   2.844   8.190 -0.1802  0.4486 -0.6759
   29CHL1   H25 2138   2.025   2.951   8.174  0.3563  0.8190  2.1719
   29CHL1   C26 2139   1.848   2.836   8.215 -0.6504 -0.5150  0.1162
   29CHL1  H26A 2140   1.811   2.912   8.286 -1.8758 -1.8305  0.9311
   29CHL1  H26B 2141   1.782   2.858   8.128  0.3696  1.3351 -0.2489
   29CHL1  H26C 2142   1.818   2.736   8.252 -1.1164 -0.7060 -0.7396
   29CHL1   C27 2143   2.082   2.797   8.312 -0.3752  0.2464  0.2575
   29CHL1  H27A 2144   2.190   2.822   8.304  0.7346 -4.0352 -0.8594
   29CHL1  H27B 2145   2.049   2.848   8.405 -0.7066 -0.1438  0.3568
   29CHL1  H27C 2146   2.070   2.687   8.325 -0.9534  0.0962 -1.3849
   30CHL1    C3 2147   5.484   6.515   7.207 -0.9748 -0.9906  0.3809
   30CHL1    H3 2148   5.451   6.621   7.213  0.7677 -0.3699 -0.1624
   30CHL1    O3 2149   5.451   6.480   7.075 -0.6727 -0.1849  0.1208
   30CHL1   H3' 2150   5.357   6.463   7.081 -1.0624  1.4027 -0.8710
   30CHL1    C4 2151   5.630   6.484   7.243  0.6984  0.0244  0.7151
   30CHL1   H4A 2152   5.658   6.382   7.211  0.5241  0.0481  0.4836
   30CHL1   H4B 2153   5.687   6.556   7.181  0.9085  1.0768  2.0785
   30CHL1    C5 2154   5.667   6.507   7.384 -0.8447  0.3734 -0.2274
   30CHL1    C6 2155   5.775   6.579   7.415 -0.4464 -0.9197 -1.1891
   30CHL1    H6 2156   5.839   6.619   7.335  0.3227 -1.4314 -0.8358
   30CHL1    C7 2157   5.824   6.593   7.555 -0.1915 -1.0775 -0.6529
   30CHL1   H7A 2158   5.932   6.567   7.559 -0.4553 -2.0854  1.2366
   30CHL1   H7B 2159   5.820   6.697   7.593 -2.0266 -0.8782 -1.2754
   30CHL1    C8 2160   5.757   6.502   7.665 -0.8338  0.3728  0.6188
   30CHL1    H8 2161   5.794   6.397   7.665  1.0171  0.9518 -1.4406
   30CHL1   C14 2162   5.778   6.569   7.806  0.0467  0.2968  0.0022
   30CHL1   H14 2163   5.722   6.665   7.802  1.7071  1.3171  0.4464
   30CHL1   C15 2164   5.917   6.616   7.848  0.1670 -0.8436  0.1422
   30CHL1  H15A 2165   5.995   6.548   7.806  0.7204 -0.3212  0.3073
   30CHL1  H15B 2166   5.942   6.718   7.814 -1.4150 -0.6054 -0.3748
   30CHL1   C16 2167   5.903   6.616   8.004  0.0767 -0.1653  0.6650
   30CHL1  H16A 2168   5.971   6.542   8.051  1.7270  1.3104  0.7198
   30CHL1  H16B 2169   5.935   6.711   8.052  1.0296  0.4795 -1.1258
   30CHL1   C17 2170   5.756   6.588   8.045 -0.4405  0.3099 -0.0189
   30CHL1   H17 2171   5.701   6.685   8.044  1.7206  1.6337  1.1365
   30CHL1   C13 2172   5.715   6.497   7.925 -0.6447  0.0154 -0.6179
   30CHL1   C18 2173   5.779   6.360   7.941 -0.8866  0.4028  0.3187
   30CHL1  H18A 2174   5.773   6.295   7.851  3.3476 -2.3176  1.6836
   30CHL1  H18B 2175   5.888   6.364   7.966 -0.5385  1.2886 -1.2190
   30CHL1  H18C 2176   5.721   6.306   8.019 -0.2159 -1.4877 -0.4180
   30CHL1   C12 2177   5.563   6.487   7.896 -0.1018 -0.1238 -0.5760
   30CHL1  H12A 2178   5.508   6.431   7.974  1.2963  0.2656  0.7256
   30CHL1  H12B 2179   5.528   6.593   7.887  3.3071  0.9630 -3.1686
   30CHL1   C11 2180   5.526   6.427   7.756 -0.3801  0.0216 -0.3487
   30CHL1  H11A 2181   5.570   6.326   7.764 -0.6372  0.0296  2.1010
   30CHL1  H11B 2182   5.417   6.418   7.737 -0.5647  1.9347 -0.4218
   30CHL1    C9 2183   5.605   6.497   7.638 -0.5260  0.2593  0.2453
   30CHL1    H9 2184   5.573   6.603   7.645 -1.1739  0.0309  0.8838
   30CHL1   C10 2185   5.581   6.442   7.489 -0.1548  0.8997 -0.0183
   30CHL1   C19 2186   5.591   6.288   7.488 -0.0900  1.1180  0.8429
   30CHL1  H19A 2187   5.515   6.233   7.548  1.3027 -1.5486  0.2872
   30CHL1  H19B 2188   5.582   6.258   7.381 -0.9791  1.0929  0.9127
   30CHL1  H19C 2189   5.690   6.260   7.528 -0.6292 -0.5289  1.1025
   30CHL1    C1 2190   5.433   6.483   7.450  0.7594 -0.4493  0.3446
   30CHL1   H1A 2191   5.358   6.436   7.516  0.5283 -0.0334  0.3844
   30CHL1   H1B 2192   5.424   6.593   7.467  3.0185 -0.3771  1.4834
   30CHL1    C2 2193   5.396   6.446   7.306 -0.1483 -0.4003  0.1312
   30CHL1   H2A 2194   5.288   6.470   7.296 -0.4369  0.5353  3.7831
   30CHL1   H2B 2195   5.409   6.338   7.284  3.6404  0.7022 -4.8598
   30CHL1   C20 2196   5.733   6.529   8.189  0.0830 -0.1847 -0.4999
   30CHL1   H20 2197   5.764   6.423   8.197  2.4730  0.1610 -3.4500
   30CHL1   C21 2198   5.581   6.526   8.216 -0.6591  0.1426 -0.3549
   30CHL1  H21A 2199   5.525   6.620   8.196 -1.6223 -0.9153 -3.1269
   30CHL1  H21B 2200   5.566   6.507   8.325 -3.2559  2.5090 -0.1792
   30CHL1  H21C 2201   5.531   6.439   8.169 -2.9556  0.3198  1.5185
   30CHL1   C22 2202   5.807   6.604   8.302 -0.6383 -0.3481  0.1110
   30CHL1  H22A 2203   5.798   6.545   8.396  1.4684 -2.4102 -0.8932
   30CHL1  H22B 2204   5.914   6.610   8.274 -0.2214 -1.4870  1.3333
   30CHL1   C23 2205   5.740   6.737   8.320  0.2906 -0.3205  0.1091
   30CHL1  H23A 2206   5.702   6.772   8.222 -0.1817 -0.8325  0.1103
   30CHL1  H23B 2207   5.650   6.717   8.382  1.3131 -0.3716  1.6441
   30CHL1   C24 2208   5.822   6.849   8.387  0.3301 -0.6553  0.0866
   30CHL1  H24A 2209   5.865   6.807   8.480  1.2429  1.1494  0.5259
   30CHL1  H24B 2210   5.906   6.871   8.318 -0.5126 -3.3121 -1.9838
   30CHL1   C25 2211   5.743   6.976   8.421 -0.4785  0.2251  0.9686
   30CHL1   H25 2212   5.717   7.023   8.324  1.4982 -0.5528  0.0042
   30CHL1   C26 2213   5.611   6.968   8.499 -0.5684  0.6855  0.0061
   30CHL1  H26A 2214   5.530   6.923   8.437  1.3654 -2.1952 -0.6503
   30CHL1  H26B 2215   5.627   6.925   8.600  1.8714  3.1171  0.7734
   30CHL1  H26C 2216   5.579   7.073   8.515  1.8086  1.1074  2.8668
   30CHL1   C27 2217   5.847   7.067   8.490  0.4340  0.2070  0.0178
   30CHL1  H27A 2218   5.788   7.160   8.509  0.3939 -0.1101  1.5088
   30CHL1  H27B 2219   5.863   7.028   8.593  0.6114 -1.0462 -0.4674
   30CHL1  H27C 2220   5.938   7.084   8.429  1.5281  0.0554  1.5621
   31CHL1    C3 2221   0.026   1.111   6.988 -0.0866  0.0245  0.7081
   31CHL1    H3 2222   0.130   1.148   6.991  0.4741 -1.4629  0.5543
   31CHL1    O3 2223   0.006   1.058   6.855  0.0958  0.0687 -0.4144
   31CHL1   H3' 2224   0.083   1.002   6.842  1.0446  0.5525  2.4091
   31CHL1    C4 2225   0.030   0.987   7.083  0.0919  0.2347 -0.0919
   31CHL1   H4A 2226  -0.058   0.928   7.048  0.5017  0.0918 -0.8966
   31CHL1   H4B 2227   0.117   0.923   7.057  0.7169  0.3250  1.6655
   31CHL1    C5 2228   0.020   1.021   7.229  0.3600  0.1758 -0.9856
   31CHL1    C6 2229   0.109   0.976   7.313  1.1882 -0.0226  0.0861
   31CHL1    H6 2230   0.181   0.900   7.278  0.9615 -0.1624 -0.0785
   31CHL1    C7 2231   0.100   1.001   7.464  0.0139  0.8445 -0.6644
   31CHL1   H7A 2232   0.110   0.911   7.529  0.5500  0.7690 -0.8442
   31CHL1   H7B 2233   0.184   1.070   7.490  0.6755  0.8399 -2.6445
   31CHL1    C8 2234  -0.032   1.053   7.519  0.0097 -0.3933 -0.7931
   31CHL1    H8 2235  -0.116   0.981   7.528 -1.1490  1.1329  1.4696
   31CHL1   C14 2236  -0.013   1.108   7.663  0.6139 -0.1926 -0.1218
   31CHL1   H14 2237   0.066   1.186   7.663 -0.9980  1.5242 -0.6603
   31CHL1   C15 2238   0.023   1.008   7.777  0.0394  0.2802  0.1858
   31CHL1  H15A 2239  -0.043   0.918   7.766  1.1808 -0.3601 -2.2003
   31CHL1  H15B 2240   0.127   0.972   7.762 -0.6002 -0.5300 -3.1608
   31CHL1   C16 2241  -0.001   1.092   7.900  0.5117  0.4038  0.6824
   31CHL1  H16A 2242  -0.067   1.041   7.973 -2.7969  3.5743  0.1494
   31CHL1  H16B 2243   0.097   1.112   7.949  0.9655 -0.7667  0.2867
   31CHL1   C17 2244  -0.082   1.219   7.861 -0.1160  0.9090 -0.4385
   31CHL1   H17 2245  -0.017   1.306   7.837  3.9133 -1.9645 -1.1225
   31CHL1   C13 2246  -0.134   1.183   7.723  0.5978  0.4671  1.1601
   31CHL1   C18 2247  -0.259   1.091   7.733 -0.2477 -0.4027 -0.2312
   31CHL1  H18A 2248  -0.230   1.001   7.791 -0.9054 -1.4659 -1.4870
   31CHL1  H18B 2249  -0.347   1.134   7.786  0.0029 -1.2345  0.8978
   31CHL1  H18C 2250  -0.285   1.064   7.629  0.7382  0.8611 -0.8361
   31CHL1   C12 2251  -0.161   1.303   7.632  0.4394 -0.6037  0.0882
   31CHL1  H12A 2252  -0.247   1.367   7.661  1.7011  2.2243 -1.9066
   31CHL1  H12B 2253  -0.081   1.380   7.631 -0.2703  0.2023  1.6843
   31CHL1   C11 2254  -0.181   1.263   7.476 -0.2386 -0.0831 -0.8381
   31CHL1  H11A 2255  -0.275   1.205   7.487 -0.4184  0.5640  1.5161
   31CHL1  H11B 2256  -0.201   1.349   7.409 -3.4209 -1.2860 -1.5994
   31CHL1    C9 2257  -0.071   1.169   7.425 -0.3773 -0.1589 -0.9204
   31CHL1    H9 2258   0.021   1.231   7.423 -1.5564  1.6532 -1.8230
   31CHL1   C10 2259  -0.085   1.126   7.273  0.0799 -0.0680 -0.0167
   31CHL1   C19 2260  -0.225   1.063   7.244 -0.5590  0.0457 -0.6111
   31CHL1  H19A 2261  -0.314   1.126   7.265 -0.5278  0.6775 -2.2746
   31CHL1  H19B 2262  -0.235   1.020   7.142  1.5860  2.8386 -2.1270
   31CHL1  H19C 2263  -0.233   0.972   7.309  0.1038 -0.3079 -1.0060
   31CHL1    C1 2264  -0.073   1.243   7.173  0.3210  0.3088 -0.6513
   31CHL1   H1A 2265  -0.156   1.310   7.203  1.8332  1.8161  0.3711
   31CHL1   H1B 2266   0.019   1.295   7.206 -0.5024  0.8402  0.9324
   31CHL1    C2 2267  -0.086   1.208   7.024 -0.3601 -0.0273  0.4375
   31CHL1   H2A 2268  -0.073   1.296   6.958  3.3039 -2.0964 -1.9678
   31CHL1   H2B 2269  -0.185   1.167   6.993  0.7932  0.0206 -4.0108
   31CHL1   C20 2270  -0.189   1.252   7.969  0.2657  0.2773 -0.0229
   31CHL1   H20 2271  -0.246   1.159   7.986 -0.7817  0.8140 -0.5338
   31CHL1   C21 2272  -0.293   1.365   7.923  0.1153  0.8319 -0.1603
   31CHL1  H21A 2273  -0.371   1.338   7.849 -0.7085 -2.0429  1.5863
   31CHL1  H21B 2274  -0.238   1.457   7.894  0.6337  0.7423  0.5040
   31CHL1  H21C 2275  -0.352   1.401   8.010  0.7791  4.3556 -1.0124
   31CHL1   C22 2276  -0.131   1.276   8.117 -0.5206 -0.5468 -0.2259
   31CHL1  H22A 2277  -0.036   1.219   8.129  0.6507  1.4845  0.6597
   31CHL1  H22B 2278  -0.106   1.384   8.127 -0.4817 -0.5580 -0.1985
   31CHL1   C23 2279  -0.223   1.240   8.231 -0.0330 -0.1937 -0.2378
   31CHL1  H23A 2280  -0.308   1.312   8.239 -0.4827 -0.7860  0.4926
   31CHL1  H23B 2281  -0.253   1.133   8.224  0.4294 -0.2626 -1.2780
   31CHL1   C24 2282  -0.160   1.261   8.370  0.1231  1.1524 -0.3078
   31CHL1  H24A 2283  -0.059   1.215   8.362 -0.3023  0.3392 -1.2904
   31CHL1  H24B 2284  -0.151   1.372   8.378  0.2011  1.1301 -0.0792
   31CHL1   C25 2285  -0.238   1.229   8.494  0.3918 -0.2774 -0.0302
   31CHL1   H25 2286  -0.165   1.220   8.577  1.2185  2.1953 -0.4052
   31CHL1   C26 2287  -0.332   1.345   8.531  0.5697  0.2131 -0.2419
   31CHL1  H26A 2288  -0.383   1.385   8.441 -0.3723 -2.1746 -0.8317
   31CHL1  H26B 2289  -0.414   1.316   8.601  1.4572 -2.1710 -0.1023
   31CHL1  H26C 2290  -0.266   1.425   8.572 -0.2030  1.4721 -1.3394
   31CHL1   C27 2291  -0.322   1.094   8.479 -0.1128 -0.5148 -0.1779
   31CHL1  H27A 2292  -0.379   1.080   8.573  0.8701  1.4016  0.7502
   31CHL1  H27B 2293  -0.258   1.003   8.477  2.7808  1.3547  0.4968
   31CHL1  H27C 2294  -0.382   1.102   8.385 -1.3767  0.5753  0.6982
   32CHL1    C3 2295   1.069   1.395   6.769  0.0414 -0.0914 -0.3444
   32CHL1    H3 2296   0.984   1.446   6.720  2.0780 -0.4303 -4.6967
   32CHL1    O3 2297   1.153   1.360   6.662  0.1727 -0.3332  0.8401
   32CHL1   H3' 2298   1.188   1.448   6.645 -0.6541  0.2374  1.9189
   32CHL1    C4 2299   1.143   1.487   6.869 -0.0111 -0.2653  0.3246
   32CHL1   H4A 2300   1.243   1.440   6.871  0.3452  0.3939 -1.1276
   32CHL1   H4B 2301   1.158   1.581   6.813  1.1318 -2.1655 -2.8608
   32CHL1    C5 2302   1.081   1.505   7.007  0.3684 -0.0198  0.8283
   32CHL1    C6 2303   1.049   1.630   7.066 -0.3104  1.0544 -0.9226
   32CHL1    H6 2304   1.082   1.718   7.010  2.8045  1.4850  1.3234
   32CHL1    C7 2305   0.993   1.650   7.210 -0.0528 -0.1875  1.4414
   32CHL1   H7A 2306   1.029   1.735   7.273  1.3791 -0.1048  0.5618
   32CHL1   H7B 2307   0.886   1.668   7.188  0.2367 -1.0304 -1.0293
   32CHL1    C8 2308   1.002   1.518   7.293 -0.0913  0.1989  1.0265
   32CHL1    H8 2309   1.108   1.509   7.326  0.1338  0.4433  0.3966
   32CHL1   C14 2310   0.919   1.531   7.424  0.3375 -0.2296  0.2179
   32CHL1   H14 2311   0.822   1.557   7.377  1.0547 -0.9084 -1.7354
   32CHL1   C15 2312   0.955   1.646   7.516  0.8055 -0.6334  0.1127
   32CHL1  H15A 2313   1.065   1.661   7.527  0.9033 -2.2023  1.5794
   32CHL1  H15B 2314   0.914   1.739   7.472  2.7767 -0.1899 -0.9358
   32CHL1   C16 2315   0.884   1.606   7.649  0.1508 -0.4117 -0.8631
   32CHL1  H16A 2316   0.955   1.617   7.733 -1.6205  1.3969  0.4700
   32CHL1  H16B 2317   0.817   1.692   7.670 -0.5304 -0.9317 -0.8888
   32CHL1   C17 2318   0.821   1.469   7.629 -0.9345 -0.4425  0.6076
   32CHL1   H17 2319   0.719   1.501   7.598  0.2733  1.8917 -1.2994
   32CHL1   C13 2320   0.901   1.411   7.511  0.4364  0.8796  0.0795
   32CHL1   C18 2321   1.034   1.359   7.574 -0.9766 -0.0789 -0.1504
   32CHL1  H18A 2322   1.071   1.436   7.645  2.3554 -0.3388 -1.4609
   32CHL1  H18B 2323   1.009   1.264   7.628 -1.0719  0.4642  0.7906
   32CHL1  H18C 2324   1.105   1.342   7.491 -2.0528 -0.3626 -1.0329
   32CHL1   C12 2325   0.832   1.298   7.428  0.4382 -0.1270  0.5155
   32CHL1  H12A 2326   0.828   1.206   7.490 -0.1223  0.5796  1.5465
   32CHL1  H12B 2327   0.730   1.322   7.392  0.9533  0.3022 -0.7418
   32CHL1   C11 2328   0.903   1.277   7.293 -0.5656  0.2190  0.2975
   32CHL1  H11A 2329   1.002   1.230   7.315 -0.2117  1.4823  1.5663
   32CHL1  H11B 2330   0.850   1.209   7.222 -0.5040  1.3050 -0.8195
   32CHL1    C9 2331   0.943   1.406   7.208 -0.1833 -0.0190  0.4180
   32CHL1    H9 2332   0.839   1.434   7.185 -1.0528 -3.0259  0.2237
   32CHL1   C10 2333   1.029   1.377   7.079 -0.1645 -0.0939 -0.0376
   32CHL1   C19 2334   1.162   1.305   7.120 -0.3232  0.3704 -0.2487
   32CHL1  H19A 2335   1.231   1.293   7.033  0.9072  2.2389  0.4185
   32CHL1  H19B 2336   1.217   1.355   7.203 -0.7677 -2.7791  2.1556
   32CHL1  H19C 2337   1.127   1.204   7.152  1.2370 -0.5423 -1.2771
   32CHL1    C1 2338   0.950   1.302   6.975  0.1687 -0.0511  0.1960
   32CHL1   H1A 2339   0.901   1.215   7.026  2.4222 -0.9611  0.9780
   32CHL1   H1B 2340   0.865   1.367   6.947 -0.0575  0.2666  1.5577
   32CHL1    C2 2341   1.023   1.265   6.844  0.0739 -0.2436  0.7259
   32CHL1   H2A 2342   0.952   1.213   6.776  1.2417 -1.0244  0.0696
   32CHL1   H2B 2343   1.099   1.188   6.869  0.4194 -0.3937 -0.6908
   32CHL1   C20 2344   0.798   1.395   7.756 -0.5531  0.3023 -0.2293
   32CHL1   H20 2345   0.888   1.347   7.800 -1.1155 -0.2737  0.3121
   32CHL1   C21 2346   0.707   1.268   7.717  0.5829  0.7758  0.1575
   32CHL1  H21A 2347   0.632   1.290   7.637  0.4826 -0.4936 -0.1243
   32CHL1  H21B 2348   0.657   1.221   7.804 -0.4292  0.5121 -0.5376
   32CHL1  H21C 2349   0.773   1.193   7.669  1.5331  1.1475  0.8683
   32CHL1   C22 2350   0.733   1.481   7.874 -0.2784 -0.3461  0.0768
   32CHL1  H22A 2351   0.812   1.550   7.908 -1.7590  0.0040  3.1351
   32CHL1  H22B 2352   0.654   1.541   7.823  1.0136  1.1226 -0.2420
   32CHL1   C23 2353   0.682   1.408   8.000  0.7434 -0.1889  0.8531
   32CHL1  H23A 2354   0.581   1.366   7.980  0.8413  0.9127 -2.5179
   32CHL1  H23B 2355   0.752   1.329   8.035  0.8907 -0.5234 -0.1515
   32CHL1   C24 2356   0.662   1.508   8.120 -0.7143 -0.4142 -0.5250
   32CHL1  H24A 2357   0.763   1.552   8.134 -0.4244 -1.0104 -0.6958
   32CHL1  H24B 2358   0.598   1.596   8.099  2.5084  2.0873 -0.4962
   32CHL1   C25 2359   0.616   1.425   8.253  0.0983 -0.8037  0.2119
   32CHL1   H25 2360   0.681   1.335   8.250  1.4925  0.1621  0.4221
   32CHL1   C26 2361   0.638   1.514   8.385  0.4937 -0.0803  0.0484
   32CHL1  H26A 2362   0.592   1.613   8.365 -0.8576 -0.7906 -0.4695
   32CHL1  H26B 2363   0.605   1.459   8.476  2.2012 -0.5267  0.4464
   32CHL1  H26C 2364   0.748   1.531   8.382  0.4262  0.2347 -1.9523
   32CHL1   C27 2365   0.471   1.383   8.229  0.0572 -0.4207  0.2629
   32CHL1  H27A 2366   0.438   1.296   8.169 -2.8009  0.9039 -0.2949
   32CHL1  H27B 2367   0.441   1.345   8.329  0.7177 -0.4553  0.4504
   32CHL1  H27C 2368   0.407   1.469   8.198 -0.0773 -1.6310 -3.2822
   33CHL1    C3 2369   0.954   6.174   7.116  0.0469 -0.7100 -0.3587
   33CHL1    H3 2370   0.858   6.216   7.154 -0.0358  0.1433 -1.4754
   33CHL1    O3 2371   0.969   6.180   6.973  0.6414  0.4769 -0.3562
   33CHL1   H3' 2372   1.047   6.129   6.948  0.8930  0.9055 -0.4563
   33CHL1    C4 2373   1.052   6.267   7.184 -0.0249 -0.1280  0.5601
   33CHL1   H4A 2374   1.155   6.245   7.150 -0.2654  1.5144 -1.4896
   33CHL1   H4B 2375   1.030   6.369   7.145  0.4424 -0.7544 -1.4684
   33CHL1    C5 2376   1.055   6.256   7.336 -0.5060 -0.0519  0.3277
   33CHL1    C6 2377   1.044   6.367   7.411 -0.4621 -0.1835 -0.0225
   33CHL1    H6 2378   1.048   6.466   7.363  1.3231 -0.2203 -0.0231
   33CHL1    C7 2379   1.063   6.360   7.561  0.7405  0.5948 -0.2763
   33CHL1   H7A 2380   1.150   6.418   7.598  0.3380  0.6127  0.6794
   33CHL1   H7B 2381   0.970   6.404   7.603  0.2563  0.3024 -1.0377
   33CHL1    C8 2382   1.089   6.223   7.617  0.0276  0.7079  0.2566
   33CHL1    H8 2383   1.199   6.211   7.604 -0.1656  0.5257 -1.3941
   33CHL1   C14 2384   1.057   6.216   7.765  0.6764 -0.1796  0.8765
   33CHL1   H14 2385   0.949   6.244   7.765  0.5596 -0.4803 -1.0220
   33CHL1   C15 2386   1.126   6.317   7.861 -0.1777 -0.4794  0.5524
   33CHL1  H15A 2387   1.236   6.300   7.852 -0.2147 -1.2250  1.3755
   33CHL1  H15B 2388   1.104   6.425   7.849  1.3107 -0.2828 -0.6984
   33CHL1   C16 2389   1.098   6.259   7.999  0.2671  0.2342  0.2397
   33CHL1  H16A 2390   1.189   6.254   8.061 -0.0975  2.4844  1.0618
   33CHL1  H16B 2391   1.027   6.331   8.046 -0.4084  0.3235 -0.8719
   33CHL1   C17 2392   1.036   6.116   7.974 -0.0068  0.4419 -0.2985
   33CHL1   H17 2393   0.927   6.137   7.969  0.3454  2.8805  1.1008
   33CHL1   C13 2394   1.077   6.083   7.832  1.1836 -0.9380  0.5311
   33CHL1   C18 2395   1.219   6.032   7.830 -0.3142 -0.1527  0.3911
   33CHL1  H18A 2396   1.219   5.927   7.867 -1.4825 -0.8081 -1.3735
   33CHL1  H18B 2397   1.261   6.027   7.728  1.6211 -2.0241  1.1926
   33CHL1  H18C 2398   1.289   6.100   7.882  0.2389  0.8983 -1.6321
   33CHL1   C12 2399   0.990   5.980   7.759  0.6603 -0.5144 -0.3923
   33CHL1  H12A 2400   1.016   5.881   7.802 -2.8188 -1.0924  0.7103
   33CHL1  H12B 2401   0.883   6.003   7.775  0.2132 -2.5302 -0.2458
   33CHL1   C11 2402   1.023   5.975   7.611  0.0212 -0.3574 -0.0840
   33CHL1  H11A 2403   1.127   5.937   7.605 -0.4278 -1.5391 -0.5745
   33CHL1  H11B 2404   0.953   5.905   7.561  0.1860  0.3712 -1.3667
   33CHL1    C9 2405   1.017   6.111   7.540 -0.1497 -0.7775 -0.4761
   33CHL1    H9 2406   0.912   6.147   7.538  0.3913  0.8639 -0.7401
   33CHL1   C10 2407   1.057   6.108   7.397 -0.5114 -0.4696 -0.2194
   33CHL1   C19 2408   1.197   6.040   7.379 -0.6394 -0.0264  1.0127
   33CHL1  H19A 2409   1.281   6.106   7.410  0.1623 -0.7637  0.4520
   33CHL1  H19B 2410   1.201   5.941   7.428 -0.8354 -1.7356 -2.1601
   33CHL1  H19C 2411   1.216   6.019   7.271  0.5775  2.2408  0.7037
   33CHL1    C1 2412   0.957   6.020   7.322 -0.0378  0.3121  0.5778
   33CHL1   H1A 2413   0.976   5.914   7.351 -2.0805 -0.2706 -0.0688
   33CHL1   H1B 2414   0.857   6.047   7.360 -0.2468 -0.8240  0.8918
   33CHL1    C2 2415   0.967   6.030   7.166  0.3893 -0.8049  0.2416
   33CHL1   H2A 2416   0.884   5.972   7.120 -1.2218  0.9511  0.7702
   33CHL1   H2B 2417   1.068   5.994   7.139 -0.0709 -2.0889  0.1831
   33CHL1   C20 2418   1.079   6.020   8.092 -0.4055 -0.5913 -0.2941
   33CHL1   H20 2419   1.188   5.998   8.094 -0.1183  0.8020  0.8790
   33CHL1   C21 2420   1.002   5.888   8.089 -0.4350  0.8532  0.2135
   33CHL1  H21A 2421   0.893   5.907   8.102 -0.4988  1.0844 -0.6254
   33CHL1  H21B 2422   1.035   5.818   8.169  0.9419  0.2670 -0.8169
   33CHL1  H21C 2423   1.011   5.843   7.988 -2.9136  2.8687 -1.0128
   33CHL1   C22 2424   1.048   6.084   8.226 -0.5232  0.1331  0.0934
   33CHL1  H22A 2425   1.092   6.186   8.221 -3.0191  1.2527 -0.3712
   33CHL1  H22B 2426   0.937   6.089   8.234 -0.6106 -0.5516 -0.6355
   33CHL1   C23 2427   1.119   6.024   8.353 -0.5678  0.7107  0.2360
   33CHL1  H23A 2428   1.087   5.918   8.365 -1.0206  1.0451  2.4096
   33CHL1  H23B 2429   1.228   6.016   8.331 -0.4757  0.2712  0.8222
   33CHL1   C24 2430   1.064   6.096   8.478  0.5319  0.2817  0.0997
   33CHL1  H24A 2431   1.078   6.205   8.461 -1.0062  0.5400  0.3877
   33CHL1  H24B 2432   0.954   6.086   8.483  0.7092 -1.1454  2.3915
   33CHL1   C25 2433   1.127   6.065   8.610  0.7711  0.2836 -0.6116
   33CHL1   H25 2434   1.161   5.961   8.592 -1.6851 -0.8395  0.6746
   33CHL1   C26 2435   1.265   6.137   8.640 -0.2697 -0.4494 -0.2437
   33CHL1  H26A 2436   1.258   6.244   8.608 -2.8568  0.0636  1.6779
   33CHL1  H26B 2437   1.296   6.123   8.745  1.9275 -0.0928 -0.7985
   33CHL1  H26C 2438   1.339   6.092   8.571 -0.2402  2.7808 -2.5980
   33CHL1   C27 2439   1.038   6.048   8.735 -0.4015  0.0848  0.4233
   33CHL1  H27A 2440   1.101   6.041   8.826 -1.1005 -1.2383  0.8386
   33CHL1  H27B 2441   0.963   6.130   8.733 -0.7324 -0.2153 -1.7280
   33CHL1  H27C 2442   0.996   5.947   8.715 -0.3840  0.0551  0.5370
   34CHL1    C3 2443   2.535   4.667   7.238  0.4080 -0.6178 -0.0999
   34CHL1    H3 2444   2.516   4.570   7.289  0.9202 -0.3513  0.6167
   34CHL1    O3 2445   2.511   4.640   7.098 -0.5047  0.5122  0.2432
   34CHL1   H3' 2446   2.490   4.729   7.068  1.0314  0.3029 -1.6887
   34CHL1    C4 2447   2.443   4.777   7.288 -0.1009  0.1343 -1.5919
   34CHL1   H4A 2448   2.461   4.867   7.225 -1.7084  1.0917 -0.7661
   34CHL1   H4B 2449   2.339   4.756   7.254 -0.2640 -1.3538 -0.2851
   34CHL1    C5 2450   2.462   4.803   7.439 -0.2966  0.6997  0.4880
   34CHL1    C6 2451   2.367   4.780   7.525 -0.5429  0.0595  0.5636
   34CHL1    H6 2452   2.268   4.745   7.493 -1.2690  0.8635  1.8518
   34CHL1    C7 2453   2.387   4.819   7.666  0.1726 -0.7062 -0.0842
   34CHL1   H7A 2454   2.311   4.897   7.688  1.2634  0.5803 -0.7534
   34CHL1   H7B 2455   2.366   4.727   7.725  0.3598 -0.8307 -0.2083
   34CHL1    C8 2456   2.512   4.906   7.705 -0.2298 -0.3984  0.4285
   34CHL1    H8 2457   2.504   5.011   7.671  0.0602 -0.2848  0.6927
   34CHL1   C14 2458   2.544   4.887   7.854 -0.1640 -0.2793 -0.6416
   34CHL1   H14 2459   2.550   4.777   7.866 -0.6227 -0.4338 -1.6932
   34CHL1   C15 2460   2.445   4.927   7.956 -0.1325  0.0806 -0.9597
   34CHL1  H15A 2461   2.405   5.021   7.912 -1.5122  0.2806  0.6255
   34CHL1  H15B 2462   2.355   4.861   7.956 -0.0554 -0.0750  0.6161
   34CHL1   C16 2463   2.517   4.933   8.095 -0.9411 -0.3623 -0.1032
   34CHL1  H16A 2464   2.492   5.029   8.145  0.8965 -0.0493  0.2790
   34CHL1  H16B 2465   2.497   4.846   8.161  1.3552 -0.6218  0.3318
   34CHL1   C17 2466   2.672   4.934   8.059  0.0794  0.7218  0.6704
   34CHL1   H17 2467   2.712   4.831   8.066 -1.0411 -0.2956 -4.1307
   34CHL1   C13 2468   2.681   4.952   7.901  0.4159 -0.4362  0.1747
   34CHL1   C18 2469   2.678   5.107   7.883  0.0880  0.3397  0.4061
   34CHL1  H18A 2470   2.782   5.139   7.908  0.4427  0.1237 -0.7312
   34CHL1  H18B 2471   2.660   5.131   7.776  0.9507 -0.2198  0.1146
   34CHL1  H18C 2472   2.609   5.166   7.946 -0.4046  0.0163  0.1821
   34CHL1   C12 2473   2.799   4.885   7.823  0.3335 -0.2954  0.1525
   34CHL1  H12A 2474   2.890   4.946   7.843 -0.2986  0.6222  0.3419
   34CHL1  H12B 2475   2.803   4.781   7.861 -0.0636 -0.9390 -1.4871
   34CHL1   C11 2476   2.768   4.901   7.672  0.1322 -0.5652  0.3713
   34CHL1  H11A 2477   2.782   5.010   7.654 -0.3791 -0.8950 -2.3295
   34CHL1  H11B 2478   2.850   4.846   7.622 -1.8750 -2.9980 -0.4118
   34CHL1    C9 2479   2.630   4.845   7.621 -0.3635 -0.9017  0.4436
   34CHL1    H9 2480   2.637   4.740   7.657  0.9596 -0.7720  0.6119
   34CHL1   C10 2481   2.607   4.837   7.473 -0.7645 -1.1414 -0.3968
   34CHL1   C19 2482   2.644   4.979   7.415  0.8372  0.1320  0.1199
   34CHL1  H19A 2483   2.618   4.994   7.309 -1.4075  2.1741  0.8804
   34CHL1  H19B 2484   2.579   5.052   7.467 -1.1344 -1.9883  0.8308
   34CHL1  H19C 2485   2.745   5.013   7.446  0.8322 -0.2720  0.6029
   34CHL1    C1 2486   2.704   4.728   7.410  0.1671  0.4983  0.5109
   34CHL1   H1A 2487   2.812   4.750   7.423  0.8189 -2.1313  0.2195
   34CHL1   H1B 2488   2.692   4.632   7.466  1.5817 -0.2972 -0.4854
   34CHL1    C2 2489   2.677   4.700   7.255 -0.9428  0.3853 -0.1176
   34CHL1   H2A 2490   2.748   4.624   7.213 -0.9508 -0.2079  0.8913
   34CHL1   H2B 2491   2.700   4.788   7.192 -1.3446  0.2134 -0.5025
   34CHL1   C20 2492   2.753   5.022   8.156 -0.6042  0.4528  0.2123
   34CHL1   H20 2493   2.712   5.125   8.152 -1.2359  0.2008  0.1102
   34CHL1   C21 2494   2.899   5.014   8.116 -0.0297 -0.0282  0.3491
   34CHL1  H21A 2495   2.972   5.017   8.200  1.8255 -0.0766 -1.1852
   34CHL1  H21B 2496   2.925   5.092   8.041 -1.0724  0.2310  0.2447
   34CHL1  H21C 2497   2.905   4.913   8.069  0.3817  0.7786 -1.4199
   34CHL1   C22 2498   2.750   4.966   8.305  0.4054  0.0738 -0.1762
   34CHL1  H22A 2499   2.653   4.928   8.343  0.4120  1.3135  1.1660
   34CHL1  H22B 2500   2.818   4.877   8.312 -0.9835 -1.1768 -1.6382
   34CHL1   C23 2501   2.794   5.071   8.406 -0.2177  0.3197 -0.5140
   34CHL1  H23A 2502   2.894   5.111   8.380 -1.2767  4.2820  0.6376
   34CHL1  H23B 2503   2.732   5.164   8.399  0.7365  1.0783  0.6170
   34CHL1   C24 2504   2.814   5.025   8.555  1.1236  0.2096 -0.6996
   34CHL1  H24A 2505   2.863   5.104   8.616 -0.7416  0.4213  0.6208
   34CHL1  H24B 2506   2.719   5.002   8.607  1.2229  2.1637  0.4569
   34CHL1   C25 2507   2.900   4.900   8.569 -0.4377  0.0452 -0.2100
   34CHL1   H25 2508   2.864   4.817   8.505  0.1810 -2.8734  2.9357
   34CHL1   C26 2509   3.049   4.924   8.526 -0.4859  1.1256  0.2293
   34CHL1  H26A 2510   3.110   4.831   8.534 -3.5472 -0.9515  0.9747
   34CHL1  H26B 2511   3.049   4.962   8.422  2.3876 -1.2364 -0.7740
   34CHL1  H26C 2512   3.101   4.997   8.592 -2.0759 -0.5479  3.5903
   34CHL1   C27 2513   2.904   4.850   8.714 -0.8279  0.4723  0.9617
   34CHL1  H27A 2514   2.804   4.815   8.749 -0.7026 -0.1742  0.6844
   34CHL1  H27B 2515   2.982   4.771   8.719 -1.6536 -0.5961 -1.5595
   34CHL1  H27C 2516   2.928   4.938   8.779  1.1875  0.1848  0.6695
   35CHL1    C3 2517   4.208   0.034   7.207  0.4563 -0.3780  0.7071
   35CHL1    H3 2518   4.111   0.033   7.260  0.4721  3.3767  1.1039
   35CHL1    O3 2519   4.190   0.070   7.072 -0.6314  0.5110 -0.4112
   35CHL1   H3' 2520   4.278   0.095   7.043  0.7444 -0.7656  2.3655
   35CHL1    C4 2521   4.309   0.123   7.278 -0.4621  0.1957 -0.0333
   35CHL1   H4A 2522   4.402   0.102   7.222 -1.0698  0.1325 -1.0405
   35CHL1   H4B 2523   4.276   0.227   7.255 -0.4188  0.4831  1.1255
   35CHL1    C5 2524   4.324   0.088   7.429  0.1995 -0.0710 -0.0386
   35CHL1    C6 2525   4.291   0.175   7.523 -0.1554  0.4053  0.3885
   35CHL1    H6 2526   4.267   0.276   7.485 -1.3046 -0.6546 -1.9023
   35CHL1    C7 2527   4.311   0.143   7.665 -0.3376 -0.3820 -0.3851
   35CHL1   H7A 2528   4.357   0.229   7.719 -0.8626 -1.1801  1.4267
   35CHL1   H7B 2529   4.213   0.139   7.718  0.3018  1.6802  1.1053
   35CHL1    C8 2530   4.394   0.014   7.703  0.4771  0.3151 -0.2163
   35CHL1    H8 2531   4.500   0.040   7.685  0.6410 -1.3348 -2.1301
   35CHL1   C14 2532   4.376  -0.027   7.850  0.0382 -0.0310  0.7420
   35CHL1   H14 2533   4.269  -0.057   7.854  0.1297 -0.5472 -0.5408
   35CHL1   C15 2534   4.388   0.076   7.957 -0.0222 -0.0635  0.1232
   35CHL1  H15A 2535   4.482   0.132   7.937 -1.2075  0.8153 -3.9410
   35CHL1  H15B 2536   4.315   0.159   7.956  1.7865  1.6127 -0.1641
   35CHL1   C16 2537   4.402  -0.007   8.081  0.2261 -0.8266 -1.2862
   35CHL1  H16A 2538   4.507   0.008   8.116  1.0825  5.0650 -5.0305
   35CHL1  H16B 2539   4.330   0.032   8.156  2.2281 -1.1273  0.9496
   35CHL1   C17 2540   4.390  -0.159   8.041 -0.2541 -0.1082  0.6433
   35CHL1   H17 2541   4.282  -0.179   8.025 -0.1035  0.0233 -0.6072
   35CHL1   C13 2542   4.447  -0.153   7.890  0.4053  0.0728  0.0704
   35CHL1   C18 2543   4.597  -0.145   7.890 -0.3999 -0.1370 -0.0253
   35CHL1  H18A 2544   4.647  -0.116   7.795 -1.0684 -0.2170 -0.4055
   35CHL1  H18B 2545   4.632  -0.061   7.954 -1.3197 -0.5794  1.0934
   35CHL1  H18C 2546   4.648  -0.235   7.930 -1.2067 -0.5113  0.1841
   35CHL1   C12 2547   4.412  -0.266   7.800 -0.1252 -0.1694 -0.2336
   35CHL1  H12A 2548   4.473  -0.356   7.824 -2.0504 -1.7655 -0.9699
   35CHL1  H12B 2549   4.305  -0.295   7.804 -0.0099 -1.3610 -3.0805
   35CHL1   C11 2550   4.431  -0.231   7.651 -0.4473 -0.5151  0.0395
   35CHL1  H11A 2551   4.537  -0.223   7.620 -0.5343  1.4932  0.1593
   35CHL1  H11B 2552   4.389  -0.323   7.604 -0.2547 -0.7855  0.3847
   35CHL1    C9 2553   4.360  -0.098   7.608 -0.3489 -0.0174  0.6832
   35CHL1    H9 2554   4.251  -0.119   7.622 -0.3200 -0.5592  0.1080
   35CHL1   C10 2555   4.369  -0.057   7.455 -1.4032 -0.9967 -0.2287
   35CHL1   C19 2556   4.521  -0.067   7.413 -0.5522  0.4943  0.8615
   35CHL1  H19A 2557   4.584  -0.017   7.490  0.9854 -0.9514  0.6071
   35CHL1  H19B 2558   4.547  -0.175   7.408 -2.5185  0.0175  0.1246
   35CHL1  H19C 2559   4.537  -0.017   7.315  0.9163 -2.9269 -0.8030
   35CHL1    C1 2560   4.288  -0.156   7.363  1.0286 -0.4989 -0.6457
   35CHL1   H1A 2561   4.342  -0.253   7.371  0.6367 -0.6171  0.7633
   35CHL1   H1B 2562   4.194  -0.176   7.418  0.1170  1.3101 -1.4504
   35CHL1    C2 2563   4.254  -0.113   7.216 -0.2946 -0.5532  0.1648
   35CHL1   H2A 2564   4.183  -0.175   7.157 -0.7373  0.4153 -0.3370
   35CHL1   H2B 2565   4.343  -0.111   7.149 -0.1762  1.1941  0.3275
   35CHL1   C20 2566   4.449  -0.256   8.139  0.7693 -0.3161  0.0387
   35CHL1   H20 2567   4.559  -0.264   8.127  1.3396  3.8170  0.9825
   35CHL1   C21 2568   4.389  -0.395   8.119  0.0148  0.4381  0.3524
   35CHL1  H21A 2569   4.282  -0.392   8.148 -0.0324  0.0433  0.2295
   35CHL1  H21B 2570   4.431  -0.477   8.181 -0.3430  1.0893  1.4837
   35CHL1  H21C 2571   4.403  -0.429   8.014  0.2595  1.2335  0.1210
   35CHL1   C22 2572   4.439  -0.209   8.287  0.7492  0.4958  0.6152
   35CHL1  H22A 2573   4.485  -0.108   8.299  1.5690  0.0601  1.2344
   35CHL1  H22B 2574   4.332  -0.207   8.318  0.4039  1.5771 -0.5369
   35CHL1   C23 2575   4.520  -0.295   8.374  0.6238  1.0618  0.2842
   35CHL1  H23A 2576   4.502  -0.403   8.351  1.4887  1.0941 -0.6203
   35CHL1  H23B 2577   4.625  -0.290   8.337  1.3651  0.5845  2.2016
   35CHL1   C24 2578   4.513  -0.257   8.518 -0.2211  0.3920  0.0520
   35CHL1  H24A 2579   4.571  -0.166   8.543 -0.6979  0.5280  0.6894
   35CHL1  H24B 2580   4.407  -0.252   8.553 -0.5179  0.1693 -0.7960
   35CHL1   C25 2581   4.588  -0.366   8.604  0.1696 -0.5878 -0.5574
   35CHL1   H25 2582   4.542  -0.461   8.571 -3.7084  1.1527 -0.6820
   35CHL1   C26 2583   4.744  -0.372   8.585  0.3191  0.3918  0.0621
   35CHL1  H26A 2584   4.787  -0.280   8.630 -0.3880  0.4495  0.6255
   35CHL1  H26B 2585   4.776  -0.463   8.639  2.4772  0.9881 -0.0859
   35CHL1  H26C 2586   4.767  -0.382   8.476 -0.1275  1.3481 -0.1387
   35CHL1   C27 2587   4.551  -0.339   8.752 -1.1590 -0.6518  0.0122
   35CHL1  H27A 2588   4.448  -0.299   8.757 -1.1212 -0.4637 -0.5635
   35CHL1  H27B 2589   4.623  -0.264   8.789 -0.1315 -1.4901 -0.2343
   35CHL1  H27C 2590   4.562  -0.435   8.807 -3.0832 -2.2874 -2.2478
   36CHL1    C3 2591   4.103   6.208   7.130 -0.2171  0.2432  0.2486
   36CHL1    H3 2592   4.189   6.278   7.128 -1.3360  1.7706 -3.9870
   36CHL1    O3 2593   4.057   6.186   6.995 -0.8615 -0.1687 -0.0953
   36CHL1   H3' 2594   4.039   6.092   6.984  0.7502 -0.2614 -3.4140
   36CHL1    C4 2595   4.147   6.071   7.192 -0.5598  0.5728  0.0747
   36CHL1   H4A 2596   4.079   5.984   7.176  1.2196 -0.9963  0.7795
   36CHL1   H4B 2597   4.242   6.039   7.144 -1.2360 -0.7390 -0.4416
   36CHL1    C5 2598   4.171   6.069   7.340 -0.9836  0.0026 -0.2146
   36CHL1    C6 2599   4.287   6.014   7.397  0.2287 -0.2837  0.2097
   36CHL1    H6 2600   4.368   5.979   7.333 -0.3744 -0.8716 -0.2507
   36CHL1    C7 2601   4.321   6.007   7.543 -0.8703  0.1607  0.3786
   36CHL1   H7A 2602   4.372   5.911   7.568 -2.9790 -0.1654  4.3705
   36CHL1   H7B 2603   4.386   6.090   7.580  0.8448 -1.1342  0.3919
   36CHL1    C8 2604   4.193   6.021   7.630 -0.3651  0.3813  0.5656
   36CHL1    H8 2605   4.132   5.930   7.618 -1.5962  1.2077  0.3623
   36CHL1   C14 2606   4.233   6.043   7.779 -0.3328  0.0874 -0.0101
   36CHL1   H14 2607   4.275   6.144   7.794 -0.6171  0.5405 -1.9734
   36CHL1   C15 2608   4.334   5.945   7.840 -0.4252 -0.1842 -0.0249
   36CHL1  H15A 2609   4.320   5.843   7.799  0.1889  0.1172 -1.0184
   36CHL1  H15B 2610   4.440   5.963   7.814 -0.3293 -1.9671 -1.0143
   36CHL1   C16 2611   4.303   5.962   7.996 -0.0735 -0.2967 -0.4032
   36CHL1  H16A 2612   4.282   5.864   8.044 -0.5087  0.4870  1.0560
   36CHL1  H16B 2613   4.390   6.013   8.042  1.0790 -1.9081 -0.7149
   36CHL1   C17 2614   4.174   6.057   8.003 -0.5524  0.4724 -0.5418
   36CHL1   H17 2615   4.207   6.164   8.001 -0.8850  0.5963  0.1550
   36CHL1   C13 2616   4.106   6.042   7.864 -0.5561  0.4091 -0.9395
   36CHL1   C18 2617   4.030   5.900   7.870 -0.1686  0.5069  0.1700
   36CHL1  H18A 2618   4.105   5.822   7.893 -0.1103  0.4421 -0.2482
   36CHL1  H18B 2619   3.949   5.900   7.946  0.2222  0.1561  0.5949
   36CHL1  H18C 2620   3.975   5.882   7.776  0.8708  2.0899 -0.7959
   36CHL1   C12 2621   4.014   6.156   7.829 -0.7955  0.0354 -0.3146
   36CHL1  H12A 2622   3.917   6.140   7.881 -0.0215  0.5360  1.3161
   36CHL1  H12B 2623   4.061   6.243   7.878  1.0945 -2.4800  2.7230
   36CHL1   C11 2624   3.983   6.163   7.677 -0.4505  0.3526  0.6067
   36CHL1  H11A 2625   3.908   6.081   7.667  0.3559 -0.2851 -0.5730
   36CHL1  H11B 2626   3.929   6.257   7.656 -2.4273 -0.5538  1.4060
   36CHL1    C9 2627   4.111   6.140   7.584  0.1478  0.9379  0.4283
   36CHL1    H9 2628   4.179   6.227   7.596 -1.4641  2.2550  0.2660
   36CHL1   C10 2629   4.065   6.137   7.432  0.1587  0.6562  0.3161
   36CHL1   C19 2630   3.943   6.031   7.419  0.1164 -0.0906  0.1735
   36CHL1  H19A 2631   3.916   6.000   7.316 -2.2674  0.4122  0.5807
   36CHL1  H19B 2632   3.977   5.949   7.486  1.9040  2.4594  2.6364
   36CHL1  H19C 2633   3.855   6.078   7.469 -0.7832 -1.4099 -0.1329
   36CHL1    C1 2634   4.038   6.268   7.370  0.1282  0.5147  0.1678
   36CHL1   H1A 2635   3.961   6.326   7.424 -0.8856  1.6791 -2.3670
   36CHL1   H1B 2636   4.138   6.317   7.375 -0.4238  1.5579  1.5104
   36CHL1    C2 2637   3.993   6.265   7.222  0.3772  0.4709 -0.0038
   36CHL1   H2A 2638   3.970   6.364   7.178 -0.2671 -0.8139 -2.7961
   36CHL1   H2B 2639   3.911   6.191   7.209  0.3403  0.4733  0.2119
   36CHL1   C20 2640   4.100   6.041   8.129  0.2388  0.9453 -0.4938
   36CHL1   H20 2641   4.092   5.930   8.136  0.5953  1.0016  1.0632
   36CHL1   C21 2642   3.971   6.124   8.146  0.8025 -0.3372 -0.3243
   36CHL1  H21A 2643   3.895   6.073   8.082  0.4678  2.1511 -2.0530
   36CHL1  H21B 2644   3.976   6.225   8.101 -0.4175 -1.0175 -2.1273
   36CHL1  H21C 2645   3.926   6.139   8.246  1.5648  1.1325 -0.1741
   36CHL1   C22 2646   4.186   6.077   8.254 -0.3135  0.1052 -0.2821
   36CHL1  H22A 2647   4.293   6.081   8.225  0.1461  0.8903  1.3733
   36CHL1  H22B 2648   4.156   6.179   8.286 -2.5149  0.1528 -2.2390
   36CHL1   C23 2649   4.162   5.980   8.367  0.5614  0.4405 -0.1854
   36CHL1  H23A 2650   4.054   5.985   8.395  0.1271  0.4746 -1.7524
   36CHL1  H23B 2651   4.182   5.886   8.312  0.0752  0.7416 -0.8940
   36CHL1   C24 2652   4.265   5.996   8.483  0.0614 -0.5223  0.0047
   36CHL1  H24A 2653   4.368   5.982   8.444  0.6383  1.1382  0.8369
   36CHL1  H24B 2654   4.248   6.094   8.532  0.2600 -0.7707  0.5787
   36CHL1   C25 2655   4.249   5.893   8.595 -0.0176  0.7652 -0.8951
   36CHL1   H25 2656   4.262   5.790   8.557  0.0463 -0.2191  1.6326
   36CHL1   C26 2657   4.366   5.911   8.689 -0.3528 -0.0085  0.4099
   36CHL1  H26A 2658   4.362   5.834   8.769 -0.2667  0.6664  1.0672
   36CHL1  H26B 2659   4.461   5.888   8.635 -0.3256  0.6594  0.1611
   36CHL1  H26C 2660   4.362   6.015   8.728  0.2807  0.6815 -1.2514
   36CHL1   C27 2661   4.105   5.888   8.660  0.2954  0.1066  0.1838
   36CHL1  H27A 2662   4.041   5.828   8.591 -0.0317 -0.9093  1.3241
   36CHL1  H27B 2663   4.096   5.821   8.748 -0.9822  2.5967  2.0867
   36CHL1  H27C 2664   4.049   5.983   8.675  1.2179  0.9449 -1.3772
   37CHL1    C3 2665   2.306   0.883   6.991  0.5717 -0.3690 -0.2585
   37CHL1    H3 2666   2.372   0.813   7.046  0.3398  0.8765  1.6830
   37CHL1    O3 2667   2.296   0.861   6.856  0.5080  0.0783  0.4707
   37CHL1   H3' 2668   2.380   0.884   6.816  0.6751 -0.3544  0.5692
   37CHL1    C4 2669   2.161   0.861   7.055 -1.0335  0.1216  0.0971
   37CHL1   H4A 2670   2.090   0.936   7.013 -1.8281 -0.2513  0.7545
   37CHL1   H4B 2671   2.127   0.759   7.028 -1.8601  0.2826  0.5068
   37CHL1    C5 2672   2.167   0.887   7.206  0.0050  0.1329  0.0210
   37CHL1    C6 2673   2.139   0.793   7.301 -0.2214 -0.1010  0.2097
   37CHL1    H6 2674   2.104   0.690   7.280 -0.7409 -0.2718  1.7456
   37CHL1    C7 2675   2.153   0.811   7.450  0.2444  0.5093  0.0299
   37CHL1   H7A 2676   2.069   0.757   7.498  0.2588  0.4251 -0.0407
   37CHL1   H7B 2677   2.249   0.777   7.493 -0.6472 -0.2397  1.4932
   37CHL1    C8 2678   2.142   0.959   7.480 -0.7671 -0.4907 -0.1975
   37CHL1    H8 2679   2.042   1.003   7.458  0.0749  1.1619 -0.8635
   37CHL1   C14 2680   2.157   0.981   7.627  0.6192  1.6337 -0.6289
   37CHL1   H14 2681   2.258   0.944   7.656 -0.4256  0.7753  2.3784
   37CHL1   C15 2682   2.064   0.892   7.720  1.0596 -0.2597 -0.2880
   37CHL1  H15A 2683   1.963   0.904   7.675  0.3429 -2.2811  0.6776
   37CHL1  H15B 2684   2.103   0.789   7.732  0.4558 -0.4030  0.5106
   37CHL1   C16 2685   2.077   0.974   7.848 -0.5165 -0.0229  0.2584
   37CHL1  H16A 2686   1.971   0.999   7.869 -0.9642 -3.0901  2.3968
   37CHL1  H16B 2687   2.105   0.902   7.928  2.2153 -0.6898 -1.1803
   37CHL1   C17 2688   2.159   1.104   7.830 -0.9636 -0.0976  0.9446
   37CHL1   H17 2689   2.265   1.073   7.843 -0.3611  1.4569 -0.0214
   37CHL1   C13 2690   2.151   1.125   7.676 -0.2386 -0.7254  0.3273
   37CHL1   C18 2691   2.016   1.192   7.644 -0.1463  0.2937  0.0956
   37CHL1  H18A 2692   2.004   1.211   7.535  1.5204  3.0872  0.2869
   37CHL1  H18B 2693   1.925   1.144   7.686 -0.3416 -0.4731 -1.1549
   37CHL1  H18C 2694   2.015   1.291   7.695  0.0988  0.9622 -1.1607
   37CHL1   C12 2695   2.278   1.194   7.614 -0.5860 -0.1345  0.6214
   37CHL1  H12A 2696   2.291   1.302   7.638  1.0516  0.0147 -0.7279
   37CHL1  H12B 2697   2.368   1.137   7.644 -0.4092  0.2627  0.8537
   37CHL1   C11 2698   2.263   1.185   7.458  0.3658 -1.1834  0.1629
   37CHL1  H11A 2699   2.172   1.246   7.438 -0.1246 -1.6350  0.9887
   37CHL1  H11B 2700   2.346   1.240   7.408  0.5115 -0.3966  1.2191
   37CHL1    C9 2701   2.246   1.035   7.399 -0.2039  0.0567  0.3314
   37CHL1    H9 2702   2.342   0.981   7.417 -1.0820 -1.6794  0.0128
   37CHL1   C10 2703   2.224   1.031   7.247 -1.1068  0.1924  0.6782
   37CHL1   C19 2704   2.118   1.140   7.202 -0.1533 -0.2265 -0.4727
   37CHL1  H19A 2705   2.034   1.135   7.274  0.2828 -1.5109 -0.0206
   37CHL1  H19B 2706   2.178   1.234   7.207  2.0546 -1.6193  1.0975
   37CHL1  H19C 2707   2.090   1.121   7.096  0.8974 -2.6086 -0.3903
   37CHL1    C1 2708   2.358   1.055   7.168  0.1065 -0.1377 -0.2038
   37CHL1   H1A 2709   2.373   1.164   7.182 -0.4991 -0.1963  1.0013
   37CHL1   H1B 2710   2.442   0.993   7.206  1.5659  0.8638 -1.6625
   37CHL1    C2 2711   2.346   1.030   7.014  0.3915 -0.2382  0.0450
   37CHL1   H2A 2712   2.446   1.057   6.972 -0.3689  1.8584 -0.5183
   37CHL1   H2B 2713   2.274   1.099   6.965 -1.2065 -1.4694  0.5641
   37CHL1   C20 2714   2.134   1.215   7.931 -0.0897 -0.0645  0.3526
   37CHL1   H20 2715   2.028   1.247   7.932 -0.0742 -0.0237  1.1721
   37CHL1   C21 2716   2.222   1.342   7.902  0.1963 -0.6763 -0.0617
   37CHL1  H21A 2717   2.328   1.318   7.928  0.2947  0.6765  0.9083
   37CHL1  H21B 2718   2.196   1.421   7.974  0.2999 -0.7299  0.0356
   37CHL1  H21C 2719   2.210   1.394   7.805  3.4158  0.5693  0.0751
   37CHL1   C22 2720   2.146   1.152   8.072 -0.4660 -0.2036  0.5877
   37CHL1  H22A 2721   2.075   1.070   8.096  0.1220 -0.7099  0.6143
   37CHL1  H22B 2722   2.249   1.111   8.080 -1.2698 -2.6597 -0.5501
   37CHL1   C23 2723   2.132   1.255   8.184  0.1221 -1.0128  0.5694
   37CHL1  H23A 2724   2.183   1.352   8.163  1.7095 -1.9892 -0.2994
   37CHL1  H23B 2725   2.024   1.281   8.181  0.4382  0.3557  0.2841
   37CHL1   C24 2726   2.178   1.201   8.312  0.0247  0.1069  0.0873
   37CHL1  H24A 2727   2.132   1.105   8.344  0.3956 -1.6035 -3.9231
   37CHL1  H24B 2728   2.287   1.180   8.319 -0.3242 -1.7448  0.3525
   37CHL1   C25 2729   2.131   1.287   8.437  0.3331 -0.1201  0.2618
   37CHL1   H25 2730   2.136   1.393   8.402  0.1711  0.3740  1.6604
   37CHL1   C26 2731   1.982   1.267   8.464 -0.6666 -0.5977 -0.0078
   37CHL1  H26A 2732   1.925   1.308   8.378  0.2838  2.2073  0.6085
   37CHL1  H26B 2733   1.963   1.157   8.467 -3.7832 -0.1346  0.8307
   37CHL1  H26C 2734   1.941   1.320   8.552  0.7132  1.1846 -0.3936
   37CHL1   C27 2735   2.211   1.249   8.559  0.4137  0.4908  0.3477
   37CHL1  H27A 2736   2.166   1.281   8.655 -2.3983 -1.5164 -0.1607
   37CHL1  H27B 2737   2.199   1.140   8.575 -1.4236  0.7637  1.1516
   37CHL1  H27C 2738   2.314   1.290   8.556 -0.2058  2.1061 -0.7143
   38CHL1    C3 2739   5.074   1.491   6.989 -0.4599 -0.0123 -0.0237
   38CHL1    H3 2740   5.180   1.505   7.017 -1.0072  1.8922  1.3234
   38CHL1    O3 2741   5.051   1.506   6.852 -1.0905  0.0091  0.2069
   38CHL1   H3' 2742   4.961   1.480   6.828 -0.6637 -0.9346 -0.4130
   38CHL1    C4 2743   5.022   1.359   7.036 -0.5996 -0.7975  0.2036
   38CHL1   H4A 2744   4.922   1.360   6.989  0.5872  0.4657 -2.5268
   38CHL1   H4B 2745   5.076   1.278   6.983  0.3946  0.2799 -0.4844
   38CHL1    C5 2746   5.038   1.350   7.188  0.8480  0.0595 -0.5898
   38CHL1    C6 2747   5.108   1.255   7.247 -0.0368  0.2679 -0.7747
   38CHL1    H6 2748   5.148   1.177   7.181 -0.3343  0.7167 -1.5036
   38CHL1    C7 2749   5.118   1.238   7.397 -0.0837  0.1691  0.1421
   38CHL1   H7A 2750   5.105   1.130   7.422 -1.9914  0.1721 -0.6802
   38CHL1   H7B 2751   5.215   1.282   7.431 -0.2406  1.7516 -1.3620
   38CHL1    C8 2752   5.001   1.305   7.473 -0.7418  0.9910  0.5085
   38CHL1    H8 2753   4.907   1.250   7.453  0.8226 -2.5200  2.0074
   38CHL1   C14 2754   5.037   1.298   7.622  0.4014 -0.1568  0.5858
   38CHL1   H14 2755   5.133   1.353   7.634 -0.8261  2.4716 -0.8214
   38CHL1   C15 2756   5.058   1.152   7.683  0.5135  0.2583 -0.1939
   38CHL1  H15A 2757   4.965   1.103   7.648 -0.9761  3.8951 -1.9079
   38CHL1  H15B 2758   5.155   1.103   7.660  1.2581  1.2089  0.7774
   38CHL1   C16 2759   5.048   1.187   7.829  0.0840  0.5332 -0.3591
   38CHL1  H16A 2760   4.969   1.123   7.874  1.5915 -0.1732  1.4076
   38CHL1  H16B 2761   5.145   1.181   7.883  0.4925  0.3048 -1.1037
   38CHL1   C17 2762   4.989   1.336   7.844  0.0662  0.5854  0.2145
   38CHL1   H17 2763   5.076   1.405   7.852  0.8890 -0.1364 -1.8423
   38CHL1   C13 2764   4.936   1.374   7.701 -0.0769 -0.2283 -0.4009
   38CHL1   C18 2765   4.793   1.315   7.683 -0.0284  0.8032  0.7350
   38CHL1  H18A 2766   4.782   1.218   7.736  2.3900 -0.2445 -0.5034
   38CHL1  H18B 2767   4.713   1.379   7.727  1.6448  1.6283  2.7108
   38CHL1  H18C 2768   4.759   1.301   7.578  2.1365 -1.5387  0.2553
   38CHL1   C12 2769   4.948   1.527   7.660 -0.1796 -0.6688 -0.1703
   38CHL1  H12A 2770   4.896   1.587   7.737  0.3246  0.3313 -0.5930
   38CHL1  H12B 2771   5.057   1.550   7.657 -0.0541 -0.9626  1.3578
   38CHL1   C11 2772   4.903   1.547   7.515 -0.9626  0.7813  0.7187
   38CHL1  H11A 2773   4.794   1.525   7.510 -1.0714  1.0758  1.6281
   38CHL1  H11B 2774   4.916   1.656   7.496  2.4038  0.5237  1.0867
   38CHL1    C9 2775   4.989   1.454   7.426 -0.5128 -0.0731  0.4131
   38CHL1    H9 2776   5.095   1.484   7.440  0.4379 -1.6544 -2.4798
   38CHL1   C10 2777   4.973   1.465   7.273  0.6008 -0.6332  0.0891
   38CHL1   C19 2778   4.823   1.445   7.253 -0.0094  0.0754  0.3056
   38CHL1  H19A 2779   4.797   1.343   7.290 -1.3602  0.5219  0.6693
   38CHL1  H19B 2780   4.754   1.516   7.304 -0.5601  0.5402 -1.0439
   38CHL1  H19C 2781   4.795   1.451   7.146 -1.4594  1.7738  0.7184
   38CHL1    C1 2782   5.030   1.597   7.203 -0.2135  0.3766 -0.2252
   38CHL1   H1A 2783   4.983   1.684   7.253  0.0152  0.8902 -0.8854
   38CHL1   H1B 2784   5.132   1.603   7.246 -1.5978 -0.7290  3.6465
   38CHL1    C2 2785   5.007   1.608   7.056 -0.4175  0.7995  0.8268
   38CHL1   H2A 2786   5.034   1.704   7.007 -0.8707 -0.0328 -1.1961
   38CHL1   H2B 2787   4.898   1.602   7.034 -0.0764 -0.5673 -0.6943
   38CHL1   C20 2788   4.907   1.353   7.975  0.5460  0.6778  0.3803
   38CHL1   H20 2789   4.823   1.281   7.967 -0.3207  1.6749  0.3180
   38CHL1   C21 2790   4.840   1.494   7.992  0.2100  0.7814 -0.4562
   38CHL1  H21A 2791   4.771   1.510   8.077  3.3658  1.1678  2.2302
   38CHL1  H21B 2792   4.784   1.517   7.899 -1.7570  2.0000  0.9708
   38CHL1  H21C 2793   4.923   1.567   8.004 -0.7904  1.7463  0.8342
   38CHL1   C22 2794   4.996   1.321   8.105 -0.4341  0.2313  0.7646
   38CHL1  H22A 2795   5.071   1.241   8.085 -2.0941 -1.3399  0.5503
   38CHL1  H22B 2796   5.056   1.412   8.129 -2.1045  1.5361  0.1859
   38CHL1   C23 2797   4.910   1.255   8.209 -0.5781 -0.3087  0.2726
   38CHL1  H23A 2798   4.803   1.256   8.178 -0.3529  0.1274 -0.5092
   38CHL1  H23B 2799   4.941   1.152   8.237 -0.6235 -0.8398 -1.5632
   38CHL1   C24 2800   4.896   1.342   8.345  0.3823 -0.9064  0.0009
   38CHL1  H24A 2801   4.995   1.338   8.394 -0.7494  0.1916  2.5417
   38CHL1  H24B 2802   4.874   1.448   8.320 -1.6516 -0.9516  1.3884
   38CHL1   C25 2803   4.808   1.302   8.458 -0.0176 -0.1827 -0.1344
   38CHL1   H25 2804   4.700   1.306   8.432  0.1894 -0.1016 -1.0217
   38CHL1   C26 2805   4.836   1.156   8.499  0.4796 -0.6172  0.0591
   38CHL1  H26A 2806   4.781   1.118   8.588 -0.1791 -0.0564 -0.1051
   38CHL1  H26B 2807   4.801   1.087   8.420 -0.7296  1.9226 -1.7335
   38CHL1  H26C 2808   4.947   1.154   8.513  0.5527  0.4257 -0.3174
   38CHL1   C27 2809   4.843   1.402   8.578  1.0821  0.4215  0.1613
   38CHL1  H27A 2810   4.948   1.379   8.603  1.1059 -2.0316 -1.6882
   38CHL1  H27B 2811   4.832   1.510   8.555 -0.8492  0.4874  1.1939
   38CHL1  H27C 2812   4.782   1.375   8.667  0.5928  3.1065  0.7083
   39CHL1    C3 2813   6.280   1.299   6.982  0.4305 -0.1210 -0.1536
   39CHL1    H3 2814   6.374   1.253   7.019 -0.4280 -0.2132  2.1008
   39CHL1    O3 2815   6.286   1.297   6.842  0.6196 -0.2682  0.3379
   39CHL1   H3' 2816   6.204   1.338   6.812  1.1464  0.0697 -0.6947
   39CHL1    C4 2817   6.166   1.196   7.022  0.2205 -0.8337 -0.5967
   39CHL1   H4A 2818   6.073   1.230   6.971 -2.9853 -2.3123  3.6448
   39CHL1   H4B 2819   6.196   1.103   6.970 -0.1386 -0.9147 -0.6623
   39CHL1    C5 2820   6.140   1.187   7.172 -0.1484 -0.4113  0.1747
   39CHL1    C6 2821   6.153   1.080   7.244  0.2434 -1.0544 -0.2014
   39CHL1    H6 2822   6.173   0.980   7.202  0.0978 -0.3742 -1.9470
   39CHL1    C7 2823   6.141   1.064   7.393 -0.1074 -0.0638 -0.6942
   39CHL1   H7A 2824   6.089   0.971   7.424 -0.3012  0.4653  0.6534
   39CHL1   H7B 2825   6.238   1.034   7.437 -0.3985 -3.1026 -1.8322
   39CHL1    C8 2826   6.069   1.196   7.446 -0.2096 -0.3523  0.2042
   39CHL1    H8 2827   5.961   1.197   7.421 -0.2917  2.1766  0.4243
   39CHL1   C14 2828   6.089   1.207   7.604 -0.1849 -0.1624 -0.0685
   39CHL1   H14 2829   6.200   1.207   7.617  0.1055 -0.3028 -2.1397
   39CHL1   C15 2830   6.035   1.081   7.684 -0.5659 -0.0820 -0.2499
   39CHL1  H15A 2831   5.932   1.050   7.655 -0.3501 -1.2406  0.1650
   39CHL1  H15B 2832   6.106   0.996   7.683 -0.0947  0.3044 -0.1497
   39CHL1   C16 2833   6.023   1.145   7.824 -0.2923 -0.0698  0.2272
   39CHL1  H16A 2834   5.914   1.131   7.843 -0.7255  2.3040 -0.2776
   39CHL1  H16B 2835   6.084   1.086   7.896 -1.3289 -1.8011 -0.2540
   39CHL1   C17 2836   6.060   1.296   7.822 -0.1677 -0.2050 -0.1428
   39CHL1   H17 2837   6.170   1.305   7.840 -0.2219 -0.2304  0.2112
   39CHL1   C13 2838   6.034   1.327   7.670 -0.4692  0.2963  0.1445
   39CHL1   C18 2839   5.872   1.340   7.659 -1.1350 -0.4481  0.2389
   39CHL1  H18A 2840   5.827   1.256   7.715 -2.0262  0.6453  1.2071
   39CHL1  H18B 2841   5.843   1.436   7.705  1.0506  1.5258 -2.1776
   39CHL1  H18C 2842   5.844   1.348   7.551  0.8928 -0.3085 -0.3308
   39CHL1   C12 2843   6.111   1.446   7.608  0.3496  0.3673 -0.1831
   39CHL1  H12A 2844   6.078   1.539   7.657  1.1899  0.3446  0.4516
   39CHL1  H12B 2845   6.220   1.433   7.629  0.7581  0.7195 -1.8716
   39CHL1   C11 2846   6.089   1.455   7.455  0.0321 -0.5379  0.5817
   39CHL1  H11A 2847   5.982   1.477   7.434  0.0319  0.3332  1.4270
   39CHL1  H11B 2848   6.137   1.549   7.419 -0.9393 -0.4421 -0.5226
   39CHL1    C9 2849   6.133   1.323   7.388 -0.4743  0.0470 -0.0190
   39CHL1    H9 2850   6.243   1.317   7.396 -0.5229  0.9406  1.8180
   39CHL1   C10 2851   6.117   1.323   7.234 -0.2197 -0.1866  0.6771
   39CHL1   C19 2852   5.973   1.374   7.198 -0.1793  0.7931  0.1690
   39CHL1  H19A 2853   5.960   1.388   7.089 -0.5178  1.4841  0.2942
   39CHL1  H19B 2854   5.890   1.304   7.226  0.5501  0.0868  0.5979
   39CHL1  H19C 2855   5.957   1.477   7.236 -0.9818  0.6347  0.2808
   39CHL1    C1 2856   6.219   1.425   7.175  0.3686 -0.3884  0.1280
   39CHL1   H1A 2857   6.200   1.525   7.220 -0.1497 -0.8074  0.8749
   39CHL1   H1B 2858   6.320   1.400   7.214  1.3762  1.6581 -1.0075
   39CHL1    C2 2859   6.233   1.441   7.029 -0.2580  0.2980  0.7861
   39CHL1   H2A 2860   6.311   1.515   7.002  0.5812 -0.9211 -0.2397
   39CHL1   H2B 2861   6.138   1.474   6.983  0.3122 -0.2879 -0.8880
   39CHL1   C20 2862   6.002   1.383   7.937 -0.5207  1.1364  0.2711
   39CHL1   H20 2863   5.893   1.399   7.923 -0.0291  3.8466 -1.3033
   39CHL1   C21 2864   6.067   1.519   7.942 -0.6110  0.1303 -1.2448
   39CHL1  H21A 2865   6.177   1.511   7.958 -1.0733 -2.2413  1.7771
   39CHL1  H21B 2866   6.037   1.573   8.035  2.0225 -2.4281  1.3269
   39CHL1  H21C 2867   6.044   1.589   7.860 -1.3962  0.0498 -1.1046
   39CHL1   C22 2868   6.025   1.310   8.075  0.5495 -0.0441 -0.0616
   39CHL1  H22A 2869   5.969   1.214   8.081 -0.8030  0.7147 -0.1833
   39CHL1  H22B 2870   6.134   1.289   8.089  0.0466 -2.1145  1.1733
   39CHL1   C23 2871   5.977   1.386   8.197  0.1030  0.2247 -0.8066
   39CHL1  H23A 2872   6.023   1.486   8.213  1.7587 -0.4624 -1.0792
   39CHL1  H23B 2873   5.866   1.388   8.191  0.0437 -0.4691 -0.1411
   39CHL1   C24 2874   6.017   1.309   8.325 -0.2953 -0.6213 -0.4673
   39CHL1  H24A 2875   5.999   1.200   8.314 -0.2228 -0.5608 -1.2184
   39CHL1  H24B 2876   6.120   1.324   8.363 -1.3768  3.1640  1.5015
   39CHL1   C25 2877   5.948   1.351   8.458  0.4795 -0.4176 -0.2097
   39CHL1   H25 2878   5.997   1.316   8.551 -1.1862  0.7588  1.1869
   39CHL1   C26 2879   5.931   1.504   8.484 -0.3870  0.0448 -0.5226
   39CHL1  H26A 2880   6.029   1.555   8.468  0.5405 -1.5716 -0.1915
   39CHL1  H26B 2881   5.851   1.540   8.415 -1.2324  0.4008  0.6125
   39CHL1  H26C 2882   5.894   1.532   8.584 -1.0248 -1.1183 -0.4202
   39CHL1   C27 2883   5.805   1.293   8.470  0.5957 -0.0577 -0.2664
   39CHL1  H27A 2884   5.747   1.336   8.386  1.0842  0.1514 -0.4974
   39CHL1  H27B 2885   5.792   1.184   8.458 -2.1571  0.4556 -3.3990
   39CHL1  H27C 2886   5.750   1.317   8.563  1.8399 -1.6798  0.9399
   40CHL1    C3 2887   1.316   0.786   7.051 -0.0433 -0.2113  0.5223
   40CHL1    H3 2888   1.415   0.755   7.089  0.6810  0.6325 -0.6316
   40CHL1    O3 2889   1.324   0.776   6.909 -0.3372  0.0590  0.1064
   40CHL1   H3' 2890   1.385   0.705   6.891  1.2217  1.3119  0.2164
   40CHL1    C4 2891   1.208   0.688   7.094 -0.4416  0.5606  0.6051
   40CHL1   H4A 2892   1.106   0.716   7.059 -0.9916 -1.4073  0.4940
   40CHL1   H4B 2893   1.219   0.583   7.059 -1.4649  1.1478 -1.6229
   40CHL1    C5 2894   1.194   0.697   7.247 -0.5772  0.1074  0.0037
   40CHL1    C6 2895   1.208   0.588   7.319  0.3843  0.3035  0.3971
   40CHL1    H6 2896   1.238   0.492   7.274  2.3741  0.7661  0.6348
   40CHL1    C7 2897   1.201   0.578   7.471 -0.1739  0.2182 -0.6103
   40CHL1   H7A 2898   1.127   0.500   7.500  0.9157 -0.6181  0.0162
   40CHL1   H7B 2899   1.299   0.564   7.522 -1.0188 -1.2709  0.7047
   40CHL1    C8 2900   1.139   0.712   7.521  0.2667 -0.6599 -0.2419
   40CHL1    H8 2901   1.031   0.710   7.495  0.0204 -1.2261  0.7812
   40CHL1   C14 2902   1.167   0.726   7.668  0.3291 -0.1531  0.2563
   40CHL1   H14 2903   1.276   0.747   7.673  0.5837 -0.2283 -3.0135
   40CHL1   C15 2904   1.149   0.600   7.759 -0.2662  0.4215 -0.7095
   40CHL1  H15A 2905   1.046   0.559   7.752 -0.8292  1.7923 -0.7297
   40CHL1  H15B 2906   1.222   0.521   7.729 -0.8177 -0.7498  0.8973
   40CHL1   C16 2907   1.157   0.656   7.904  0.0321 -0.6600  0.0254
   40CHL1  H16A 2908   1.073   0.607   7.958  3.1831 -3.9821  2.3491
   40CHL1  H16B 2909   1.252   0.619   7.949  0.4635  1.5040  1.0098
   40CHL1   C17 2910   1.152   0.815   7.899 -0.1157  0.1828  0.6374
   40CHL1   H17 2911   1.258   0.847   7.902  0.4140 -1.0937 -2.1582
   40CHL1   C13 2912   1.103   0.840   7.749 -0.4545  0.0836  0.2872
   40CHL1   C18 2913   0.954   0.823   7.745 -0.6412 -0.3141 -0.2984
   40CHL1  H18A 2914   0.917   0.735   7.802 -1.1713 -1.2525 -2.0251
   40CHL1  H18B 2915   0.918   0.912   7.801  3.8000  1.3811  0.2908
   40CHL1  H18C 2916   0.903   0.816   7.647  0.4950 -0.4096 -0.9017
   40CHL1   C12 2917   1.154   0.970   7.678 -0.8078  0.4431 -0.3285
   40CHL1  H12A 2918   1.096   1.056   7.718 -3.2448 -0.8367 -0.8694
   40CHL1  H12B 2919   1.258   0.993   7.707 -1.0605  0.3438  0.6935
   40CHL1   C11 2920   1.139   0.972   7.528 -0.0126  0.0217  0.4552
   40CHL1  H11A 2921   1.028   0.972   7.524 -0.0787  0.1810  2.0022
   40CHL1  H11B 2922   1.177   1.070   7.493 -1.3299  0.1132 -0.8517
   40CHL1    C9 2923   1.196   0.842   7.455  0.2331 -0.5421 -0.0782
   40CHL1    H9 2924   1.305   0.843   7.475  0.1644 -2.1375  0.5863
   40CHL1   C10 2925   1.178   0.841   7.305 -0.1385 -0.3132 -0.4676
   40CHL1   C19 2926   1.033   0.877   7.266  0.9263 -0.2161 -0.4671
   40CHL1  H19A 2927   1.014   0.853   7.159  2.8693 -1.0392 -0.6731
   40CHL1  H19B 2928   0.960   0.821   7.329 -0.3287 -0.7380 -2.2902
   40CHL1  H19C 2929   1.018   0.982   7.299  2.6620 -1.3526  4.8973
   40CHL1    C1 2930   1.266   0.948   7.242 -0.3034 -0.9204  0.2528
   40CHL1   H1A 2931   1.219   1.048   7.255 -0.5222 -0.8060 -1.2089
   40CHL1   H1B 2932   1.358   0.965   7.301 -0.6103 -0.7439  0.6885
   40CHL1    C2 2933   1.286   0.937   7.086 -0.9775  0.3562 -0.4161
   40CHL1   H2A 2934   1.373   1.004   7.068  1.2436 -2.6504 -1.7745
   40CHL1   H2B 2935   1.191   0.968   7.037 -0.3780  0.5979 -1.4432
   40CHL1   C20 2936   1.082   0.882   8.016 -0.5035 -0.9749 -0.0074
   40CHL1   H20 2937   0.971   0.867   8.017 -1.2338  3.0363 -1.5068
   40CHL1   C21 2938   1.108   1.033   8.018  0.5475  0.2746  0.5359
   40CHL1  H21A 2939   1.215   1.063   8.014  0.1159  1.8220 -1.8018
   40CHL1  H21B 2940   1.049   1.078   8.101 -3.3430 -0.3830 -1.6120
   40CHL1  H21C 2941   1.063   1.073   7.924  1.3431 -1.0075 -0.4122
   40CHL1   C22 2942   1.141   0.821   8.146 -0.3188  0.1245 -0.5920
   40CHL1  H22A 2943   1.109   0.714   8.150  0.0729 -0.1130 -2.5982
   40CHL1  H22B 2944   1.252   0.823   8.134 -0.2769  1.7113 -0.1273
   40CHL1   C23 2945   1.093   0.884   8.278 -0.0304 -0.2617 -0.1079
   40CHL1  H23A 2946   1.106   0.994   8.281  0.9562 -0.3555  2.9919
   40CHL1  H23B 2947   0.983   0.867   8.282 -0.0387  0.0452  1.9477
   40CHL1   C24 2948   1.169   0.817   8.402 -0.0604  0.2341 -0.5707
   40CHL1  H24A 2949   1.164   0.706   8.403  2.7443  0.0030  1.8732
   40CHL1  H24B 2950   1.277   0.844   8.393  0.1805 -1.0906 -2.1849
   40CHL1   C25 2951   1.129   0.861   8.543 -0.1725 -0.6801  0.2088
   40CHL1   H25 2952   1.189   0.817   8.625 -0.8535 -1.6759  0.2013
   40CHL1   C26 2953   1.133   1.008   8.577 -0.0106 -0.1943  0.3034
   40CHL1  H26A 2954   1.060   1.068   8.519 -0.3194 -3.4045 -2.9975
   40CHL1  H26B 2955   1.097   1.030   8.680  0.3701 -0.5996  0.5267
   40CHL1  H26C 2956   1.237   1.044   8.563  0.5672 -0.8394  2.4566
   40CHL1   C27 2957   0.984   0.806   8.578 -0.0701 -0.6030  0.0927
   40CHL1  H27A 2958   0.911   0.833   8.500  0.0322 -1.9862 -0.5231
   40CHL1  H27B 2959   0.997   0.695   8.579  1.9049 -0.4288 -1.2700
   40CHL1  H27C 2960   0.939   0.850   8.670 -2.1786 -0.3429 -1.0249
   41CHL1    C3 2961   0.491   5.894   7.160  0.1154  0.0355  0.3242
   41CHL1    H3 2962   0.565   5.814   7.137  0.2612 -0.0211  0.9725
   41CHL1    O3 2963   0.457   5.969   7.044 -0.1854 -0.3653 -0.0746
   41CHL1   H3' 2964   0.396   5.913   6.995 -1.2584 -0.9684  1.8443
   41CHL1    C4 2965   0.367   5.817   7.201  0.4653  0.0547 -0.3910
   41CHL1   H4A 2966   0.288   5.895   7.202 -0.7721 -1.1670  0.9645
   41CHL1   H4B 2967   0.334   5.751   7.117  0.5720  1.5266 -1.6434
   41CHL1    C5 2968   0.383   5.747   7.331  0.0001  0.1887 -0.4610
   41CHL1    C6 2969   0.351   5.616   7.347 -0.7853  0.0270 -0.2736
   41CHL1    H6 2970   0.308   5.565   7.260 -1.3772  1.8445 -1.0842
   41CHL1    C7 2971   0.361   5.543   7.484  0.5427  0.2009 -0.1240
   41CHL1   H7A 2972   0.263   5.497   7.512  0.9699 -1.0395 -0.5978
   41CHL1   H7B 2973   0.436   5.461   7.481 -0.1772 -0.4527 -0.7805
   41CHL1    C8 2974   0.391   5.638   7.606 -0.3469 -0.5160 -0.6246
   41CHL1    H8 2975   0.295   5.681   7.641  0.0318  0.5770 -0.8998
   41CHL1   C14 2976   0.455   5.560   7.718  0.4896  0.2748 -0.0940
   41CHL1   H14 2977   0.544   5.510   7.674  0.3997  0.1310 -0.1119
   41CHL1   C15 2978   0.367   5.447   7.768  0.2622 -0.5537 -0.1631
   41CHL1  H15A 2979   0.262   5.477   7.787 -0.1940 -3.0904  1.8356
   41CHL1  H15B 2980   0.359   5.357   7.705  1.8902 -1.4236  0.8040
   41CHL1   C16 2981   0.433   5.411   7.900 -0.3567 -0.1250 -0.5077
   41CHL1  H16A 2982   0.346   5.411   7.969 -1.7185  0.6241 -2.1546
   41CHL1  H16B 2983   0.483   5.312   7.904  1.8806  0.9746  0.2365
   41CHL1   C17 2984   0.530   5.525   7.934 -0.2327  0.1139 -0.3031
   41CHL1   H17 2985   0.634   5.497   7.908 -0.0838 -0.9771  1.3566
   41CHL1   C13 2986   0.493   5.638   7.843 -0.4816 -0.8058 -0.5731
   41CHL1   C18 2987   0.368   5.721   7.891  0.2394 -0.2094  0.4563
   41CHL1  H18A 2988   0.350   5.807   7.822  3.4520  0.8237  0.6941
   41CHL1  H18B 2989   0.278   5.660   7.910  0.1662 -0.5314 -0.8532
   41CHL1  H18C 2990   0.408   5.774   7.981  2.8170 -0.9289 -0.1846
   41CHL1   C12 2991   0.611   5.737   7.805 -0.0300 -0.0394 -0.0446
   41CHL1  H12A 2992   0.627   5.821   7.876  1.8458 -0.0918 -0.3373
   41CHL1  H12B 2993   0.700   5.674   7.780 -0.3988  0.3414 -2.6131
   41CHL1   C11 2994   0.576   5.816   7.675  0.4278 -0.0692  0.0765
   41CHL1  H11A 2995   0.506   5.899   7.703  0.1556 -0.5651  0.9071
   41CHL1  H11B 2996   0.665   5.855   7.622  1.6026 -1.7531  0.7445
   41CHL1    C9 2997   0.497   5.741   7.562  0.1026  0.6564  0.7532
   41CHL1    H9 2998   0.573   5.672   7.520  0.0470 -0.2505  2.0781
   41CHL1   C10 2999   0.448   5.828   7.443 -1.1201  0.0052  1.3291
   41CHL1   C19 3000   0.327   5.913   7.495 -0.2376  0.5303  0.0282
   41CHL1  H19A 3001   0.285   5.979   7.415  1.4389  1.3287 -0.2216
   41CHL1  H19B 3002   0.239   5.859   7.536  0.2627  0.1146  0.5680
   41CHL1  H19C 3003   0.363   5.977   7.578  6.1887 -2.4350  0.1053
   41CHL1    C1 3004   0.568   5.917   7.393 -0.2344 -0.2222  0.2329
   41CHL1   H1A 3005   0.586   5.991   7.474  0.5839  0.1849 -0.3110
   41CHL1   H1B 3006   0.654   5.851   7.369 -0.4395 -0.7554  0.9179
   41CHL1    C2 3007   0.536   5.989   7.268  0.6173  0.2643  0.0446
   41CHL1   H2A 3008   0.617   6.053   7.228  0.3469  1.1873  0.9236
   41CHL1   H2B 3009   0.463   6.072   7.281  1.3825  1.6203 -3.3244
   41CHL1   C20 3010   0.540   5.555   8.086 -0.6715 -0.2820  0.1908
   41CHL1   H20 3011   0.439   5.572   8.130 -1.1158  0.9319 -1.2313
   41CHL1   C21 3012   0.639   5.671   8.107  0.0981 -0.5421 -0.1791
   41CHL1  H21A 3013   0.730   5.649   8.047  0.1946 -1.8392  0.4219
   41CHL1  H21B 3014   0.652   5.677   8.217 -4.5701  0.0987  0.5189
   41CHL1  H21C 3015   0.589   5.770   8.092 -0.9970 -1.1118 -0.3663
   41CHL1   C22 3016   0.583   5.430   8.165 -0.0295 -0.3538 -0.9421
   41CHL1  H22A 3017   0.510   5.349   8.147  0.1206 -0.7429  0.1033
   41CHL1  H22B 3018   0.681   5.397   8.123 -0.7236 -3.2679 -0.4876
   41CHL1   C23 3019   0.585   5.446   8.316  0.3000  0.2947  0.3563
   41CHL1  H23A 3020   0.673   5.508   8.344  0.4533  0.9111 -1.3629
   41CHL1  H23B 3021   0.498   5.505   8.349 -0.9397 -2.3866  2.2498
   41CHL1   C24 3022   0.585   5.317   8.396 -1.0177  0.1291  0.8067
   41CHL1  H24A 3023   0.489   5.264   8.377 -0.7060  0.1923 -1.1830
   41CHL1  H24B 3024   0.669   5.260   8.351  1.3253  2.2885  2.1736
   41CHL1   C25 3025   0.602   5.329   8.549 -0.3251  0.3458  0.1896
   41CHL1   H25 3026   0.695   5.388   8.566 -0.3297  0.9125 -1.5597
   41CHL1   C26 3027   0.490   5.398   8.620  0.5018  0.0324  0.4013
   41CHL1  H26A 3028   0.483   5.500   8.577 -2.1846 -0.3252 -0.1900
   41CHL1  H26B 3029   0.389   5.358   8.600  0.8527 -0.4009 -0.6038
   41CHL1  H26C 3030   0.506   5.397   8.730 -0.1758 -0.0697  0.4968
   41CHL1   C27 3031   0.623   5.188   8.602  0.4756 -0.0103 -0.3045
   41CHL1  H27A 3032   0.644   5.186   8.711 -0.5085  1.4191 -0.0584
   41CHL1  H27B 3033   0.530   5.127   8.588 -0.4739  0.5009  2.8294
   41CHL1  H27C 3034   0.690   5.131   8.535  1.0935  1.6890 -1.1675
   42CHL1    C3 3035   3.258   3.650   7.091  0.1276 -0.1160 -0.3478
   42CHL1    H3 3036   3.367   3.663   7.104  0.1669  0.1396 -0.8858
   42CHL1    O3 3037   3.228   3.667   6.950 -0.8804  0.1263 -0.0403
   42CHL1   H3' 3038   3.309   3.697   6.906 -0.5595  0.4053  0.7252
   42CHL1    C4 3039   3.216   3.515   7.143  0.4834  0.3715  0.0179
   42CHL1   H4A 3040   3.111   3.504   7.107  0.9395 -3.3034 -0.6347
   42CHL1   H4B 3041   3.263   3.428   7.092 -3.2074 -1.4032 -0.6980
   42CHL1    C5 3042   3.229   3.494   7.295  0.0364  0.2940 -0.3932
   42CHL1    C6 3043   3.294   3.386   7.339  0.0928 -0.6485  1.0198
   42CHL1    H6 3044   3.320   3.304   7.270 -0.2062 -1.4287  1.8312
   42CHL1    C7 3045   3.314   3.354   7.485 -0.0597 -0.1221 -0.4120
   42CHL1   H7A 3046   3.282   3.249   7.504  0.4118 -0.3957 -1.0773
   42CHL1   H7B 3047   3.421   3.363   7.514 -0.5506  1.1787  1.1275
   42CHL1    C8 3048   3.245   3.452   7.582 -0.4379 -0.2432 -1.0476
   42CHL1    H8 3049   3.141   3.412   7.582 -0.3409 -0.5188 -0.1653
   42CHL1   C14 3050   3.318   3.458   7.719  0.0151  0.4507  0.5877
   42CHL1   H14 3051   3.414   3.511   7.703  1.0084 -1.8879 -1.8951
   42CHL1   C15 3052   3.344   3.322   7.790 -0.3520  0.2812  0.2947
   42CHL1  H15A 3053   3.252   3.260   7.781 -0.6571  0.7519  0.1235
   42CHL1  H15B 3054   3.423   3.270   7.732  0.6862  1.8831  0.2113
   42CHL1   C16 3055   3.366   3.357   7.937 -0.2870 -0.4697 -0.3064
   42CHL1  H16A 3056   3.295   3.292   7.993  1.6778 -2.5557 -0.0826
   42CHL1  H16B 3057   3.467   3.324   7.970 -0.2348  0.1768  0.1874
   42CHL1   C17 3058   3.345   3.507   7.950  0.5348 -0.2615 -0.2237
   42CHL1   H17 3059   3.446   3.551   7.933  0.8570 -1.5363 -1.7819
   42CHL1   C13 3060   3.259   3.545   7.827 -0.1475 -0.1818  0.3427
   42CHL1   C18 3061   3.111   3.508   7.855 -0.9500 -0.4777  0.0764
   42CHL1  H18A 3062   3.066   3.519   7.754  4.4755  0.9362 -2.5875
   42CHL1  H18B 3063   3.112   3.401   7.885 -1.5970 -0.8159 -1.0506
   42CHL1  H18C 3064   3.066   3.569   7.937  0.2570 -0.5423  0.8054
   42CHL1   C12 3065   3.271   3.694   7.779 -0.4853 -0.2634 -0.3481
   42CHL1  H12A 3066   3.203   3.755   7.843 -0.0142  0.9721 -0.9957
   42CHL1  H12B 3067   3.375   3.731   7.789 -0.7676  1.1652 -2.2972
   42CHL1   C11 3068   3.223   3.710   7.632  0.0906 -0.5683 -0.1356
   42CHL1  H11A 3069   3.115   3.735   7.638  0.0355 -0.9617  0.7225
   42CHL1  H11B 3070   3.264   3.805   7.592 -1.4528  0.6618  1.0732
   42CHL1    C9 3071   3.252   3.594   7.529 -0.0635 -0.0156 -0.1379
   42CHL1    H9 3072   3.360   3.615   7.512 -0.3831  2.1180  0.2731
   42CHL1   C10 3073   3.186   3.604   7.388 -0.7157 -0.4598  0.3662
   42CHL1   C19 3074   3.035   3.607   7.398  0.7638  0.8428 -0.5479
   42CHL1  H19A 3075   3.008   3.703   7.446 -0.0183  0.7456 -0.7806
   42CHL1  H19B 3076   2.981   3.600   7.301 -2.5357 -0.7593  1.2052
   42CHL1  H19C 3077   2.989   3.515   7.442  0.1015  0.7683 -1.3612
   42CHL1    C1 3078   3.228   3.740   7.319  0.3634  0.1724  0.2313
   42CHL1   H1A 3079   3.190   3.829   7.374 -2.0346 -0.0239 -0.9715
   42CHL1   H1B 3080   3.339   3.743   7.321  0.6317 -3.4147 -1.1369
   42CHL1    C2 3081   3.196   3.761   7.171  0.2916  0.4011  0.4294
   42CHL1   H2A 3082   3.222   3.863   7.136  0.8281 -0.4515 -1.8156
   42CHL1   H2B 3083   3.089   3.759   7.142  0.3929 -1.6173  0.0495
   42CHL1   C20 3084   3.299   3.555   8.094  0.1309  0.1001 -0.0412
   42CHL1   H20 3085   3.197   3.598   8.086 -0.1791 -0.7415 -0.8234
   42CHL1   C21 3086   3.398   3.669   8.143  0.5826 -0.2111 -0.3970
   42CHL1  H21A 3087   3.501   3.629   8.135  0.3817 -1.7165  2.8684
   42CHL1  H21B 3088   3.381   3.688   8.251 -0.8423  2.9299 -1.0827
   42CHL1  H21C 3089   3.397   3.768   8.092  0.6165  0.4622  0.8840
   42CHL1   C22 3090   3.283   3.439   8.202  0.4267  0.0068 -0.6136
   42CHL1  H22A 3091   3.201   3.375   8.164 -1.3347  2.6542 -1.5434
   42CHL1  H22B 3092   3.377   3.381   8.213  0.3781 -0.0219 -0.3466
   42CHL1   C23 3093   3.223   3.489   8.335 -0.2778  0.6933  0.0521
   42CHL1  H23A 3094   3.287   3.561   8.390  0.4036  0.6413 -0.6556
   42CHL1  H23B 3095   3.127   3.542   8.323  0.2618  1.5254 -0.6692
   42CHL1   C24 3096   3.218   3.370   8.445  0.1311  0.0163 -0.4801
   42CHL1  H24A 3097   3.174   3.285   8.390  0.7800 -0.8909  0.3611
   42CHL1  H24B 3098   3.322   3.338   8.470  1.8420  1.3617 -4.8078
   42CHL1   C25 3099   3.143   3.393   8.577 -0.2900 -0.3608 -0.4874
   42CHL1   H25 3100   3.033   3.406   8.561 -0.1614  2.4659  0.3832
   42CHL1   C26 3101   3.160   3.280   8.685  0.2662  0.2509  0.9205
   42CHL1  H26A 3102   3.119   3.182   8.652  2.0606 -0.6293  1.1817
   42CHL1  H26B 3103   3.268   3.262   8.700  0.3748  1.7944  2.2000
   42CHL1  H26C 3104   3.123   3.308   8.786  0.2104  1.9529  0.4491
   42CHL1   C27 3105   3.199   3.523   8.638  0.3796 -0.5150  0.3952
   42CHL1  H27A 3106   3.309   3.518   8.624  0.3491  0.2773 -0.1504
   42CHL1  H27B 3107   3.174   3.531   8.746 -0.7455  0.5815  0.0769
   42CHL1  H27C 3108   3.166   3.614   8.584  2.0573 -0.4091 -0.5289
   43CHL1    C3 3109   2.541   0.475   6.974  0.3327 -0.2136 -0.5369
   43CHL1    H3 3110   2.445   0.532   6.974 -0.1721 -1.0478 -1.0510
   43CHL1    O3 3111   2.573   0.433   6.846 -0.4108 -0.3956  0.2263
   43CHL1   H3' 3112   2.636   0.501   6.821  1.3173 -1.1182  2.3108
   43CHL1    C4 3113   2.649   0.570   7.025  0.0751  0.4720 -0.4888
   43CHL1   H4A 3114   2.740   0.506   7.022 -1.1220 -1.4547  1.3681
   43CHL1   H4B 3115   2.646   0.658   6.957  2.9690  1.6365  0.7210
   43CHL1    C5 3116   2.625   0.615   7.172  0.4184 -0.0170  0.1759
   43CHL1    C6 3117   2.618   0.743   7.196 -0.0989 -0.1585  0.2218
   43CHL1    H6 3118   2.652   0.816   7.122 -1.4820  1.2945  0.9545
   43CHL1    C7 3119   2.597   0.808   7.329 -0.1701 -0.8175 -0.2015
   43CHL1   H7A 3120   2.664   0.895   7.347 -0.2543 -0.9424  0.8079
   43CHL1   H7B 3121   2.499   0.861   7.338  1.3511  2.1702  0.0160
   43CHL1    C8 3122   2.601   0.703   7.443 -0.3675 -0.3775 -0.1302
   43CHL1    H8 3123   2.707   0.674   7.461  0.0060  0.2595 -1.1810
   43CHL1   C14 3124   2.548   0.764   7.572  0.3527 -0.1338 -0.3908
   43CHL1   H14 3125   2.440   0.788   7.557  0.9568  2.2011 -1.4446
   43CHL1   C15 3126   2.613   0.899   7.625  0.5291  0.5190 -1.2152
   43CHL1  H15A 3127   2.723   0.904   7.614  1.0701 -1.1657  1.9732
   43CHL1  H15B 3128   2.580   0.985   7.563 -1.8448 -1.3620 -2.7171
   43CHL1   C16 3129   2.562   0.897   7.771 -0.3501 -0.4931 -0.1238
   43CHL1  H16A 3130   2.644   0.902   7.846 -2.3797 -2.3767  2.4209
   43CHL1  H16B 3131   2.501   0.984   7.802 -0.5819 -1.5783  2.8462
   43CHL1   C17 3132   2.488   0.766   7.809  0.1131  0.3422  0.2568
   43CHL1   H17 3133   2.381   0.779   7.782 -0.2483 -1.7783  0.5172
   43CHL1   C13 3134   2.537   0.670   7.696 -0.1609 -0.1782 -1.3011
   43CHL1   C18 3135   2.676   0.626   7.735 -0.5761  0.3217  0.6150
   43CHL1  H18A 3136   2.729   0.576   7.651 -0.2396 -0.3995  1.2373
   43CHL1  H18B 3137   2.749   0.701   7.772 -0.6061  1.1526 -0.9377
   43CHL1  H18C 3138   2.675   0.549   7.816 -0.3652 -0.9296 -0.5281
   43CHL1   C12 3139   2.441   0.553   7.655  0.3676  0.2297 -0.4424
   43CHL1  H12A 3140   2.414   0.479   7.734  0.0756  1.1608  0.3430
   43CHL1  H12B 3141   2.345   0.608   7.645 -0.9047 -1.2784  2.3615
   43CHL1   C11 3142   2.478   0.480   7.525 -0.5246  0.1772 -0.5037
   43CHL1  H11A 3143   2.560   0.406   7.539 -0.7541 -0.1311 -0.7574
   43CHL1  H11B 3144   2.384   0.434   7.488 -1.2001  1.7572 -0.8209
   43CHL1    C9 3145   2.524   0.575   7.405  0.0903 -0.7480 -0.6740
   43CHL1    H9 3146   2.424   0.616   7.380 -0.6733 -1.8368  0.4466
   43CHL1   C10 3147   2.581   0.505   7.277  0.1856 -0.8256  0.2528
   43CHL1   C19 3148   2.709   0.432   7.318  0.3513 -0.0733  0.9595
   43CHL1  H19A 3149   2.776   0.491   7.384  0.1401  0.1690  0.9605
   43CHL1  H19B 3150   2.669   0.348   7.378 -0.6148 -1.1869 -1.1215
   43CHL1  H19C 3151   2.758   0.380   7.233 -0.2844  0.8184  0.0232
   43CHL1    C1 3152   2.483   0.409   7.205  0.0366  0.5546 -0.3509
   43CHL1   H1A 3153   2.470   0.329   7.281  2.7937  1.4978  1.2537
   43CHL1   H1B 3154   2.392   0.471   7.188 -0.4420  0.0284  0.2243
   43CHL1    C2 3155   2.527   0.359   7.065 -0.5063  0.0965  0.4920
   43CHL1   H2A 3156   2.454   0.285   7.028  1.3715 -1.0575 -1.0498
   43CHL1   H2B 3157   2.624   0.307   7.080 -0.9910 -1.5002 -1.5371
   43CHL1   C20 3158   2.488   0.722   7.958  0.6673 -0.1812 -0.2433
   43CHL1   H20 3159   2.594   0.702   7.982  1.4853 -0.3346 -3.5104
   43CHL1   C21 3160   2.415   0.587   7.999 -0.1700 -0.1898 -0.0782
   43CHL1  H21A 3161   2.306   0.601   7.978 -0.5235  1.2675  2.3420
   43CHL1  H21B 3162   2.417   0.578   8.109 -0.3329  2.0812  0.1672
   43CHL1  H21C 3163   2.452   0.498   7.944 -0.6940 -0.8253  0.5758
   43CHL1   C22 3164   2.449   0.849   8.051 -0.0272  0.5032 -0.0395
   43CHL1  H22A 3165   2.509   0.936   8.018 -1.5936  1.1895 -1.2111
   43CHL1  H22B 3166   2.345   0.881   8.030  0.5626  1.1135 -2.3174
   43CHL1   C23 3167   2.458   0.813   8.205  0.1165 -0.1947  0.3436
   43CHL1  H23A 3168   2.380   0.735   8.219  0.0441 -0.4036 -1.0277
   43CHL1  H23B 3169   2.554   0.762   8.227  0.8142  0.5894 -0.7326
   43CHL1   C24 3170   2.436   0.933   8.293 -0.0755  0.0580  0.0849
   43CHL1  H24A 3171   2.507   1.010   8.256  0.5939 -1.6998 -2.5947
   43CHL1  H24B 3172   2.332   0.971   8.282  0.2665  0.7593 -0.8446
   43CHL1   C25 3173   2.481   0.912   8.432  0.0065  0.6731 -0.5053
   43CHL1   H25 3174   2.571   0.847   8.431 -1.1218 -1.0338  1.2079
   43CHL1   C26 3175   2.514   1.045   8.505 -0.5336  0.5854  0.0507
   43CHL1  H26A 3176   2.559   1.030   8.606  0.0191 -1.2197 -0.4251
   43CHL1  H26B 3177   2.579   1.110   8.443 -1.7957  1.9199  0.0739
   43CHL1  H26C 3178   2.425   1.111   8.505 -1.2162 -0.2905 -1.7169
   43CHL1   C27 3179   2.372   0.842   8.510  0.6133  0.5867 -0.4978
   43CHL1  H27A 3180   2.276   0.891   8.482 -0.6716 -2.2520 -1.3795
   43CHL1  H27B 3181   2.368   0.739   8.470  0.6410  0.8328 -1.1363
   43CHL1  H27C 3182   2.392   0.853   8.619 -0.3510  0.8951 -0.3421
   44CHL1    C3 3183   2.411   5.629   7.137  0.7209 -0.7361 -0.0038
   44CHL1    H3 3184   2.402   5.525   7.174  0.5240 -1.0897 -1.0099
   44CHL1    O3 3185   2.446   5.633   6.995  0.6121 -0.2162 -0.0114
   44CHL1   H3' 3186   2.432   5.725   6.972 -0.7206 -0.1715  0.8772
   44CHL1    C4 3187   2.287   5.710   7.165 -0.4592  0.3754 -0.1331
   44CHL1   H4A 3188   2.298   5.812   7.124  0.3899 -0.0500 -0.9916
   44CHL1   H4B 3189   2.203   5.667   7.106 -0.8246  2.4235 -1.1827
   44CHL1    C5 3190   2.249   5.716   7.313 -0.4240  0.0594  0.6231
   44CHL1    C6 3191   2.130   5.685   7.355  1.0783  0.2455 -0.4588
   44CHL1    H6 3192   2.052   5.653   7.285 -1.1441  1.2638  1.4082
   44CHL1    C7 3193   2.089   5.714   7.500 -0.1310 -0.3715  0.1272
   44CHL1   H7A 3194   1.995   5.773   7.496  0.9552  1.4648  0.3948
   44CHL1   H7B 3195   2.066   5.622   7.557 -0.0832 -0.9899 -0.8490
   44CHL1    C8 3196   2.193   5.802   7.576  0.0764  0.3664 -0.5015
   44CHL1    H8 3197   2.178   5.910   7.554  0.9271  0.7886  0.8577
   44CHL1   C14 3198   2.160   5.778   7.727 -0.7581  0.7287  0.1492
   44CHL1   H14 3199   2.195   5.674   7.744  0.1105  0.4925 -2.5961
   44CHL1   C15 3200   2.017   5.800   7.780  0.0328 -0.0957  0.6975
   44CHL1  H15A 3201   1.968   5.885   7.729  0.1857 -0.4987 -0.1386
   44CHL1  H15B 3202   1.962   5.704   7.765 -0.5526  0.3357  0.0345
   44CHL1   C16 3203   2.041   5.822   7.930  0.2359  0.5988  0.0318
   44CHL1  H16A 3204   1.989   5.916   7.957  0.5299  1.1462 -1.2193
   44CHL1  H16B 3205   1.997   5.737   7.986  0.2392 -0.1099 -1.0206
   44CHL1   C17 3206   2.199   5.829   7.945 -0.7934 -0.3977  0.4301
   44CHL1   H17 3207   2.227   5.722   7.953 -1.6173 -0.6824 -0.3052
   44CHL1   C13 3208   2.259   5.869   7.813  0.7122 -0.4957  0.1588
   44CHL1   C18 3209   2.234   6.022   7.791  0.6386 -0.8148 -0.4293
   44CHL1  H18A 3210   2.132   6.057   7.815  0.3165 -1.4823 -0.8038
   44CHL1  H18B 3211   2.300   6.076   7.863 -0.3922 -2.6987  2.0440
   44CHL1  H18C 3212   2.261   6.049   7.686 -1.3755  0.7041 -0.6121
   44CHL1   C12 3213   2.408   5.832   7.792 -0.4777 -0.8186  0.0019
   44CHL1  H12A 3214   2.478   5.902   7.843 -0.7196 -0.2364 -0.4402
   44CHL1  H12B 3215   2.422   5.728   7.826  0.9539  0.7628  5.0666
   44CHL1   C11 3216   2.440   5.839   7.637  0.2372  0.3330 -0.4266
   44CHL1  H11A 3217   2.441   5.945   7.603  0.1529 -0.7688 -4.3357
   44CHL1  H11B 3218   2.538   5.793   7.614  1.3056  2.1963  0.1752
   44CHL1    C9 3219   2.334   5.763   7.551  0.9515  0.3048 -0.2333
   44CHL1    H9 3220   2.339   5.653   7.565  0.3976  0.2770 -0.2021
   44CHL1   C10 3221   2.363   5.776   7.395  0.7915  0.7815 -0.5676
   44CHL1   C19 3222   2.385   5.925   7.354  0.4348  0.3193  0.2843
   44CHL1  H19A 3223   2.305   5.981   7.407 -0.8697 -1.5181  0.3558
   44CHL1  H19B 3224   2.480   5.963   7.396  0.2306  0.0516  0.9915
   44CHL1  H19C 3225   2.374   5.948   7.245 -0.5243 -0.9400  0.0931
   44CHL1    C1 3226   2.486   5.687   7.365  0.1979  0.3217  0.4170
   44CHL1   H1A 3227   2.568   5.743   7.415 -0.5917  1.4672  0.4808
   44CHL1   H1B 3228   2.479   5.588   7.416  3.1085  0.8054  2.0065
   44CHL1    C2 3229   2.528   5.684   7.218  0.0731 -0.5902 -0.2426
   44CHL1   H2A 3230   2.606   5.607   7.198  2.1048  1.1965  0.3964
   44CHL1   H2B 3231   2.560   5.784   7.180  1.3252 -0.8001  0.2091
   44CHL1   C20 3232   2.242   5.914   8.064 -0.8678  0.4115 -0.3569
   44CHL1   H20 3233   2.224   6.024   8.053  1.6928  0.8908 -0.3903
   44CHL1   C21 3234   2.392   5.876   8.105 -0.0236 -0.3420 -0.2841
   44CHL1  H21A 3235   2.404   5.766   8.110  0.8845 -0.3023 -1.3177
   44CHL1  H21B 3236   2.422   5.917   8.203  1.6744  1.3144 -1.4350
   44CHL1  H21C 3237   2.468   5.903   8.028 -0.8727  1.0313 -0.6828
   44CHL1   C22 3238   2.150   5.882   8.182 -0.0305  0.1586  0.6810
   44CHL1  H22A 3239   2.044   5.909   8.161 -0.0063  0.5656  1.0783
   44CHL1  H22B 3240   2.159   5.779   8.222 -0.0297  0.3515  1.1790
   44CHL1   C23 3241   2.177   5.964   8.314 -0.6677 -0.8268  0.3824
   44CHL1  H23A 3242   2.278   5.930   8.346 -0.4759  0.3827  1.1326
   44CHL1  H23B 3243   2.188   6.072   8.290  1.6433 -1.2115 -0.5748
   44CHL1   C24 3244   2.084   5.937   8.437  0.6970  0.4318 -0.3656
   44CHL1  H24A 3245   1.976   5.949   8.416  0.8810 -0.0456 -1.6695
   44CHL1  H24B 3246   2.097   5.830   8.464 -0.4315 -0.0794 -1.7319
   44CHL1   C25 3247   2.123   6.005   8.567 -0.0847  1.0859  0.2712
   44CHL1   H25 3248   2.230   5.986   8.586  0.1552  2.5253  0.4655
   44CHL1   C26 3249   2.098   6.157   8.559  1.1485 -0.3105  0.7952
   44CHL1  H26A 3250   2.082   6.214   8.653  1.1072 -1.3839  1.4659
   44CHL1  H26B 3251   2.174   6.207   8.496 -0.4482  1.0436 -0.1371
   44CHL1  H26C 3252   2.011   6.168   8.490  0.3920  1.5543  1.9725
   44CHL1   C27 3253   2.038   5.957   8.683 -0.3469 -0.0030  0.3327
   44CHL1  H27A 3254   2.068   6.001   8.781 -0.0814  1.8959 -0.5515
   44CHL1  H27B 3255   1.935   5.996   8.666  0.3033  0.8149 -2.2480
   44CHL1  H27C 3256   2.049   5.847   8.691 -1.9290 -0.3808 -1.8113
   45CHL1    C3 3257   4.802   4.312   7.204  0.0599 -0.3064 -0.0947
   45CHL1    H3 3258   4.858   4.224   7.166  0.1497 -0.1587 -0.3043
   45CHL1    O3 3259   4.734   4.369   7.091  0.0742  0.8592 -0.0117
   45CHL1   H3' 3260   4.642   4.344   7.102  0.8701 -1.9396  1.0665
   45CHL1    C4 3261   4.701   4.287   7.316  0.3269  0.1679  0.6981
   45CHL1   H4A 3262   4.642   4.375   7.349  1.3998 -0.0766  3.5007
   45CHL1   H4B 3263   4.637   4.204   7.279  0.2510  1.5364 -2.6968
   45CHL1    C5 3264   4.776   4.247   7.438 -0.3371  0.4749 -0.0407
   45CHL1    C6 3265   4.754   4.127   7.496 -0.5062 -0.1614 -0.6632
   45CHL1    H6 3266   4.676   4.062   7.453  0.2074 -1.3749 -0.1507
   45CHL1    C7 3267   4.814   4.075   7.625  0.9360  0.4198 -0.5574
   45CHL1   H7A 3268   4.740   4.025   7.690  3.3020 -2.2441  0.3082
   45CHL1   H7B 3269   4.890   3.997   7.604 -1.6524 -2.7864  1.0943
   45CHL1    C8 3270   4.887   4.188   7.697 -0.0346  0.1621 -0.5185
   45CHL1    H8 3271   4.808   4.253   7.741  1.0469 -0.1241  2.0204
   45CHL1   C14 3272   4.970   4.135   7.812 -0.2064  0.4774  0.3637
   45CHL1   H14 3273   5.051   4.075   7.766 -2.1657  0.2678 -3.1556
   45CHL1   C15 3274   4.904   4.034   7.909  0.3315  0.4072  0.1996
   45CHL1  H15A 3275   4.795   4.044   7.930  0.3307  0.7617  0.0423
   45CHL1  H15B 3276   4.914   3.934   7.862  2.2718  0.7882 -0.2802
   45CHL1   C16 3277   4.989   4.054   8.041  0.0324  0.1612  0.8380
   45CHL1  H16A 3278   4.920   4.099   8.116 -1.0822  0.3794 -0.2814
   45CHL1  H16B 3279   5.035   3.960   8.080 -0.4373 -0.6031 -0.3876
   45CHL1   C17 3280   5.103   4.154   8.004 -0.1823  0.1020  0.3018
   45CHL1   H17 3281   5.183   4.099   7.950  3.1750  2.6581  2.2717
   45CHL1   C13 3282   5.040   4.249   7.900 -0.5190 -0.0193 -0.5875
   45CHL1   C18 3283   4.944   4.354   7.964  0.3977  0.7273 -0.0795
   45CHL1  H18A 3284   4.868   4.385   7.889  0.3203 -0.7348 -0.6546
   45CHL1  H18B 3285   4.897   4.302   8.050  3.1197  0.3414  1.2651
   45CHL1  H18C 3286   4.995   4.438   8.016  1.9170 -1.4367  2.1798
   45CHL1   C12 3287   5.140   4.318   7.808  0.6557  0.4747  0.1604
   45CHL1  H12A 3288   5.195   4.402   7.855  0.8750  1.1335 -1.2146
   45CHL1  H12B 3289   5.218   4.245   7.776  0.0208 -0.7593  1.3210
   45CHL1   C11 3290   5.065   4.377   7.680 -0.4803  0.1222  0.0814
   45CHL1  H11A 3291   5.013   4.468   7.718  0.0007 -0.3201  1.8623
   45CHL1  H11B 3292   5.143   4.413   7.609 -1.8824  0.0431 -1.5787
   45CHL1    C9 3293   4.972   4.280   7.607  0.2785  0.5502 -0.5489
   45CHL1    H9 3294   5.036   4.205   7.556  1.1014  0.1993  0.9381
   45CHL1   C10 3295   4.886   4.345   7.487 -0.4607 -0.3860 -0.1178
   45CHL1   C19 3296   4.826   4.486   7.529 -0.4190  0.5208 -0.0811
   45CHL1  H19A 3297   4.775   4.547   7.451 -1.7881  0.8800  1.0380
   45CHL1  H19B 3298   4.750   4.467   7.608  1.4034 -2.8139  1.0430
   45CHL1  H19C 3299   4.906   4.553   7.568 -0.3503  1.4292 -1.6827
   45CHL1    C1 3300   4.988   4.374   7.371  0.3058  0.1458  0.2082
   45CHL1   H1A 3301   5.048   4.462   7.402 -2.4363  2.6293 -1.0850
   45CHL1   H1B 3302   5.056   4.288   7.352 -0.0023  0.1652 -1.0613
   45CHL1    C2 3303   4.912   4.408   7.240  0.3395  0.1686 -0.1565
   45CHL1   H2A 3304   4.985   4.406   7.156  0.1863 -0.0974 -0.2869
   45CHL1   H2B 3305   4.879   4.514   7.245  0.8873  0.3234  0.3301
   45CHL1   C20 3306   5.190   4.224   8.121  0.4761  0.0448 -0.6840
   45CHL1   H20 3307   5.228   4.322   8.084 -0.7500  0.6520 -0.3961
   45CHL1   C21 3308   5.309   4.128   8.142 -0.0485  0.1140  0.8862
   45CHL1  H21A 3309   5.376   4.129   8.054  0.1932  3.0577  1.0157
   45CHL1  H21B 3310   5.270   4.024   8.146  2.1366 -0.8508 -1.0305
   45CHL1  H21C 3311   5.365   4.152   8.235  0.5497  1.4113  0.2238
   45CHL1   C22 3312   5.109   4.237   8.257 -0.2267  0.2284 -0.6528
   45CHL1  H22A 3313   5.006   4.276   8.241  0.5662  2.0417 -1.6403
   45CHL1  H22B 3314   5.090   4.136   8.298  1.1826 -0.6291 -1.9892
   45CHL1   C23 3315   5.181   4.315   8.377  0.0407  0.2713 -0.0093
   45CHL1  H23A 3316   5.117   4.301   8.466  2.8048 -0.7874  1.9380
   45CHL1  H23B 3317   5.273   4.256   8.396  0.4646  0.2888 -1.8165
   45CHL1   C24 3318   5.213   4.464   8.350 -0.0955 -0.6745  0.0443
   45CHL1  H24A 3319   5.286   4.464   8.266  2.2318  0.2286  1.9530
   45CHL1  H24B 3320   5.137   4.534   8.308  0.5377 -1.1781 -2.0906
   45CHL1   C25 3321   5.282   4.550   8.459 -0.0077  0.1764 -0.1672
   45CHL1   H25 3322   5.212   4.555   8.545 -1.3816 -3.0643 -0.9432
   45CHL1   C26 3323   5.407   4.475   8.515  0.0371 -0.0107 -0.5976
   45CHL1  H26A 3324   5.466   4.423   8.436 -0.0882 -1.1420  0.0400
   45CHL1  H26B 3325   5.476   4.546   8.565  1.2704 -0.8120 -1.1000
   45CHL1  H26C 3326   5.368   4.398   8.585  2.4682  0.2131  1.1406
   45CHL1   C27 3327   5.316   4.687   8.406 -0.7244  0.0700  0.4562
   45CHL1  H27A 3328   5.356   4.742   8.494  0.7858  1.7648 -1.1939
   45CHL1  H27B 3329   5.394   4.680   8.326  1.5969 -1.6433  2.7063
   45CHL1  H27C 3330   5.229   4.748   8.373 -2.2951 -1.4867  1.5664
   46CHL1    C3 3331   3.581   0.051   7.217 -0.1612  0.4042 -0.8768
   46CHL1    H3 3332   3.631   0.148   7.241  0.0952 -0.4729  2.7861
   46CHL1    O3 3333   3.521   0.057   7.083  0.6598 -0.2114 -0.4987
   46CHL1   H3' 3334   3.596   0.064   7.022  1.3009 -0.0041  0.2917
   46CHL1    C4 3335   3.680  -0.062   7.232 -0.5623 -0.1198  0.0619
   46CHL1   H4A 3336   3.648  -0.160   7.190 -0.3641  0.9079 -2.6683
   46CHL1   H4B 3337   3.759  -0.043   7.157 -1.6164  0.1653 -1.0160
   46CHL1    C5 3338   3.726  -0.084   7.380  0.1944  0.3774 -0.8234
   46CHL1    C6 3339   3.856  -0.076   7.398  0.0467  0.3724  0.8592
   46CHL1    H6 3340   3.936  -0.069   7.323 -0.7379  0.4878  0.0171
   46CHL1    C7 3341   3.914  -0.087   7.535 -0.5869 -0.2443 -1.1418
   46CHL1   H7A 3342   3.989  -0.169   7.532  1.1291  1.2144 -0.2993
   46CHL1   H7B 3343   3.969   0.005   7.568  2.1256 -2.9785  2.9726
   46CHL1    C8 3344   3.816  -0.136   7.639 -0.0281 -0.3066  0.5031
   46CHL1    H8 3345   3.790  -0.244   7.625 -3.1811  0.1343  2.1514
   46CHL1   C14 3346   3.870  -0.131   7.778  0.2365  0.7911 -0.2781
   46CHL1   H14 3347   3.894  -0.026   7.804 -0.9591  0.4134  2.8354
   46CHL1   C15 3348   3.994  -0.213   7.815 -0.2261  0.2412  0.6353
   46CHL1  H15A 3349   3.982  -0.317   7.778 -2.2214  1.3078 -2.0498
   46CHL1  H15B 3350   4.083  -0.173   7.762  0.2641  0.4219  1.5695
   46CHL1   C16 3351   4.003  -0.208   7.966  0.4914 -0.0952  0.1463
   46CHL1  H16A 3352   4.031  -0.307   8.007  0.9407 -0.0319 -0.0061
   46CHL1  H16B 3353   4.084  -0.137   7.993 -1.7391  2.2686  1.0741
   46CHL1   C17 3354   3.870  -0.151   8.013  0.5319 -0.3399 -0.2697
   46CHL1   H17 3355   3.884  -0.041   8.022 -0.0994 -0.2373 -0.5233
   46CHL1   C13 3356   3.777  -0.168   7.894  0.8384  0.0933  0.0670
   46CHL1   C18 3357   3.736  -0.318   7.892 -0.3471 -0.0562  0.1993
   46CHL1  H18A 3358   3.695  -0.359   7.797  0.2108 -0.2205  0.0257
   46CHL1  H18B 3359   3.827  -0.379   7.910  0.5724  0.3934 -2.4487
   46CHL1  H18C 3360   3.659  -0.347   7.967  0.0727  0.4724  0.8500
   46CHL1   C12 3361   3.653  -0.077   7.887 -0.4328 -0.8920  0.1535
   46CHL1  H12A 3362   3.577  -0.118   7.958 -2.4760  0.4809 -1.1244
   46CHL1  H12B 3363   3.679   0.026   7.918 -0.4401 -0.5224 -1.0224
   46CHL1   C11 3364   3.584  -0.076   7.750  0.3654  0.2384 -0.2630
   46CHL1  H11A 3365   3.547  -0.181   7.744  2.5578 -0.5839 -0.3598
   46CHL1  H11B 3366   3.499  -0.005   7.761 -0.5757 -0.6288 -1.6558
   46CHL1    C9 3367   3.680  -0.069   7.629 -0.4286 -0.2542 -0.2995
   46CHL1    H9 3368   3.710   0.037   7.619  0.2650 -0.5059 -1.0038
   46CHL1   C10 3369   3.614  -0.089   7.486  0.0343  0.0405 -0.2122
   46CHL1   C19 3370   3.553  -0.231   7.473  0.1832  0.2668 -0.0594
   46CHL1  H19A 3371   3.633  -0.307   7.481  1.1906  1.0826 -1.7950
   46CHL1  H19B 3372   3.470  -0.244   7.546  0.2592  1.7411  0.3316
   46CHL1  H19C 3373   3.514  -0.248   7.371 -0.6659  0.1538  0.2685
   46CHL1    C1 3374   3.515   0.022   7.468  0.0925  0.2195  0.0624
   46CHL1   H1A 3375   3.434  -0.011   7.536  1.0317 -1.0050  0.6352
   46CHL1   H1B 3376   3.548   0.123   7.500  0.2723  0.0154  0.5351
   46CHL1    C2 3377   3.470   0.035   7.321  0.4335  0.5270  0.9082
   46CHL1   H2A 3378   3.393   0.114   7.318  0.6157  0.6795  0.0094
   46CHL1   H2B 3379   3.420  -0.061   7.295  1.1845 -0.1798  1.9604
   46CHL1   C20 3380   3.829  -0.211   8.154 -0.4839 -0.0755  0.1663
   46CHL1   H20 3381   3.832  -0.320   8.136 -2.5801  0.1267 -1.8241
   46CHL1   C21 3382   3.691  -0.172   8.198 -0.5414  0.2482  0.2954
   46CHL1  H21A 3383   3.694  -0.164   8.309  1.6674 -1.7061  0.4674
   46CHL1  H21B 3384   3.623  -0.257   8.172 -0.8926  1.4382 -3.3048
   46CHL1  H21C 3385   3.647  -0.080   8.154 -0.7274  0.4099  0.8180
   46CHL1   C22 3386   3.927  -0.157   8.270  0.2152 -0.0453  0.5553
   46CHL1  H22A 3387   4.029  -0.185   8.238  0.2275 -0.3055  0.8238
   46CHL1  H22B 3388   3.926  -0.046   8.281  4.3077  0.3286 -1.0248
   46CHL1   C23 3389   3.904  -0.216   8.412  0.5384 -0.7893  0.4828
   46CHL1  H23A 3390   3.871  -0.133   8.478  0.9604  0.1827 -0.5038
   46CHL1  H23B 3391   3.829  -0.298   8.410 -1.8695  1.3208 -0.4381
   46CHL1   C24 3392   4.034  -0.267   8.474 -0.6842 -0.3873 -0.5416
   46CHL1  H24A 3393   4.064  -0.366   8.433  2.4834 -0.2413  1.1573
   46CHL1  H24B 3394   4.121  -0.198   8.474 -1.1164  0.1676  0.0713
   46CHL1   C25 3395   4.013  -0.299   8.632 -0.1173  0.5162  0.1931
   46CHL1   H25 3396   3.932  -0.234   8.673 -1.5169  0.5149 -2.3238
   46CHL1   C26 3397   3.966  -0.444   8.650 -0.1552  0.3826  0.3531
   46CHL1  H26A 3398   4.052  -0.506   8.617  0.2205  1.3416 -0.5312
   46CHL1  H26B 3399   3.932  -0.454   8.755 -1.8127 -0.6363 -0.2457
   46CHL1  H26C 3400   3.880  -0.466   8.583  1.3229  0.3093 -1.6273
   46CHL1   C27 3401   4.139  -0.281   8.726 -0.2600 -0.2935  0.3157
   46CHL1  H27A 3402   4.110  -0.296   8.832  1.1080  0.7537  0.8692
   46CHL1  H27B 3403   4.219  -0.348   8.689 -1.4841 -0.4217 -2.3475
   46CHL1  H27C 3404   4.159  -0.172   8.712 -2.2946  0.0564 -0.2458
   47CHL1    C3 3405   2.385   6.693   7.024 -0.5949  0.3317 -0.1026
   47CHL1    H3 3406   2.405   6.800   7.001 -1.4338  0.3576 -0.7622
   47CHL1    O3 3407   2.384   6.625   6.907  0.4489 -0.0856  0.3554
   47CHL1   H3' 3408   2.376   6.535   6.938 -0.6659  0.0977  0.6670
   47CHL1    C4 3409   2.495   6.637   7.120  0.4357 -0.3697 -0.1092
   47CHL1   H4A 3410   2.492   6.528   7.140 -1.7980 -0.0027  1.9899
   47CHL1   H4B 3411   2.594   6.663   7.076  0.4356  1.4609  0.8814
   47CHL1    C5 3412   2.499   6.705   7.254 -0.1460  0.6626 -0.0283
   47CHL1    C6 3413   2.603   6.758   7.316 -0.5708  0.5254 -0.2269
   47CHL1    H6 3414   2.701   6.751   7.265 -0.3149  1.4873  0.1130
   47CHL1    C7 3415   2.603   6.811   7.459 -0.1749  0.0412  0.4609
   47CHL1   H7A 3416   2.688   6.767   7.516  0.6121  1.6351  0.5795
   47CHL1   H7B 3417   2.613   6.922   7.465  0.5251  0.0949 -1.1558
   47CHL1    C8 3418   2.476   6.762   7.533 -0.4935  0.0665  0.4608
   47CHL1    H8 3419   2.483   6.653   7.554 -0.5793 -0.2951 -1.2538
   47CHL1   C14 3420   2.465   6.839   7.659  0.6227 -0.0916 -0.2718
   47CHL1   H14 3421   2.458   6.947   7.634  2.6394 -0.3381 -2.2022
   47CHL1   C15 3422   2.581   6.823   7.756  0.2987  1.0047 -0.1978
   47CHL1  H15A 3423   2.622   6.720   7.761  1.4640  1.4545 -0.2616
   47CHL1  H15B 3424   2.674   6.877   7.731  1.8081 -0.9667  0.8561
   47CHL1   C16 3425   2.523   6.876   7.889 -0.5856 -0.3669  0.2120
   47CHL1  H16A 3426   2.557   6.797   7.960  0.2250  0.0310  0.2801
   47CHL1  H16B 3427   2.580   6.964   7.926  1.5139 -2.5635  2.6380
   47CHL1   C17 3428   2.372   6.894   7.867 -0.1455 -0.5055 -0.8205
   47CHL1   H17 3429   2.357   7.000   7.839 -0.6648 -0.7481 -1.4994
   47CHL1   C13 3430   2.344   6.813   7.741  0.0560  0.7062 -0.4439
   47CHL1   C18 3431   2.330   6.657   7.781 -0.7162 -0.1905  0.2377
   47CHL1  H18A 3432   2.237   6.651   7.842 -0.9950  0.6111 -0.0932
   47CHL1  H18B 3433   2.319   6.589   7.694 -0.7098 -2.7084  2.1110
   47CHL1  H18C 3434   2.416   6.625   7.844  0.1744 -0.3872 -1.0418
   47CHL1   C12 3435   2.221   6.852   7.661  0.0254  0.3113  0.1450
   47CHL1  H12A 3436   2.129   6.828   7.719  0.3116  1.3657  1.0569
   47CHL1  H12B 3437   2.236   6.959   7.637  0.0654  0.3034  0.1349
   47CHL1   C11 3438   2.214   6.780   7.528 -0.3975  0.5985 -0.5207
   47CHL1  H11A 3439   2.187   6.675   7.555 -1.5654  0.7209 -1.1364
   47CHL1  H11B 3440   2.125   6.826   7.479 -1.1484  1.2448  1.3702
   47CHL1    C9 3441   2.350   6.784   7.449 -0.2491 -0.1178  0.2271
   47CHL1    H9 3442   2.355   6.891   7.418 -0.2209 -0.4913 -1.1145
   47CHL1   C10 3443   2.354   6.700   7.325 -0.0333  0.6020 -0.2779
   47CHL1   C19 3444   2.313   6.552   7.346 -0.4369  1.1649 -0.5703
   47CHL1  H19A 3445   2.343   6.528   7.450 -0.1821  2.4352 -0.3259
   47CHL1  H19B 3446   2.203   6.533   7.348  0.0255 -1.8300  1.0473
   47CHL1  H19C 3447   2.354   6.476   7.276 -1.3619 -0.0086  0.1170
   47CHL1    C1 3448   2.246   6.762   7.223  0.0478  0.4030  0.6248
   47CHL1   H1A 3449   2.143   6.745   7.262 -0.2536 -1.9347 -1.0288
   47CHL1   H1B 3450   2.268   6.871   7.227  0.1239  0.4618 -0.8184
   47CHL1    C2 3451   2.247   6.704   7.080  0.1910 -0.0550 -0.2308
   47CHL1   H2A 3452   2.189   6.761   7.005  2.2820  1.0177 -1.0991
   47CHL1   H2B 3453   2.214   6.598   7.087 -0.1921  0.1139  0.7134
   47CHL1   C20 3454   2.305   6.882   7.997  0.6772 -0.1938 -0.4935
   47CHL1   H20 3455   2.317   6.777   8.031  2.8918 -0.3020 -1.5004
   47CHL1   C21 3456   2.154   6.908   7.981 -0.5578  0.0484 -0.4654
   47CHL1  H21A 3457   2.112   6.925   8.082  1.8173 -0.2508  0.6307
   47CHL1  H21B 3458   2.113   6.821   7.926 -1.0191 -0.5110  0.7187
   47CHL1  H21C 3459   2.137   6.998   7.919 -3.0209 -1.5633 -2.3472
   47CHL1   C22 3460   2.356   6.970   8.107 -0.4516 -0.8397  0.1115
   47CHL1  H22A 3461   2.466   6.986   8.112 -0.4621 -0.3352 -0.9574
   47CHL1  H22B 3462   2.312   7.072   8.099  1.0655 -0.1491  0.2419
   47CHL1   C23 3463   2.318   6.928   8.243  0.7363  0.0710  0.2261
   47CHL1  H23A 3464   2.208   6.921   8.261  0.4081  1.3549 -1.0957
   47CHL1  H23B 3465   2.374   6.833   8.255  0.8241  0.1298  0.2776
   47CHL1   C24 3466   2.361   7.017   8.360 -0.2009  0.1176  0.1979
   47CHL1  H24A 3467   2.470   6.995   8.363 -0.8002 -3.3436  1.5436
   47CHL1  H24B 3468   2.354   7.128   8.352  1.7627  0.2484 -0.0570
   47CHL1   C25 3469   2.305   6.980   8.504  0.2918  0.2408 -0.6425
   47CHL1   H25 3470   2.334   7.066   8.567 -0.9881  0.1846  0.0542
   47CHL1   C26 3471   2.148   6.985   8.522  0.0267  0.2451 -0.1084
   47CHL1  H26A 3472   2.129   6.957   8.628  0.9022  0.3402  0.0828
   47CHL1  H26B 3473   2.099   7.084   8.508 -1.6892 -0.6663 -0.8247
   47CHL1  H26C 3474   2.098   6.914   8.453 -0.3750 -0.7571  1.1775
   47CHL1   C27 3475   2.351   6.841   8.557  0.1139 -0.3327  0.0157
   47CHL1  H27A 3476   2.325   6.753   8.495 -1.3534  0.1601 -0.1099
   47CHL1  H27B 3477   2.461   6.859   8.565  0.1676 -1.3244  2.2784
   47CHL1  H27C 3478   2.309   6.827   8.659  0.1941 -1.5861 -0.1041
   48CHL1    C3 3479   5.853   0.657   6.668 -0.9119  0.3293  0.1675
   48CHL1    H3 3480   5.821   0.551   6.659 -0.3134  0.2761 -1.5748
   48CHL1    O3 3481   5.874   0.708   6.537  0.3121 -0.1029 -0.1874
   48CHL1   H3' 3482   5.966   0.734   6.534 -0.3142  2.3628 -3.0542
   48CHL1    C4 3483   5.739   0.731   6.734  0.4753  0.0192  1.6606
   48CHL1   H4A 3484   5.746   0.839   6.709  3.9566 -0.9471 -2.9004
   48CHL1   H4B 3485   5.656   0.707   6.663  1.3342  1.5995  0.0407
   48CHL1    C5 3486   5.734   0.698   6.880 -0.1803  0.6054  0.3770
   48CHL1    C6 3487   5.623   0.648   6.937  0.1968  0.1207  0.6886
   48CHL1    H6 3488   5.530   0.634   6.879  1.4389 -4.6938 -0.5661
   48CHL1    C7 3489   5.609   0.622   7.082  0.5466 -0.2829  0.0182
   48CHL1   H7A 3490   5.514   0.670   7.113  1.1307  1.7240 -1.1222
   48CHL1   H7B 3491   5.604   0.514   7.107 -0.1608  0.2972  2.7385
   48CHL1    C8 3492   5.724   0.682   7.165  0.3367  0.0303 -0.3025
   48CHL1    H8 3493   5.708   0.792   7.158 -0.7500 -0.0942  0.0366
   48CHL1   C14 3494   5.719   0.631   7.306  0.4137  0.0915  0.1586
   48CHL1   H14 3495   5.736   0.521   7.301  0.9126  0.1117  1.1691
   48CHL1   C15 3496   5.587   0.648   7.378  0.2721  0.6434 -0.3489
   48CHL1  H15A 3497   5.552   0.752   7.365 -0.1037  0.5666  0.0148
   48CHL1  H15B 3498   5.511   0.581   7.333  1.8245 -0.2653 -1.7485
   48CHL1   C16 3499   5.633   0.608   7.522 -0.5948 -0.5974 -0.4967
   48CHL1  H16A 3500   5.594   0.691   7.585  2.1541  1.2757 -1.0986
   48CHL1  H16B 3501   5.609   0.507   7.563  0.0271 -0.5750 -0.0582
   48CHL1   C17 3502   5.786   0.625   7.533  0.3609 -0.6146 -0.7149
   48CHL1   H17 3503   5.833   0.525   7.539 -0.4968 -0.9505  0.9982
   48CHL1   C13 3504   5.823   0.691   7.400 -0.0350 -0.0971 -0.1834
   48CHL1   C18 3505   5.808   0.841   7.420 -0.3305 -0.4215  0.0906
   48CHL1  H18A 3506   5.903   0.884   7.459  0.6026 -1.0407 -1.4008
   48CHL1  H18B 3507   5.792   0.882   7.318 -2.2367  0.5599  0.7316
   48CHL1  H18C 3508   5.726   0.879   7.484 -0.2705 -0.2552  0.0678
   48CHL1   C12 3509   5.963   0.646   7.348  0.0205 -0.2394  0.0050
   48CHL1  H12A 3510   6.046   0.680   7.413 -0.8313 -1.6290  1.9057
   48CHL1  H12B 3511   5.969   0.535   7.347  1.6698 -0.1650 -0.0225
   48CHL1   C11 3512   5.980   0.694   7.195 -0.9193  0.3500 -0.1644
   48CHL1  H11A 3513   5.986   0.803   7.215 -3.3232  0.2954  1.2702
   48CHL1  H11B 3514   6.078   0.656   7.161 -1.1821 -0.1081 -0.4070
   48CHL1    C9 3515   5.862   0.653   7.105  0.4916  0.6133  0.0027
   48CHL1    H9 3516   5.872   0.544   7.086 -3.0288  0.3120 -0.7347
   48CHL1   C10 3517   5.867   0.707   6.963 -0.1323  0.0245 -0.0097
   48CHL1   C19 3518   5.909   0.858   6.963  1.1321 -0.3539  0.7338
   48CHL1  H19A 3519   5.898   0.909   6.865  3.9952 -2.4137 -0.7859
   48CHL1  H19B 3520   5.845   0.920   7.030  2.6232  2.0036  0.1180
   48CHL1  H19C 3521   6.017   0.873   6.985  2.1813 -3.3738 -1.6542
   48CHL1    C1 3522   5.980   0.626   6.881 -0.6887 -0.1549  0.0274
   48CHL1   H1A 3523   6.074   0.631   6.941 -0.9045 -0.0356  0.3624
   48CHL1   H1B 3524   5.958   0.517   6.887 -3.0024  0.2635 -0.2890
   48CHL1    C2 3525   5.995   0.666   6.734  0.3290 -0.1755  0.3899
   48CHL1   H2A 3526   6.070   0.601   6.684 -0.8290 -1.1095 -0.1559
   48CHL1   H2B 3527   6.023   0.773   6.722 -0.7212  0.4521  2.7924
   48CHL1   C20 3528   5.823   0.684   7.670 -0.2631  0.2606  0.4011
   48CHL1   H20 3529   5.778   0.785   7.681 -0.7085  0.2559 -1.1531
   48CHL1   C21 3530   5.975   0.704   7.682  0.0865  0.0996  0.3161
   48CHL1  H21A 3531   6.007   0.763   7.771  0.3318 -2.3493  1.9319
   48CHL1  H21B 3532   6.023   0.760   7.598 -1.4214  2.5238  0.9813
   48CHL1  H21C 3533   6.011   0.599   7.687 -0.8115 -0.2119  0.3850
   48CHL1   C22 3534   5.762   0.608   7.790 -0.1578 -0.3071  0.0208
   48CHL1  H22A 3535   5.652   0.605   7.779 -0.2241  0.8430  0.2877
   48CHL1  H22B 3536   5.791   0.501   7.778 -1.5967 -0.7109 -0.0572
   48CHL1   C23 3537   5.788   0.671   7.922  0.1596 -0.1988 -0.5599
   48CHL1  H23A 3538   5.895   0.654   7.947 -0.4221 -1.1356  1.5320
   48CHL1  H23B 3539   5.765   0.779   7.909  0.7475  0.2741  1.8044
   48CHL1   C24 3540   5.707   0.617   8.038  0.2806  0.3381 -0.2618
   48CHL1  H24A 3541   5.607   0.666   8.034  0.4306  0.7991  1.2923
   48CHL1  H24B 3542   5.696   0.506   8.034 -3.4183  0.4719  1.5502
   48CHL1   C25 3543   5.763   0.637   8.175  0.2103  0.7700 -0.3659
   48CHL1   H25 3544   5.863   0.588   8.184 -0.9480 -1.5570  0.8656
   48CHL1   C26 3545   5.786   0.787   8.216 -0.0341  0.5084 -0.1712
   48CHL1  H26A 3546   5.864   0.828   8.148 -0.5148  1.1127 -0.3621
   48CHL1  H26B 3547   5.697   0.853   8.212  0.9352  2.1381  2.4997
   48CHL1  H26C 3548   5.828   0.783   8.319  0.7255  0.0991 -0.4866
   48CHL1   C27 3549   5.678   0.568   8.283  0.4186  0.1876 -0.5256
   48CHL1  H27A 3550   5.670   0.459   8.266  2.7220 -0.4663  1.8773
   48CHL1  H27B 3551   5.735   0.593   8.375  1.1037  1.5837 -1.3014
   48CHL1  H27C 3552   5.583   0.626   8.291  0.3342  0.1280 -1.0947
   49CHL1    C3 3553   5.136   2.731   7.106  0.4418  0.2348 -0.3547
   49CHL1    H3 3554   5.029   2.731   7.137  0.8152 -0.7089  0.9898
   49CHL1    O3 3555   5.135   2.730   6.966  0.4664 -0.1033  0.0854
   49CHL1   H3' 3556   5.225   2.725   6.933  0.3031  1.1612 -0.6246
   49CHL1    C4 3557   5.217   2.858   7.153 -0.2797 -0.1535  0.4455
   49CHL1   H4A 3558   5.311   2.882   7.099 -1.9614 -0.8235 -3.1212
   49CHL1   H4B 3559   5.151   2.945   7.132 -0.3814 -0.1056  0.9477
   49CHL1    C5 3560   5.243   2.859   7.301 -1.1947 -0.2187  0.2029
   49CHL1    C6 3561   5.216   2.964   7.381  0.1568 -0.0233  0.2098
   49CHL1    H6 3562   5.168   3.053   7.338 -1.7550 -1.3191 -0.4868
   49CHL1    C7 3563   5.260   2.977   7.521 -0.9142  0.8468  0.5263
   49CHL1   H7A 3564   5.306   3.076   7.540 -0.0710  0.8914 -1.5100
   49CHL1   H7B 3565   5.176   2.967   7.594  0.4455  2.2373  2.3709
   49CHL1    C8 3566   5.363   2.860   7.557  0.6746 -0.1000  0.5320
   49CHL1    H8 3567   5.459   2.886   7.508 -0.0849 -0.1345 -1.0225
   49CHL1   C14 3568   5.365   2.855   7.709 -0.4003 -0.5683  0.2056
   49CHL1   H14 3569   5.266   2.825   7.748 -1.1605  1.8212  0.2774
   49CHL1   C15 3570   5.392   2.988   7.784  0.0669  0.3359 -0.5518
   49CHL1  H15A 3571   5.472   3.046   7.733  1.3186  1.7443  2.7398
   49CHL1  H15B 3572   5.299   3.047   7.797  0.1458  0.6532 -1.3830
   49CHL1   C16 3573   5.455   2.941   7.915  1.0083 -0.1800 -0.1269
   49CHL1  H16A 3574   5.558   2.980   7.919  1.0139 -0.3034  1.4898
   49CHL1  H16B 3575   5.406   2.986   8.004  1.2587 -0.2236  0.0342
   49CHL1   C17 3576   5.450   2.788   7.916  0.2850  0.0705 -0.2215
   49CHL1   H17 3577   5.352   2.750   7.952  1.4466 -1.0920  1.9706
   49CHL1   C13 3578   5.458   2.751   7.770 -1.2723  0.2630 -0.3695
   49CHL1   C18 3579   5.605   2.771   7.716 -0.0945 -0.0519  0.0855
   49CHL1  H18A 3580   5.667   2.853   7.759 -1.0080  1.2954 -1.1130
   49CHL1  H18B 3581   5.668   2.680   7.730  1.1712  0.4855 -1.7073
   49CHL1  H18C 3582   5.607   2.790   7.607 -1.3772  1.7940  0.3353
   49CHL1   C12 3583   5.400   2.614   7.725 -0.4960 -0.3590  0.0300
   49CHL1  H12A 3584   5.464   2.534   7.768 -0.8414 -3.0468 -3.9282
   49CHL1  H12B 3585   5.298   2.609   7.767 -0.2723  3.0146  1.3520
   49CHL1   C11 3586   5.393   2.613   7.571  0.4380  0.6019  0.1439
   49CHL1  H11A 3587   5.495   2.617   7.529 -0.5679 -0.6401 -2.6789
   49CHL1  H11B 3588   5.342   2.517   7.545  0.9857  0.4540 -0.4106
   49CHL1    C9 3589   5.311   2.726   7.508  0.4817 -0.5624  0.5878
   49CHL1    H9 3590   5.207   2.712   7.543  0.4749 -2.0306  0.0143
   49CHL1   C10 3591   5.306   2.723   7.348  0.3553  0.5180 -0.7316
   49CHL1   C19 3592   5.448   2.704   7.292  0.3021  0.3163 -0.6031
   49CHL1  H19A 3593   5.481   2.600   7.313  0.9638  0.7858  0.7966
   49CHL1  H19B 3594   5.461   2.730   7.185 -0.6850  0.3664 -0.7226
   49CHL1  H19C 3595   5.520   2.766   7.349  3.2342 -4.3974  1.4068
   49CHL1    C1 3596   5.215   2.597   7.303  0.3873  0.0038 -0.1588
   49CHL1   H1A 3597   5.270   2.504   7.327 -1.3057 -1.4157 -1.4803
   49CHL1   H1B 3598   5.121   2.606   7.361  1.3754  0.6834  1.3949
   49CHL1    C2 3599   5.200   2.601   7.150 -0.7072  0.3100 -0.3546
   49CHL1   H2A 3600   5.120   2.532   7.115 -0.7636  0.1907  0.0083
   49CHL1   H2B 3601   5.299   2.595   7.100 -0.7430  1.2814 -0.5779
   49CHL1   C20 3602   5.566   2.730   8.012  0.8123 -0.6048  0.1356
   49CHL1   H20 3603   5.666   2.747   7.967  0.7120  0.1972  0.2096
   49CHL1   C21 3604   5.556   2.580   8.015  0.0010 -0.2285 -0.1893
   49CHL1  H21A 3605   5.612   2.530   7.933  0.0623 -1.2663  0.4762
   49CHL1  H21B 3606   5.451   2.545   8.016 -0.0101 -0.2134 -0.6264
   49CHL1  H21C 3607   5.600   2.543   8.110 -1.3724  0.8801  0.9285
   49CHL1   C22 3608   5.564   2.787   8.154  0.0281 -0.9906 -0.1609
   49CHL1  H22A 3609   5.646   2.740   8.212 -1.2740 -1.7172  1.1334
   49CHL1  H22B 3610   5.584   2.897   8.160  0.6503 -1.0172 -1.3691
   49CHL1   C23 3611   5.428   2.768   8.226  0.4615 -0.2553 -0.0223
   49CHL1  H23A 3612   5.352   2.808   8.156 -0.4890 -2.7968 -0.5475
   49CHL1  H23B 3613   5.414   2.659   8.237  2.1957 -0.3061  2.2004
   49CHL1   C24 3614   5.423   2.831   8.367  0.9697  0.0525 -0.2318
   49CHL1  H24A 3615   5.496   2.775   8.430 -1.1647 -1.0845  1.3316
   49CHL1  H24B 3616   5.452   2.938   8.366 -1.0745  0.6417 -0.0354
   49CHL1   C25 3617   5.290   2.818   8.454  0.8468 -0.7667 -0.6507
   49CHL1   H25 3618   5.198   2.858   8.406  2.0574  1.4233 -1.2513
   49CHL1   C26 3619   5.264   2.669   8.491  0.1312 -0.3117 -0.0790
   49CHL1  H26A 3620   5.253   2.611   8.397  0.0430 -0.5541  0.0810
   49CHL1  H26B 3621   5.345   2.621   8.548  0.5436  0.7897  0.2873
   49CHL1  H26C 3622   5.164   2.658   8.539  0.9542  0.3328  1.8559
   49CHL1   C27 3623   5.307   2.889   8.589 -0.3737  0.0434  1.4303
   49CHL1  H27A 3624   5.210   2.890   8.644 -1.4936 -1.6804 -0.3463
   49CHL1  H27B 3625   5.382   2.838   8.652  0.0626 -0.7093  0.3422
   49CHL1  H27C 3626   5.347   2.993   8.584 -0.4610  0.0344 -0.1407
   50CHL1    C3 3627   4.707   3.055   6.977  0.4559  0.7293 -0.0924
   50CHL1    H3 3628   4.806   3.023   6.940 -0.1874  1.3376 -2.4947
   50CHL1    O3 3629   4.619   3.077   6.869 -0.7646  0.0531 -0.2110
   50CHL1   H3' 3630   4.542   3.114   6.913  0.9933  1.9532  1.5151
   50CHL1    C4 3631   4.640   2.943   7.069  0.4724 -0.4545  0.6396
   50CHL1   H4A 3632   4.530   2.943   7.075  0.3777  2.0126  0.0605
   50CHL1   H4B 3633   4.673   2.854   7.012 -2.1705 -1.1357  0.0494
   50CHL1    C5 3634   4.695   2.931   7.207 -0.6204  0.4693  0.1443
   50CHL1    C6 3635   4.726   2.811   7.266 -0.5348  0.2748  0.2459
   50CHL1    H6 3636   4.704   2.718   7.210 -0.1985 -0.9281  2.0252
   50CHL1    C7 3637   4.768   2.785   7.405 -0.0660  0.9306  0.1668
   50CHL1   H7A 3638   4.712   2.704   7.457  2.0414  0.4251  1.8013
   50CHL1   H7B 3639   4.873   2.752   7.395 -0.3415  0.6113 -2.6112
   50CHL1    C8 3640   4.768   2.918   7.485  0.2189  0.5687 -0.1316
   50CHL1    H8 3641   4.664   2.935   7.519 -0.5174 -3.4621  0.1797
   50CHL1   C14 3642   4.865   2.909   7.603 -0.0857  0.1435  0.5403
   50CHL1   H14 3643   4.966   2.894   7.561 -0.3689 -0.7266  0.1496
   50CHL1   C15 3644   4.845   2.789   7.702  0.3101 -1.0629  0.2118
   50CHL1  H15A 3645   4.739   2.790   7.736  1.3716 -0.7602  4.0502
   50CHL1  H15B 3646   4.875   2.694   7.653  3.2672  0.0574 -0.3673
   50CHL1   C16 3647   4.924   2.839   7.821 -0.8939  0.5257  0.0954
   50CHL1  H16A 3648   4.866   2.811   7.911  3.1305 -2.6175  1.9933
   50CHL1  H16B 3649   5.016   2.777   7.829 -0.4253  1.0694 -0.8150
   50CHL1   C17 3650   4.958   2.987   7.807  0.0876 -0.8221 -0.0048
   50CHL1   H17 3651   5.060   2.992   7.762 -0.3407 -0.3221 -0.9639
   50CHL1   C13 3652   4.866   3.038   7.693  0.6660 -0.4881  0.3083
   50CHL1   C18 3653   4.734   3.066   7.755  0.0490 -0.1949  0.1195
   50CHL1  H18A 3654   4.734   3.174   7.781  1.0371 -0.7709  2.8065
   50CHL1  H18B 3655   4.647   3.043   7.690  2.2924 -2.8201 -2.2395
   50CHL1  H18C 3656   4.713   3.011   7.849 -2.4013 -0.5334 -0.5446
   50CHL1   C12 3657   4.915   3.158   7.605 -0.2953  0.5169  0.8327
   50CHL1  H12A 3658   4.929   3.256   7.655 -0.4025  0.7313  0.4479
   50CHL1  H12B 3659   5.020   3.133   7.580 -0.5979 -1.4054  1.3505
   50CHL1   C11 3660   4.826   3.181   7.481  0.1908 -0.1228 -0.1538
   50CHL1  H11A 3661   4.731   3.231   7.510  0.5560  1.8408 -2.1060
   50CHL1  H11B 3662   4.881   3.254   7.417  2.0591 -2.0456 -0.8452
   50CHL1    C9 3663   4.811   3.041   7.403  0.0134 -0.2705  0.6594
   50CHL1    H9 3664   4.914   3.025   7.366  0.6939 -0.9547  2.6900
   50CHL1   C10 3665   4.723   3.068   7.275 -0.6693 -0.2264 -0.4166
   50CHL1   C19 3666   4.581   3.107   7.319  0.6664 -0.4146 -0.3385
   50CHL1  H19A 3667   4.506   3.092   7.238 -0.8790 -0.7678  1.0943
   50CHL1  H19B 3668   4.538   3.054   7.407  0.7876 -2.6218 -1.5385
   50CHL1  H19C 3669   4.588   3.214   7.348  0.5894 -1.0423  2.2489
   50CHL1    C1 3670   4.790   3.168   7.185  0.1294 -0.7490 -0.2903
   50CHL1   H1A 3671   4.785   3.274   7.216  0.6893 -0.1064 -2.2411
   50CHL1   H1B 3672   4.899   3.151   7.172 -0.0208 -1.6747 -0.4106
   50CHL1    C2 3673   4.718   3.190   7.048  0.2288  0.1676 -0.2234
   50CHL1   H2A 3674   4.770   3.262   6.981 -1.9831  1.1677 -0.9655
   50CHL1   H2B 3675   4.613   3.218   7.068 -0.0656 -1.0111 -0.0383
   50CHL1   C20 3676   4.968   3.062   7.944 -0.9189  0.4143 -0.0684
   50CHL1   H20 3677   4.877   3.074   8.008  0.3869  1.4965  1.6799
   50CHL1   C21 3678   5.009   3.209   7.915  0.2546 -0.4353  0.3497
   50CHL1  H21A 3679   4.925   3.257   7.859 -0.5605 -1.9043  0.2374
   50CHL1  H21B 3680   5.106   3.218   7.862  0.4221 -0.0602  0.7231
   50CHL1  H21C 3681   5.018   3.273   8.004 -1.0456  1.0324 -0.5110
   50CHL1   C22 3682   5.070   2.987   8.034  0.2377  0.8626  0.1713
   50CHL1  H22A 3683   5.029   2.887   8.061  0.1501  1.1611  1.1909
   50CHL1  H22B 3684   5.160   2.980   7.970 -0.1667 -0.1649 -0.3082
   50CHL1   C23 3685   5.107   3.049   8.171  0.3666  0.3067 -0.3198
   50CHL1  H23A 3686   5.200   3.000   8.208 -0.1080  2.1761  3.9077
   50CHL1  H23B 3687   5.141   3.152   8.146 -0.0499  0.3577 -0.6962
   50CHL1   C24 3688   5.004   3.036   8.287  0.2541 -0.1734  0.6625
   50CHL1  H24A 3689   4.907   3.084   8.260 -0.9222 -1.6911  1.9706
   50CHL1  H24B 3690   4.977   2.930   8.309 -1.6277 -0.2371 -1.5244
   50CHL1   C25 3691   5.046   3.113   8.413  0.3302 -0.3839 -0.0444
   50CHL1   H25 3692   5.143   3.066   8.439  0.0128 -0.9611  0.1050
   50CHL1   C26 3693   5.049   3.269   8.400  0.3504 -0.6494 -0.3299
   50CHL1  H26A 3694   4.948   3.312   8.382 -0.0751 -0.6870  1.6883
   50CHL1  H26B 3695   5.093   3.312   8.492 -2.7349 -1.4537  1.6917
   50CHL1  H26C 3696   5.112   3.289   8.311 -2.1599 -4.0312 -3.1775
   50CHL1   C27 3697   4.944   3.081   8.521 -0.3301  0.9753 -0.1660
   50CHL1  H27A 3698   4.845   3.075   8.472  0.4237 -1.6402 -1.5530
   50CHL1  H27B 3699   4.962   2.979   8.563 -2.1565  0.6035 -0.2356
   50CHL1  H27C 3700   4.953   3.157   8.602 -0.7605 -0.8086  1.6328
   51CHL1    C3 3701   1.170   2.092   6.779 -0.1910  0.8802  0.1781
   51CHL1    H3 3702   1.265   2.148   6.783 -0.7840  1.8537  2.1154
   51CHL1    O3 3703   1.165   2.020   6.653  0.2166  0.2744  0.2343
   51CHL1   H3' 3704   1.085   1.969   6.663 -1.4475  2.4759 -0.9886
   51CHL1    C4 3705   1.180   1.980   6.889 -0.1761  0.4834  0.3993
   51CHL1   H4A 3706   1.113   1.893   6.882  1.8034 -1.2553  1.7668
   51CHL1   H4B 3707   1.275   1.929   6.863  0.4660  1.9716 -0.3278
   51CHL1    C5 3708   1.168   2.039   7.029 -0.1003  0.0759  0.4775
   51CHL1    C6 3709   1.254   2.009   7.127  0.2544  0.2161  0.1271
   51CHL1    H6 3710   1.335   1.938   7.106  0.8272  0.4205  1.5608
   51CHL1    C7 3711   1.240   2.052   7.271 -0.7513  0.0880  0.1222
   51CHL1   H7A 3712   1.267   1.969   7.340  0.4661  0.8244  0.5755
   51CHL1   H7B 3713   1.315   2.129   7.299  0.1761 -0.5765 -0.5350
   51CHL1    C8 3714   1.101   2.111   7.309 -0.1451  0.2772  0.2569
   51CHL1    H8 3715   1.026   2.030   7.307  1.1933 -1.0095  0.3531
   51CHL1   C14 3716   1.101   2.173   7.446  0.3108 -0.3252 -0.0607
   51CHL1   H14 3717   1.177   2.254   7.440 -1.0889  1.0682  0.3632
   51CHL1   C15 3718   1.143   2.083   7.568 -0.5568  0.4559 -0.4145
   51CHL1  H15A 3719   1.095   1.983   7.574  0.4994  0.0086  1.6232
   51CHL1  H15B 3720   1.250   2.056   7.583 -0.4372  1.3178  0.3672
   51CHL1   C16 3721   1.092   2.158   7.686  0.5500  0.1830 -0.7420
   51CHL1  H16A 3722   1.023   2.083   7.730  1.2038  0.2299  0.3918
   51CHL1  H16B 3723   1.166   2.183   7.765 -1.3395 -0.4802  1.3296
   51CHL1   C17 3724   1.018   2.285   7.633  0.0649 -0.1866  0.0585
   51CHL1   H17 3725   1.092   2.367   7.635  0.8666 -0.9068  1.1331
   51CHL1   C13 3726   0.977   2.250   7.489 -0.1616 -0.1800  0.4188
   51CHL1   C18 3727   0.858   2.156   7.487  0.0975  0.1610 -0.4752
   51CHL1  H18A 3728   0.762   2.211   7.501 -1.3296 -2.0692 -0.9916
   51CHL1  H18B 3729   0.855   2.098   7.393  1.0481  0.5437 -0.7569
   51CHL1  H18C 3730   0.864   2.083   7.570 -2.2501  0.1563 -0.2366
   51CHL1   C12 3731   0.951   2.365   7.382  0.0651  0.2551  0.7984
   51CHL1  H12A 3732   0.854   2.415   7.405 -0.3930 -1.4035  2.7097
   51CHL1  H12B 3733   1.031   2.440   7.401  0.1651  0.5053 -0.5409
   51CHL1   C11 3734   0.943   2.310   7.239 -0.1077 -0.1070 -0.3776
   51CHL1  H11A 3735   0.845   2.258   7.231  0.8981 -2.2307  0.3987
   51CHL1  H11B 3736   0.939   2.391   7.164  1.2867  1.1036  0.7952
   51CHL1    C9 3737   1.060   2.210   7.200 -0.3487 -0.3320  0.0148
   51CHL1    H9 3738   1.150   2.275   7.196 -1.5449  1.5988  2.4359
   51CHL1   C10 3739   1.050   2.140   7.058  0.3131  0.2998  0.2251
   51CHL1   C19 3740   0.922   2.058   7.046  0.0834  0.3137  0.4229
   51CHL1  H19A 3741   0.911   2.024   6.941 -3.7944  1.5326  0.2960
   51CHL1  H19B 3742   0.931   1.968   7.110  1.9069  0.5139  0.5161
   51CHL1  H19C 3743   0.830   2.116   7.067 -0.7580 -0.7863 -0.1218
   51CHL1    C1 3744   1.048   2.246   6.944 -0.1563 -0.9056  0.3474
   51CHL1   H1A 3745   0.952   2.294   6.974 -1.5513 -3.9473  1.2100
   51CHL1   H1B 3746   1.130   2.315   6.971 -0.9991  1.1037 -1.8582
   51CHL1    C2 3747   1.052   2.195   6.797  0.8852  0.2058  0.2675
   51CHL1   H2A 3748   1.063   2.291   6.742  1.2352  1.4984  2.4561
   51CHL1   H2B 3749   0.956   2.149   6.767  1.0670 -0.0270  0.0469
   51CHL1   C20 3750   0.900   2.319   7.731 -0.5833 -0.4501  0.2915
   51CHL1   H20 3751   0.825   2.237   7.734 -2.8465  1.1534 -3.9046
   51CHL1   C21 3752   0.821   2.439   7.683  0.5102 -0.0147  0.5672
   51CHL1  H21A 3753   0.748   2.470   7.761  0.8208 -0.9637  1.2576
   51CHL1  H21B 3754   0.770   2.413   7.588  0.7420  0.5002  0.2947
   51CHL1  H21C 3755   0.902   2.512   7.660  0.9357 -0.2965  1.1379
   51CHL1   C22 3756   0.952   2.334   7.876  0.9379  0.5285 -0.2891
   51CHL1  H22A 3757   0.977   2.231   7.912 -2.3497 -1.5805 -3.4193
   51CHL1  H22B 3758   1.038   2.403   7.890 -0.2032  2.0372 -0.4779
   51CHL1   C23 3759   0.838   2.375   7.969  0.6092  0.3068 -0.3204
   51CHL1  H23A 3760   0.820   2.484   7.972  0.3406  0.2612 -0.2157
   51CHL1  H23B 3761   0.749   2.321   7.928 -0.0196  0.9267  0.2147
   51CHL1   C24 3762   0.848   2.333   8.118 -0.1502  0.1760  0.2083
   51CHL1  H24A 3763   0.868   2.224   8.117 -0.4253  0.1269 -0.7968
   51CHL1  H24B 3764   0.943   2.375   8.160 -0.6179  0.3816  1.0920
   51CHL1   C25 3765   0.731   2.365   8.209  0.2489 -0.5042 -0.2255
   51CHL1   H25 3766   0.645   2.312   8.163  0.3755 -0.4890 -0.4829
   51CHL1   C26 3767   0.759   2.300   8.347 -0.0970  0.7897  0.7156
   51CHL1  H26A 3768   0.663   2.301   8.404 -1.8147  3.4037 -1.8792
   51CHL1  H26B 3769   0.810   2.202   8.337 -0.6104  0.6574 -0.8522
   51CHL1  H26C 3770   0.835   2.362   8.399  1.4966 -0.1444 -0.4235
   51CHL1   C27 3771   0.705   2.513   8.223 -0.0942 -0.6284 -0.3044
   51CHL1  H27A 3772   0.801   2.563   8.247  1.1269 -2.1849 -1.7129
   51CHL1  H27B 3773   0.672   2.568   8.133 -0.7696 -0.2811  0.1395
   51CHL1  H27C 3774   0.634   2.531   8.307 -2.5139 -3.2366 -1.6244
   52CHL1    C3 3775   1.268   3.982   7.096  0.7493  0.0023  0.5232
   52CHL1    H3 3776   1.343   3.914   7.142  1.8037  1.3985  0.9211
   52CHL1    O3 3777   1.270   3.961   6.956  0.3745  0.2158 -0.0465
   52CHL1   H3' 3778   1.214   4.027   6.915 -0.6351 -1.9416 -2.3785
   52CHL1    C4 3779   1.132   3.972   7.144  0.3751 -0.5816  0.2751
   52CHL1   H4A 3780   1.067   4.055   7.108  1.1576 -0.0580  0.0385
   52CHL1   H4B 3781   1.081   3.878   7.114 -1.2593 -0.3322  2.0703
   52CHL1    C5 3782   1.111   3.991   7.292  0.3610  0.5041  0.6679
   52CHL1    C6 3783   1.073   3.893   7.367 -0.5511 -0.1458 -0.3824
   52CHL1    H6 3784   1.028   3.803   7.323  0.0683 -0.0427 -1.2545
   52CHL1    C7 3785   1.058   3.905   7.517 -0.3247  0.3484 -0.0640
   52CHL1   H7A 3786   0.958   3.869   7.549 -1.2513  1.2538 -1.8172
   52CHL1   H7B 3787   1.139   3.848   7.567  0.4176  2.1209  0.8217
   52CHL1    C8 3788   1.078   4.055   7.566  0.1697  0.2080 -1.1776
   52CHL1    H8 3789   0.987   4.119   7.561 -0.5600 -0.7636 -0.6101
   52CHL1   C14 3790   1.113   4.046   7.714 -0.3963  0.5777  0.9311
   52CHL1   H14 3791   1.208   3.988   7.710 -0.7269  0.0621  0.4031
   52CHL1   C15 3792   1.025   3.960   7.803  0.3255  0.0884  0.6108
   52CHL1  H15A 3793   0.919   3.990   7.786  0.2245 -0.6684 -0.1557
   52CHL1  H15B 3794   1.018   3.853   7.777  0.0942  0.3484 -0.4501
   52CHL1   C16 3795   1.080   3.981   7.947 -0.3959 -0.0484  0.5108
   52CHL1  H16A 3796   1.001   4.012   8.019 -0.4713  0.4844  0.2054
   52CHL1  H16B 3797   1.129   3.888   7.982 -1.0948 -1.1259 -1.2088
   52CHL1   C17 3798   1.185   4.093   7.928 -0.0726  0.0653 -0.7182
   52CHL1   H17 3799   1.280   4.038   7.909 -0.6716 -0.9230 -0.8692
   52CHL1   C13 3800   1.145   4.171   7.796 -0.3677  0.2813  0.1833
   52CHL1   C18 3801   1.019   4.261   7.821 -0.5131 -0.1896  0.2864
   52CHL1  H18A 3802   1.054   4.339   7.892 -0.4299  1.3960 -1.4305
   52CHL1  H18B 3803   0.989   4.313   7.727  2.3150 -0.5954 -0.9246
   52CHL1  H18C 3804   0.937   4.195   7.859  0.1305 -0.9378  0.4038
   52CHL1   C12 3805   1.253   4.250   7.713 -0.1991 -0.0462 -0.2188
   52CHL1  H12A 3806   1.260   4.355   7.751 -1.6597  0.4001 -1.0905
   52CHL1  H12B 3807   1.354   4.206   7.725 -1.0993 -1.9164  0.9971
   52CHL1   C11 3808   1.220   4.263   7.566 -0.3856  0.1754  0.5202
   52CHL1  H11A 3809   1.124   4.316   7.554 -0.9980 -0.3852  2.5889
   52CHL1  H11B 3810   1.292   4.316   7.499 -4.1247  2.0562 -2.3530
   52CHL1    C9 3811   1.196   4.124   7.494 -0.2413 -0.1309 -0.4026
   52CHL1    H9 3812   1.278   4.051   7.511 -1.9472 -1.5641  2.3738
   52CHL1   C10 3813   1.168   4.133   7.341 -1.3091 -0.2256  0.0056
   52CHL1   C19 3814   1.069   4.241   7.306  0.2604 -0.0160 -0.4152
   52CHL1  H19A 3815   0.969   4.222   7.352  0.3128  1.9287  0.6354
   52CHL1  H19B 3816   1.102   4.344   7.334  1.4765 -0.5781  0.2777
   52CHL1  H19C 3817   1.072   4.252   7.196  1.3515 -2.2155 -0.6489
   52CHL1    C1 3818   1.305   4.158   7.270  0.2183  0.5346  0.1814
   52CHL1   H1A 3819   1.332   4.265   7.282 -0.4369  0.6558  0.7113
   52CHL1   H1B 3820   1.376   4.086   7.316  0.3742 -0.0325 -0.9079
   52CHL1    C2 3821   1.312   4.131   7.114 -0.7300 -0.4053 -0.6492
   52CHL1   H2A 3822   1.420   4.153   7.095 -1.2884  1.2162 -2.3258
   52CHL1   H2B 3823   1.248   4.200   7.054 -1.5074 -0.0908  0.5242
   52CHL1   C20 3824   1.215   4.176   8.055 -0.5404  0.3368 -0.5121
   52CHL1   H20 3825   1.127   4.240   8.077 -1.0819 -0.2632 -0.9000
   52CHL1   C21 3826   1.345   4.254   8.033 -0.5025  0.3798  0.5231
   52CHL1  H21A 3827   1.317   4.328   7.955  0.3808  0.5264  0.3320
   52CHL1  H21B 3828   1.420   4.184   7.990 -0.9949  1.1641 -1.7615
   52CHL1  H21C 3829   1.390   4.309   8.118 -1.8504  1.4250  0.5888
   52CHL1   C22 3830   1.233   4.087   8.180  0.3289  0.1196  0.1280
   52CHL1  H22A 3831   1.158   4.006   8.175  2.1675 -1.6567 -0.0855
   52CHL1  H22B 3832   1.334   4.040   8.172  0.0723 -0.0656 -4.1214
   52CHL1   C23 3833   1.215   4.166   8.315 -0.0047  0.1210  0.0817
   52CHL1  H23A 3834   1.280   4.255   8.299  5.0914 -3.6722 -3.4950
   52CHL1  H23B 3835   1.105   4.187   8.316  0.0937  0.8086 -1.2789
   52CHL1   C24 3836   1.268   4.093   8.439  0.0328  0.5730 -0.2242
   52CHL1  H24A 3837   1.224   3.991   8.444 -0.5451  0.6773 -2.1739
   52CHL1  H24B 3838   1.376   4.067   8.432 -0.3896 -1.2678 -0.3053
   52CHL1   C25 3839   1.240   4.168   8.567  0.0133  0.3520 -0.1581
   52CHL1   H25 3840   1.249   4.277   8.552 -0.3914  0.7340  2.0939
   52CHL1   C26 3841   1.100   4.134   8.621 -0.7545 -0.4987 -0.2949
   52CHL1  H26A 3842   1.098   4.023   8.634 -1.4954 -0.7628 -2.3316
   52CHL1  H26B 3843   1.072   4.185   8.716 -2.8748 -1.2155 -0.4791
   52CHL1  H26C 3844   1.030   4.172   8.544  1.3801 -0.0681 -2.1311
   52CHL1   C27 3845   1.341   4.131   8.683 -0.5767  0.6444 -0.3104
   52CHL1  H27A 3846   1.345   4.208   8.762 -0.5145  0.7768 -0.4421
   52CHL1  H27B 3847   1.305   4.038   8.732 -1.4077  0.1971 -1.6851
   52CHL1  H27C 3848   1.443   4.113   8.644 -0.7303  1.0123 -0.9096
   53CHL1    C3 3849   4.025   0.981   7.342 -0.7464  0.9164  0.0613
   53CHL1    H3 3850   3.942   0.907   7.350 -1.1698  1.2242 -1.3051
   53CHL1    O3 3851   3.988   1.063   7.235  0.5044  0.6687 -0.2994
   53CHL1   H3' 3852   4.014   1.009   7.160  2.1387  0.1282  0.6077
   53CHL1    C4 3853   4.028   1.069   7.466 -0.5382  0.2458 -0.2969
   53CHL1   H4A 3854   4.100   1.151   7.447 -1.2093  0.8444 -0.3011
   53CHL1   H4B 3855   3.931   1.123   7.474 -0.2769  0.6689  0.0596
   53CHL1    C5 3856   4.063   0.996   7.592  0.4967  0.6307  0.2762
   53CHL1    C6 3857   3.984   0.982   7.696  0.1019 -0.4037  0.3852
   53CHL1    H6 3858   3.893   1.044   7.697  0.3160 -0.0526 -0.7932
   53CHL1    C7 3859   4.017   0.908   7.820 -0.6593  0.1908  0.0247
   53CHL1   H7A 3860   4.000   0.963   7.915  0.6294  2.3739 -0.9406
   53CHL1   H7B 3861   3.954   0.817   7.826  1.3467 -1.2627  0.3054
   53CHL1    C8 3862   4.165   0.850   7.825  0.0448 -0.5498 -0.1923
   53CHL1    H8 3863   4.231   0.936   7.851 -1.7410  1.4770 -2.0404
   53CHL1   C14 3864   4.182   0.741   7.934  0.8366 -0.7149 -0.1272
   53CHL1   H14 3865   4.111   0.659   7.908  0.7460 -1.2473  1.6921
   53CHL1   C15 3866   4.156   0.778   8.080 -0.1163  0.2688 -0.2331
   53CHL1  H15A 3867   4.212   0.873   8.088  1.6813 -0.8188  0.6990
   53CHL1  H15B 3868   4.050   0.786   8.112 -0.4905 -3.0429 -0.2786
   53CHL1   C16 3869   4.221   0.658   8.156 -0.1452 -0.6107 -0.7153
   53CHL1  H16A 3870   4.290   0.693   8.236 -1.8209 -0.7319  0.8543
   53CHL1  H16B 3871   4.148   0.596   8.213 -0.3335 -0.4949 -0.8293
   53CHL1   C17 3872   4.309   0.573   8.053 -0.4639 -0.2872 -0.3754
   53CHL1   H17 3873   4.246   0.488   8.020 -0.6652 -1.7636  3.3679
   53CHL1   C13 3874   4.318   0.665   7.934  1.1972 -0.1295 -0.2071
   53CHL1   C18 3875   4.431   0.768   7.952 -0.4772  0.3316  0.4939
   53CHL1  H18A 3876   4.524   0.728   7.906 -0.7110 -0.4425  0.6786
   53CHL1  H18B 3877   4.413   0.862   7.897  1.8942  0.0947 -0.8194
   53CHL1  H18C 3878   4.437   0.782   8.062 -1.1111 -0.1235  0.5959
   53CHL1   C12 3879   4.337   0.598   7.794 -0.2084 -0.0684  0.3883
   53CHL1  H12A 3880   4.426   0.534   7.779 -0.3218  0.3634 -2.8905
   53CHL1  H12B 3881   4.242   0.541   7.784 -0.5749  0.5681  0.1665
   53CHL1   C11 3882   4.326   0.704   7.685 -0.1321 -0.2545 -0.1952
   53CHL1  H11A 3883   4.417   0.765   7.698 -1.4945  1.3607  2.9542
   53CHL1  H11B 3884   4.331   0.646   7.591 -2.1653 -0.7508 -0.0473
   53CHL1    C9 3885   4.197   0.802   7.687  0.5007 -0.2500  0.2833
   53CHL1    H9 3886   4.112   0.734   7.663 -0.7328  1.4806 -0.4174
   53CHL1   C10 3887   4.190   0.905   7.572 -0.7986  0.3856  0.6359
   53CHL1   C19 3888   4.320   0.990   7.582 -0.2744 -0.3359  0.2045
   53CHL1  H19A 3889   4.297   1.088   7.534 -1.9560 -1.7662 -2.1607
   53CHL1  H19B 3890   4.352   1.003   7.688  0.2273 -1.8321  0.2566
   53CHL1  H19C 3891   4.399   0.935   7.527 -1.9030 -3.2278  0.5663
   53CHL1    C1 3892   4.188   0.833   7.438  0.1110 -0.0972 -0.0858
   53CHL1   H1A 3893   4.285   0.779   7.430  0.3802  0.1496  1.2798
   53CHL1   H1B 3894   4.117   0.748   7.442 -0.7424  0.5538 -0.9091
   53CHL1    C2 3895   4.163   0.920   7.315  0.2410 -0.2938 -0.2919
   53CHL1   H2A 3896   4.162   0.852   7.227  1.7829 -1.4358  0.5377
   53CHL1   H2B 3897   4.236   1.001   7.296  0.5488 -0.4353  0.2862
   53CHL1   C20 3898   4.431   0.513   8.124 -0.3503 -0.6167 -0.1352
   53CHL1   H20 3899   4.482   0.592   8.183  0.7173 -1.5345  0.2232
   53CHL1   C21 3900   4.533   0.453   8.029 -0.3169  0.3461  0.2438
   53CHL1  H21A 3901   4.574   0.532   7.964 -4.5003  1.9140 -0.8166
   53CHL1  H21B 3902   4.488   0.370   7.970 -0.1376 -0.5554  1.3433
   53CHL1  H21C 3903   4.618   0.406   8.083 -0.0545 -0.0882 -0.5224
   53CHL1   C22 3904   4.386   0.405   8.212  0.5705  0.0438  0.1732
   53CHL1  H22A 3905   4.295   0.425   8.273 -0.5052 -0.8988 -1.0903
   53CHL1  H22B 3906   4.352   0.323   8.146 -1.5322  2.1906 -1.5885
   53CHL1   C23 3907   4.491   0.373   8.319 -0.0570 -0.3443 -0.5089
   53CHL1  H23A 3908   4.576   0.315   8.277  1.1714  1.7423 -1.0677
   53CHL1  H23B 3909   4.534   0.470   8.351  0.0012 -0.4415 -0.2922
   53CHL1   C24 3910   4.429   0.307   8.444 -0.3990  0.4051  0.1607
   53CHL1  H24A 3911   4.334   0.353   8.474 -1.4446 -1.6030  0.1212
   53CHL1  H24B 3912   4.397   0.211   8.398  0.1772  0.3587 -0.1571
   53CHL1   C25 3913   4.515   0.263   8.557 -0.2523  0.5646 -0.1457
   53CHL1   H25 3914   4.567   0.349   8.605  0.7982  0.9648 -1.8889
   53CHL1   C26 3915   4.430   0.195   8.668 -0.8402 -0.1257 -0.0083
   53CHL1  H26A 3916   4.498   0.164   8.751 -0.5510  0.2568 -0.0955
   53CHL1  H26B 3917   4.356   0.270   8.702 -0.3374  1.0167 -1.3079
   53CHL1  H26C 3918   4.376   0.112   8.619 -2.2114  0.4967  0.4145
   53CHL1   C27 3919   4.631   0.168   8.516 -0.6148 -0.0761  0.3592
   53CHL1  H27A 3920   4.584   0.087   8.457 -0.9633  0.4903 -0.1551
   53CHL1  H27B 3921   4.706   0.227   8.458 -0.8017  0.8293  1.0038
   53CHL1  H27C 3922   4.686   0.133   8.606 -0.9218 -0.6979  0.3083
   54CHL1    C3 3923   3.904   2.339   7.173  0.0293  0.2867 -0.0071
   54CHL1    H3 3924   3.948   2.237   7.181 -0.4002  0.2099  1.7879
   54CHL1    O3 3925   3.877   2.364   7.040 -0.3193  0.3880 -0.0171
   54CHL1   H3' 3926   3.961   2.387   6.999  0.1495  1.7034  1.5832
   54CHL1    C4 3927   3.769   2.353   7.252  0.0865 -0.5343  0.3754
   54CHL1   H4A 3928   3.725   2.452   7.228 -0.5472 -1.0925 -0.8078
   54CHL1   H4B 3929   3.692   2.277   7.230 -3.0080  1.8863  1.9770
   54CHL1    C5 3930   3.795   2.357   7.400 -0.2878  0.8192 -0.6256
   54CHL1    C6 3931   3.733   2.273   7.484  1.1293 -0.3056 -0.9206
   54CHL1    H6 3932   3.659   2.201   7.445  0.8904 -1.4137  1.4420
   54CHL1    C7 3933   3.750   2.269   7.629  0.6204  0.9444 -0.4628
   54CHL1   H7A 3934   3.655   2.253   7.685  1.7813  0.7629  1.5695
   54CHL1   H7B 3935   3.813   2.180   7.651 -2.5944 -1.1062  1.2084
   54CHL1    C8 3936   3.823   2.394   7.688  0.5753 -0.3046  0.1024
   54CHL1    H8 3937   3.752   2.479   7.681  0.3593 -0.5732 -1.6753
   54CHL1   C14 3938   3.861   2.368   7.832 -0.2588  0.2223  0.6605
   54CHL1   H14 3939   3.941   2.291   7.824  0.2017  0.7399  0.2256
   54CHL1   C15 3940   3.757   2.309   7.938  0.4362  0.1530  0.0994
   54CHL1  H15A 3941   3.658   2.359   7.933  0.4997  0.2928  0.2242
   54CHL1  H15B 3942   3.735   2.205   7.905 -2.4760  0.4505  0.8209
   54CHL1   C16 3943   3.830   2.343   8.076  0.2465 -1.2648  0.7903
   54CHL1  H16A 3944   3.754   2.400   8.135 -2.6979 -1.4105 -2.5065
   54CHL1  H16B 3945   3.850   2.245   8.123  0.3527 -0.5905  2.1995
   54CHL1   C17 3946   3.961   2.421   8.041  0.0424 -0.1308  0.1065
   54CHL1   H17 3947   4.043   2.347   8.027  1.0889  0.7106  1.5115
   54CHL1   C13 3948   3.936   2.482   7.903 -0.0899 -0.7700 -0.1646
   54CHL1   C18 3949   3.858   2.613   7.913 -0.0589 -0.4853  0.2637
   54CHL1  H18A 3950   3.834   2.659   7.815 -2.6110  0.2266  1.1465
   54CHL1  H18B 3951   3.765   2.607   7.974 -0.0636 -1.1220  0.1991
   54CHL1  H18C 3952   3.917   2.686   7.973  2.4072 -0.5710 -1.8931
   54CHL1   C12 3953   4.064   2.501   7.817 -0.0785  0.5164  0.0938
   54CHL1  H12A 3954   4.129   2.581   7.859  1.6225 -0.5310 -0.4465
   54CHL1  H12B 3955   4.137   2.418   7.814  0.0098  0.5925  0.1248
   54CHL1   C11 3956   4.033   2.532   7.667  0.6770 -0.2652 -0.0064
   54CHL1  H11A 3957   3.999   2.638   7.660 -0.0282 -0.4995 -0.1404
   54CHL1  H11B 3958   4.127   2.519   7.609 -0.5704 -0.9639 -1.9743
   54CHL1    C9 3959   3.946   2.420   7.602  0.4602 -0.7022  0.2446
   54CHL1    H9 3960   4.004   2.325   7.605  3.1018  0.6707 -2.5285
   54CHL1   C10 3961   3.905   2.453   7.449  0.2959 -0.2894  0.2511
   54CHL1   C19 3962   3.862   2.598   7.428 -0.4751 -0.1605  0.4917
   54CHL1  H19A 3963   3.816   2.612   7.328 -3.0764 -2.5450  1.2298
   54CHL1  H19B 3964   3.801   2.640   7.511  0.3482  1.4119  0.3313
   54CHL1  H19C 3965   3.946   2.671   7.429 -1.4212  0.9672  0.7886
   54CHL1    C1 3966   4.030   2.417   7.365  1.0212  0.4416 -0.1163
   54CHL1   H1A 3967   4.104   2.489   7.404 -0.9046  1.9661  0.8975
   54CHL1   H1B 3968   4.046   2.309   7.386 -0.8316  0.1837  0.1991
   54CHL1    C2 3969   4.008   2.439   7.215 -0.1613  0.2972 -0.0247
   54CHL1   H2A 3970   4.102   2.423   7.158  0.0473  0.2377  0.3366
   54CHL1   H2B 3971   3.977   2.542   7.188 -1.6148 -0.1588 -0.1865
   54CHL1   C20 3972   3.995   2.518   8.155 -0.3006 -0.3332  0.4458
   54CHL1   H20 3973   3.919   2.595   8.181  2.6943  2.6726  1.1735
   54CHL1   C21 3974   4.121   2.599   8.119 -0.0456  0.7902 -0.6422
   54CHL1  H21A 3975   4.156   2.660   8.204 -1.7565  1.7617 -0.6107
   54CHL1  H21B 3976   4.097   2.681   8.048 -1.9778  0.6144 -0.2376
   54CHL1  H21C 3977   4.201   2.539   8.068 -1.2694 -0.1153 -1.5583
   54CHL1   C22 3978   4.012   2.451   8.297  0.5179 -0.4000  0.0364
   54CHL1  H22A 3979   3.915   2.397   8.306  1.1725 -1.7884 -0.9582
   54CHL1  H22B 3980   4.090   2.372   8.289  0.2621 -1.1315  3.1637
   54CHL1   C23 3981   4.027   2.548   8.414 -0.3379  0.0645  0.0036
   54CHL1  H23A 3982   4.017   2.489   8.508  1.5025  0.6970  0.6495
   54CHL1  H23B 3983   4.124   2.600   8.425 -0.1430  0.1045 -1.7380
   54CHL1   C24 3984   3.915   2.649   8.437  0.0943  0.0422 -0.1354
   54CHL1  H24A 3985   3.893   2.713   8.349 -0.5087  1.5545  1.0658
   54CHL1  H24B 3986   3.825   2.587   8.458 -0.3337  0.9862  0.9449
   54CHL1   C25 3987   3.929   2.746   8.559  0.1763 -0.2513  0.2163
   54CHL1   H25 3988   4.029   2.795   8.551 -0.2069  0.4320 -0.5821
   54CHL1   C26 3989   3.819   2.858   8.567 -0.0910  0.3272 -0.0058
   54CHL1  H26A 3990   3.716   2.818   8.557  0.2040 -0.2243 -0.9740
   54CHL1  H26B 3991   3.838   2.908   8.664  0.5477 -0.6565  0.3896
   54CHL1  H26C 3992   3.832   2.939   8.491  0.3731 -0.1508 -0.4404
   54CHL1   C27 3993   3.938   2.666   8.695  0.5401  0.2358  0.8137
   54CHL1  H27A 3994   3.882   2.571   8.703  1.9992 -0.7665 -0.4103
   54CHL1  H27B 3995   4.040   2.629   8.716 -0.4389 -0.9249  4.0933
   54CHL1  H27C 3996   3.914   2.739   8.775  0.9935  1.9335 -0.5274
   55CHL1    C3 3997   3.896   4.387   7.201  0.0508  0.2929 -0.4195
   55CHL1    H3 3998   3.885   4.277   7.213 -0.2737  0.3235 -0.4376
   55CHL1    O3 3999   3.823   4.419   7.089 -0.1943 -0.2446  0.0152
   55CHL1   H3' 4000   3.862   4.501   7.057  0.4280 -0.4098  0.3354
   55CHL1    C4 4001   3.838   4.460   7.323  0.0838  0.1840  0.3089
   55CHL1   H4A 4002   3.826   4.567   7.294  0.1091 -0.1882 -1.1250
   55CHL1   H4B 4003   3.731   4.431   7.323  0.2580 -0.5116 -1.0880
   55CHL1    C5 4004   3.911   4.430   7.451 -1.0656 -0.0897  0.1063
   55CHL1    C6 4005   3.852   4.384   7.561 -0.0342  0.1696 -0.2866
   55CHL1    H6 4006   3.744   4.364   7.551  0.0678  0.2988 -2.0008
   55CHL1    C7 4007   3.928   4.360   7.688  0.6884  0.2885 -0.0645
   55CHL1   H7A 4008   3.867   4.380   7.779  0.8684  0.8460 -0.0631
   55CHL1   H7B 4009   3.949   4.251   7.695  0.1894  0.1300 -0.9246
   55CHL1    C8 4010   4.061   4.437   7.701 -0.5889  0.4290 -0.3608
   55CHL1    H8 4011   4.037   4.545   7.715 -0.5323  0.4781 -0.6406
   55CHL1   C14 4012   4.141   4.387   7.820 -0.3179 -0.5584  0.4396
   55CHL1   H14 4013   4.139   4.276   7.808  0.9275 -0.3898 -2.0062
   55CHL1   C15 4014   4.078   4.400   7.960  0.1790 -0.3143 -0.5644
   55CHL1  H15A 4015   4.039   4.503   7.971  2.4067  0.4723  0.6232
   55CHL1  H15B 4016   3.997   4.328   7.981  0.9311 -1.0632 -0.1636
   55CHL1   C16 4017   4.201   4.387   8.056 -0.2414 -0.0650  0.8243
   55CHL1  H16A 4018   4.219   4.486   8.103  1.0705  0.1662 -0.1047
   55CHL1  H16B 4019   4.190   4.319   8.143  1.8498 -0.7603  0.5978
   55CHL1   C17 4020   4.320   4.366   7.966  0.0474  0.5230  0.6800
   55CHL1   H17 4021   4.320   4.260   7.933  0.1915  0.7069  0.0752
   55CHL1   C13 4022   4.287   4.434   7.832 -0.4085  0.6451 -0.3075
   55CHL1   C18 4023   4.285   4.587   7.859  0.0465 -0.1078 -0.3146
   55CHL1  H18A 4024   4.383   4.636   7.879 -1.0505  1.8591  0.4619
   55CHL1  H18B 4025   4.237   4.643   7.776  1.2138  2.3763  0.5838
   55CHL1  H18C 4026   4.223   4.619   7.945 -3.5201 -4.2614 -0.9978
   55CHL1   C12 4027   4.360   4.394   7.698 -0.1003  0.0230 -0.5631
   55CHL1  H12A 4028   4.464   4.431   7.690  0.9059 -2.7566 -1.6391
   55CHL1  H12B 4029   4.371   4.284   7.685 -0.5237 -0.1688  0.5989
   55CHL1   C11 4030   4.286   4.444   7.569  0.4198 -0.6360 -0.2680
   55CHL1  H11A 4031   4.292   4.555   7.574  1.5892 -0.7285  0.7908
   55CHL1  H11B 4032   4.334   4.423   7.471  0.0770 -2.7505 -0.0419
   55CHL1    C9 4033   4.132   4.412   7.573 -0.2861 -0.0621  0.3224
   55CHL1    H9 4034   4.132   4.301   7.569  0.8683 -0.0592 -0.2866
   55CHL1   C10 4035   4.065   4.462   7.449  0.5881 -0.1474  0.3987
   55CHL1   C19 4036   4.083   4.622   7.439  0.3366 -0.0950  0.3959
   55CHL1  H19A 4037   4.033   4.651   7.344 -0.3852 -0.9985  0.4798
   55CHL1  H19B 4038   4.028   4.669   7.523  0.7477  0.1262  0.5397
   55CHL1  H19C 4039   4.190   4.648   7.431  0.9914 -2.0220  1.9838
   55CHL1    C1 4040   4.115   4.386   7.323 -0.0838 -0.5012 -0.5091
   55CHL1   H1A 4041   4.220   4.421   7.311 -0.6140  1.2904 -0.1745
   55CHL1   H1B 4042   4.130   4.276   7.329 -0.0884 -0.4918 -0.3259
   55CHL1    C2 4043   4.047   4.412   7.193  0.1068 -0.1027  0.0114
   55CHL1   H2A 4044   4.102   4.352   7.117  1.3345  1.1089 -0.1067
   55CHL1   H2B 4045   4.060   4.520   7.172 -2.0256  0.1922  0.0127
   55CHL1   C20 4046   4.461   4.389   8.031  0.4043  0.0011 -0.1137
   55CHL1   H20 4047   4.495   4.495   8.025  0.6292 -0.0095  0.9048
   55CHL1   C21 4048   4.559   4.315   7.934  0.9354  0.0884  0.0542
   55CHL1  H21A 4049   4.508   4.219   7.908 -2.7657  2.3361 -1.9815
   55CHL1  H21B 4050   4.658   4.289   7.977  0.6255  1.0395  1.3945
   55CHL1  H21C 4051   4.581   4.363   7.836  0.1375 -0.1491 -0.2573
   55CHL1   C22 4052   4.466   4.335   8.173 -0.0897 -0.4660 -1.1407
   55CHL1  H22A 4053   4.383   4.381   8.231  0.3198 -2.0229  0.8076
   55CHL1  H22B 4054   4.436   4.229   8.163 -2.2584 -0.1249  0.8810
   55CHL1   C23 4055   4.593   4.364   8.249 -0.3566 -0.2114 -0.2980
   55CHL1  H23A 4056   4.673   4.301   8.204  0.7473  0.5963  0.4635
   55CHL1  H23B 4057   4.627   4.467   8.223  0.0120 -0.2707 -0.0686
   55CHL1   C24 4058   4.578   4.350   8.403  0.4559 -0.5743  0.7061
   55CHL1  H24A 4059   4.501   4.424   8.432  0.2336  0.2463 -1.7561
   55CHL1  H24B 4060   4.526   4.255   8.428  1.0316 -0.7140  1.4412
   55CHL1   C25 4061   4.709   4.377   8.482 -0.7908  0.6711 -0.2140
   55CHL1   H25 4062   4.785   4.396   8.404 -0.5329 -2.3866 -0.8496
   55CHL1   C26 4063   4.683   4.493   8.589  0.1432  0.3719  1.1203
   55CHL1  H26A 4064   4.621   4.444   8.668 -0.7563 -0.8545 -0.3044
   55CHL1  H26B 4065   4.779   4.519   8.639 -0.1727  1.4714  1.1668
   55CHL1  H26C 4066   4.627   4.578   8.545  1.3079  1.0998  1.0224
   55CHL1   C27 4067   4.756   4.250   8.559  0.0824  0.0466 -0.7389
   55CHL1  H27A 4068   4.758   4.164   8.489  1.5193 -0.6155  0.0737
   55CHL1  H27B 4069   4.858   4.250   8.602 -0.3654 -1.8301  0.4300
   55CHL1  H27C 4070   4.683   4.229   8.640  0.5678  0.3839 -0.2054
   56CHL1    C3 4071   3.829   1.785   7.061 -0.8020 -0.3108 -0.1016
   56CHL1    H3 4072   3.770   1.879   7.051 -1.6095 -0.7619  0.3273
   56CHL1    O3 4073   3.831   1.715   6.933  0.1496 -0.4045  0.1188
   56CHL1   H3' 4074   3.901   1.651   6.938 -2.0419 -3.0567 -0.5260
   56CHL1    C4 4075   3.973   1.811   7.109 -0.5692 -1.2504  1.2205
   56CHL1   H4A 4076   4.032   1.717   7.100 -0.2292 -0.9480  0.0305
   56CHL1   H4B 4077   4.012   1.885   7.035  0.4860 -1.1368  1.8718
   56CHL1    C5 4078   3.988   1.862   7.248  0.2648  0.2220  0.1328
   56CHL1    C6 4079   4.074   1.966   7.264 -0.0812  0.4285 -1.0209
   56CHL1    H6 4080   4.128   2.018   7.183  0.4446  1.8426  0.1807
   56CHL1    C7 4081   4.125   1.999   7.407  0.1343 -0.5638  0.5005
   56CHL1   H7A 4082   4.235   2.007   7.409  0.2656 -2.0601  2.2485
   56CHL1   H7B 4083   4.092   2.098   7.445  0.1020 -0.9417  1.4887
   56CHL1    C8 4084   4.071   1.912   7.518  0.2099  0.6580  0.0081
   56CHL1    H8 4085   4.134   1.821   7.522  2.8038  2.3791  0.8182
   56CHL1   C14 4086   4.079   1.970   7.660 -0.5795  0.3381 -0.2186
   56CHL1   H14 4087   4.013   2.059   7.651  0.1612  0.6568 -3.6665
   56CHL1   C15 4088   4.210   2.029   7.703  0.0531  0.6460  0.7386
   56CHL1  H15A 4089   4.293   1.963   7.671 -0.4584 -0.0697  0.8666
   56CHL1  H15B 4090   4.224   2.123   7.646 -1.5229  0.8114  0.5684
   56CHL1   C16 4091   4.199   2.052   7.856 -0.3694  0.0919  0.4003
   56CHL1  H16A 4092   4.288   1.999   7.897 -2.1564 -3.3378  0.2538
   56CHL1  H16B 4093   4.196   2.161   7.878 -1.8739  0.4553 -1.3430
   56CHL1   C17 4094   4.066   1.982   7.900  0.0779 -0.8118  0.2421
   56CHL1   H17 4095   3.987   2.056   7.875 -1.2859 -2.5137 -0.7182
   56CHL1   C13 4096   4.037   1.882   7.777 -0.3862 -0.1848 -0.2693
   56CHL1   C18 4097   4.132   1.761   7.810  0.7626  0.8098  0.0015
   56CHL1  H18A 4098   4.237   1.789   7.831  0.7238 -0.3185  1.8844
   56CHL1  H18B 4099   4.098   1.707   7.900  0.3558 -1.4499 -1.4385
   56CHL1  H18C 4100   4.127   1.680   7.735 -0.3486  1.5466 -0.7498
   56CHL1   C12 4101   3.891   1.841   7.755 -0.4707  0.2985  0.2735
   56CHL1  H12A 4102   3.860   1.773   7.838  1.8940 -0.3965  0.6711
   56CHL1  H12B 4103   3.826   1.930   7.763  0.1929  0.7192  1.0620
   56CHL1   C11 4104   3.873   1.765   7.623 -0.2082 -0.3925 -0.0270
   56CHL1  H11A 4105   3.925   1.667   7.630 -0.6632 -0.6073  0.3525
   56CHL1  H11B 4106   3.765   1.751   7.606 -0.6546  1.8031  0.6961
   56CHL1    C9 4107   3.927   1.853   7.499  0.4216 -0.2530  0.0295
   56CHL1    H9 4108   3.863   1.944   7.501 -0.7985 -1.0762  2.5946
   56CHL1   C10 4109   3.918   1.782   7.358 -0.2071 -0.1193 -0.5861
   56CHL1   C19 4110   3.984   1.639   7.362  0.3842 -0.4113 -0.5855
   56CHL1  H19A 4111   4.085   1.638   7.410  0.4823 -0.2612 -0.7889
   56CHL1  H19B 4112   3.921   1.579   7.432 -0.4161  1.7301  0.6327
   56CHL1  H19C 4113   4.006   1.598   7.262 -0.7981 -0.2336 -0.9312
   56CHL1    C1 4114   3.769   1.769   7.310  0.1533  0.1128 -0.5649
   56CHL1   H1A 4115   3.718   1.702   7.383  0.8206 -0.7170 -0.8475
   56CHL1   H1B 4116   3.731   1.873   7.302 -1.7725 -0.6148 -1.5224
   56CHL1    C2 4117   3.750   1.710   7.168 -0.1530  0.1045 -0.7785
   56CHL1   H2A 4118   3.643   1.703   7.138 -0.1863 -2.6727 -0.2906
   56CHL1   H2B 4119   3.786   1.605   7.173 -2.0189 -0.5227  1.9058
   56CHL1   C20 4120   4.071   1.938   8.052  0.3875  0.4090 -1.0927
   56CHL1   H20 4121   4.112   1.835   8.057  0.5061  0.5161  1.9088
   56CHL1   C21 4122   3.929   1.934   8.108  0.2077  0.8503 -0.5565
   56CHL1  H21A 4123   3.927   1.885   8.207  1.0077  0.7027 -0.5996
   56CHL1  H21B 4124   3.862   1.876   8.040 -0.4024  0.5696  0.2787
   56CHL1  H21C 4125   3.884   2.034   8.124 -0.1360  0.5050  0.7518
   56CHL1   C22 4126   4.165   2.028   8.138  0.6718  0.0781  0.5082
   56CHL1  H22A 4127   4.269   1.997   8.113  1.0424  0.1020  1.9420
   56CHL1  H22B 4128   4.154   2.135   8.109  1.8488 -0.0887 -0.7125
   56CHL1   C23 4129   4.169   2.005   8.291  0.2945  0.0329  0.2916
   56CHL1  H23A 4130   4.063   2.008   8.322  0.6742  1.9880  1.5820
   56CHL1  H23B 4131   4.202   1.903   8.319 -0.6677 -0.4487 -0.2808
   56CHL1   C24 4132   4.247   2.115   8.353  0.3412 -0.3122 -0.3028
   56CHL1  H24A 4133   4.356   2.101   8.334  0.3158 -1.9870  0.5567
   56CHL1  H24B 4134   4.220   2.209   8.301 -1.0789 -0.7915 -0.4764
   56CHL1   C25 4135   4.235   2.120   8.512 -0.2539 -0.6745  0.6330
   56CHL1   H25 4136   4.131   2.146   8.541  0.7771  1.6258  2.6304
   56CHL1   C26 4137   4.268   1.977   8.566  0.3094  0.1549 -0.4137
   56CHL1  H26A 4138   4.254   1.974   8.676 -2.4137  0.0422 -0.6891
   56CHL1  H26B 4139   4.376   1.958   8.548  1.3427  4.5079 -0.0891
   56CHL1  H26C 4140   4.210   1.891   8.527 -1.9531 -0.0492  2.9696
   56CHL1   C27 4141   4.342   2.222   8.561  0.0974 -1.0233  0.5012
   56CHL1  H27A 4142   4.311   2.323   8.527 -3.3880 -1.5344  1.7205
   56CHL1  H27B 4143   4.338   2.236   8.671 -0.2146  0.1285  0.3606
   56CHL1  H27C 4144   4.445   2.199   8.526  1.1395  3.3874  0.0696
   57SAPC     N 4145   1.942   5.503  11.157  0.5597 -0.6054 -0.1620
   57SAPC   C12 4146   2.037   5.404  11.088 -0.0385  0.1265  0.2586
   57SAPC  H12A 4147   2.043   5.309  11.139  0.5641 -0.5822 -1.0885
   57SAPC  H12B 4148   2.133   5.453  11.086  0.2133 -0.3780 -0.8676
   57SAPC   C13 4149   1.809   5.437  11.181  0.2739 -0.5212 -0.7082
   57SAPC  H13A 4150   1.821   5.368  11.263 -1.5542  0.1124  0.1490
   57SAPC  H13B 4151   1.743   5.520  11.203  0.6740  0.1226 -1.8495
   57SAPC  H13C 4152   1.765   5.388  11.095 -0.0938 -1.9661  0.2652
   57SAPC   C14 4153   1.987   5.558  11.287  0.7375 -1.0727 -0.2999
   57SAPC  H14A 4154   1.910   5.627  11.320  0.4874 -2.2324  1.6861
   57SAPC  H14B 4155   2.010   5.480  11.357 -1.5175 -0.1025  1.7015
   57SAPC  H14C 4156   2.073   5.622  11.272  0.3385 -0.6195 -0.7230
   57SAPC   C15 4157   1.928   5.621  11.059 -0.5414 -0.1126 -0.1488
   57SAPC  H15A 4158   1.890   5.583  10.965 -2.3478  1.3251 -0.0718
   57SAPC  H15B 4159   1.849   5.689  11.088  0.2660 -0.6800  4.0018
   57SAPC  H15C 4160   2.028   5.661  11.049 -0.5214 -0.1497 -0.0989
   57SAPC   C11 4161   2.008   5.375  10.942 -0.4663  0.3040  0.5996
   57SAPC  H11A 4162   2.078   5.297  10.906 -1.5466 -0.6009  0.3804
   57SAPC  H11B 4163   2.018   5.464  10.876  0.3723  0.2482  0.6427
   57SAPC     P 4164   1.851   5.170  10.938 -0.0496 -0.2470  0.3878
   57SAPC   O13 4165   1.980   5.097  10.961 -0.4887 -0.2932 -0.2059
   57SAPC   O14 4166   1.748   5.148  11.046  0.0091  0.2079  0.6518
   57SAPC   O12 4167   1.877   5.322  10.929 -0.1749 -0.3924 -0.3783
   57SAPC   O11 4168   1.795   5.131  10.793  0.5446  0.7966 -0.8205
   57SAPC    C1 4169   1.846   5.190  10.675 -0.8021 -0.0085  0.1794
   57SAPC    HA 4170   1.761   5.240  10.623 -1.0200 -0.3180  0.2310
   57SAPC    HB 4171   1.924   5.269  10.686 -1.1242  1.1040 -3.7437
   57SAPC    C2 4172   1.912   5.092  10.570  0.2905 -0.0993  0.1521
   57SAPC    HS 4173   1.966   5.149  10.491 -0.0224 -2.5092 -1.9223
   57SAPC   O21 4174   1.820   4.998  10.507 -0.9905  0.3241  0.8659
   57SAPC   C21 4175   1.766   5.047  10.396  0.0665 -0.3464 -0.3687
   57SAPC   O22 4176   1.778   5.157  10.345  0.8774 -0.1583  0.4653
   57SAPC   C22 4177   1.688   4.926  10.332  0.1331 -0.3957  0.2136
   57SAPC   H2R 4178   1.654   4.853  10.408  0.5062  0.7672  1.5386
   57SAPC   H2S 4179   1.604   4.974  10.276  0.0965  0.9103  1.3399
   57SAPC    C3 4180   2.026   5.025  10.641  0.2118  0.1322 -0.1086
   57SAPC    HX 4181   1.992   4.950  10.716 -0.6028  2.0162  1.5053
   57SAPC    HY 4182   2.079   5.104  10.700 -0.7665 -0.1323  1.1717
   57SAPC   O31 4183   2.128   4.971  10.548 -0.0012  0.4705  0.1094
   57SAPC   C31 4184   2.106   4.848  10.485 -0.0642 -0.8178  0.2822
   57SAPC   O32 4185   2.009   4.776  10.483  0.3453  0.6475 -0.7832
   57SAPC   C32 4186   2.239   4.825  10.410  0.4426 -0.0251 -0.0089
   57SAPC   H2X 4187   2.328   4.817  10.476  2.2000  0.7669 -2.1287
   57SAPC   H2Y 4188   2.259   4.918  10.352 -1.2480 -0.0038 -0.6105
   57SAPC   C23 4189   1.792   4.852  10.235  0.7316  0.8453 -0.0555
   57SAPC   H3R 4190   1.735   4.771  10.184  0.1368  1.0337  0.2956
   57SAPC   H3S 4191   1.873   4.805  10.293 -0.3665 -0.4771  0.4594
   57SAPC   C24 4192   1.854   4.940  10.124  0.9962  0.1964  1.4974
   57SAPC   H4R 4193   1.917   4.876  10.059 -0.4459  0.7996 -0.5991
   57SAPC   H4S 4194   1.927   5.014  10.163  2.2975 -0.9424  1.2725
   57SAPC   C25 4195   1.749   5.010  10.033  0.1451 -0.1592  0.4007
   57SAPC   H5R 4196   1.732   5.115  10.059  2.2040  0.8126 -1.7859
   57SAPC   C26 4197   1.695   4.959   9.921  0.4504  0.8537  0.4189
   57SAPC   H6R 4198   1.643   5.031   9.857 -1.3920 -3.0627 -3.0263
   57SAPC   C27 4199   1.717   4.828   9.859  0.4133 -0.2315 -0.0194
   57SAPC   H7R 4200   1.613   4.795   9.836 -0.1650 -0.1015  2.1235
   57SAPC   H7S 4201   1.742   4.756   9.939  0.2011  1.5340  1.7437
   57SAPC   C28 4202   1.807   4.830   9.741  0.1133 -0.1650  0.5923
   57SAPC   H8R 4203   1.909   4.858   9.770  0.1657  0.3116 -0.0210
   57SAPC   C29 4204   1.786   4.807   9.611  0.5344 -0.2549  0.3853
   57SAPC   H9R 4205   1.873   4.794   9.544  0.6616  0.8132  0.3257
   57SAPC  C210 4206   1.647   4.779   9.556 -0.3197  0.7548  0.1198
   57SAPC  H10R 4207   1.596   4.869   9.515 -0.9386  0.5530  0.4222
   57SAPC  H10S 4208   1.577   4.748   9.637  0.5756  1.5769  1.2468
   57SAPC  C211 4209   1.653   4.672   9.445 -0.0488 -0.1233  0.1685
   57SAPC  H11R 4210   1.616   4.576   9.484  1.6068 -1.1064 -0.5973
   57SAPC  C212 4211   1.694   4.684   9.317 -0.1430 -0.6746 -0.1105
   57SAPC  H12R 4212   1.697   4.595   9.252 -1.5736  0.7766 -2.2930
   57SAPC  C213 4213   1.731   4.815   9.249 -0.0812  0.1423  0.0097
   57SAPC  H13R 4214   1.816   4.864   9.301 -0.0599  0.7008 -0.5323
   57SAPC  H13S 4215   1.646   4.885   9.267  0.7583  0.7643  1.7302
   57SAPC  C214 4216   1.771   4.789   9.108  0.4573 -0.3465 -0.2799
   57SAPC  H14R 4217   1.879   4.779   9.093  0.9632  1.5518  1.6522
   57SAPC  C215 4218   1.689   4.794   9.004 -0.4632  0.3807 -0.6357
   57SAPC  H15R 4219   1.730   4.764   8.907 -0.4740 -0.4650 -0.3833
   57SAPC  C216 4220   1.539   4.816   8.990 -0.3564 -0.0713  0.2175
   57SAPC  H16R 4221   1.522   4.874   8.898  0.3175 -0.0216  0.1174
   57SAPC  H16S 4222   1.491   4.872   9.073  1.1927  1.0564  0.3937
   57SAPC  C217 4223   1.468   4.681   8.973  0.2189  0.1815  0.5439
   57SAPC  H17R 4224   1.459   4.616   9.063 -0.2223  0.2935  0.5860
   57SAPC  H17S 4225   1.523   4.617   8.901  0.0815  0.1043  0.5062
   57SAPC  C218 4226   1.325   4.704   8.918  0.0396 -0.0687  0.3417
   57SAPC  H18R 4227   1.332   4.740   8.813  2.3356  0.9030  0.7447
   57SAPC  H18S 4228   1.263   4.783   8.967 -0.5400  0.4677 -1.1994
   57SAPC  C219 4229   1.240   4.577   8.909 -0.5096  0.4965  0.1052
   57SAPC  H19R 4230   1.165   4.585   8.828  0.3230 -0.0892 -0.7415
   57SAPC  H19S 4231   1.196   4.560   9.010 -1.4159 -2.3268 -0.6845
   57SAPC  C220 4232   1.317   4.451   8.873 -0.0777  0.2326 -0.3356
   57SAPC  H20R 4233   1.376   4.415   8.960  2.1137 -0.1723 -1.8961
   57SAPC  H20S 4234   1.386   4.451   8.786  0.7388 -0.4299  0.2915
   57SAPC  H20T 4235   1.248   4.371   8.839 -2.0317  1.1965  1.1511
   57SAPC   C33 4236   2.223   4.701  10.320 -0.3432 -0.2521  0.0619
   57SAPC   H3X 4237   2.139   4.702  10.247 -0.1527  3.0567 -0.2482
   57SAPC   H3Y 4238   2.228   4.612  10.386 -2.3207  0.7359  1.6826
   57SAPC   C34 4239   2.349   4.694  10.230  0.5338  0.2224  0.1350
   57SAPC   H4X 4240   2.429   4.693  10.307 -1.8412 -0.8389  2.7694
   57SAPC   H4Y 4241   2.356   4.786  10.168  1.0461  1.8406  2.4679
   57SAPC   C35 4242   2.343   4.574  10.134 -0.1616  0.3574 -0.8723
   57SAPC   H5X 4243   2.255   4.587  10.069  0.0689 -2.2621 -1.8295
   57SAPC   H5Y 4244   2.313   4.479  10.183 -0.3504 -0.1878 -2.0149
   57SAPC   C36 4245   2.465   4.565  10.046  0.7138  0.9340  0.2876
   57SAPC   H6X 4246   2.552   4.545  10.112  0.8130  2.1185  0.5341
   57SAPC   H6Y 4247   2.476   4.662   9.992 -0.2731  0.3953 -0.9427
   57SAPC   C37 4248   2.453   4.453   9.937 -0.7864  0.6034  0.6139
   57SAPC   H7X 4249   2.377   4.494   9.868  0.2651  2.1734  0.3392
   57SAPC   H7Y 4250   2.413   4.356   9.975  0.1165  0.1311  0.3704
   57SAPC   C38 4251   2.582   4.418   9.853 -0.7464  0.1611 -0.8896
   57SAPC   H8X 4252   2.661   4.352   9.896 -0.3369  0.6078 -0.9538
   57SAPC   H8Y 4253   2.642   4.511   9.840 -1.4913  0.6606 -0.7635
   57SAPC   C39 4254   2.549   4.378   9.711 -0.7067  0.1045  0.9265
   57SAPC   H9X 4255   2.478   4.443   9.655  1.8067  3.2341  1.0504
   57SAPC   H9Y 4256   2.504   4.278   9.727  0.0679 -0.6516 -1.3544
   57SAPC  C310 4257   2.671   4.373   9.623 -0.3145  0.6336  0.8876
   57SAPC  H10X 4258   2.753   4.321   9.677  0.0330 -1.4043 -1.4465
   57SAPC  H10Y 4259   2.699   4.474   9.586  2.1547 -0.1815  0.3363
   57SAPC  C311 4260   2.636   4.281   9.512  0.3517  0.2084 -0.0987
   57SAPC  H11X 4261   2.546   4.321   9.461  0.5064  0.7995  0.0745
   57SAPC  H11Y 4262   2.610   4.181   9.553  1.0860  0.0976  0.1139
   57SAPC  C312 4263   2.746   4.271   9.414  0.2156 -0.2486  0.5234
   57SAPC  H12X 4264   2.841   4.274   9.471  0.8107 -1.9052 -0.3167
   57SAPC  H12Y 4265   2.752   4.366   9.358  1.1506 -0.3377  0.4493
   57SAPC  C313 4266   2.729   4.148   9.321  0.0868 -1.0478 -0.1392
   57SAPC  H13X 4267   2.700   4.067   9.392  0.2865 -1.4019 -0.4536
   57SAPC  H13Y 4268   2.831   4.128   9.282  0.2545  0.5969 -0.5900
   57SAPC  C314 4269   2.621   4.154   9.217 -0.9012  0.0532 -0.4748
   57SAPC  H14X 4270   2.636   4.234   9.141  0.1601  0.9904  0.6764
   57SAPC  H14Y 4271   2.529   4.180   9.275  0.3471  1.6103  0.9107
   57SAPC  C315 4272   2.594   4.018   9.145 -0.3821  0.0152 -0.2135
   57SAPC  H15X 4273   2.567   3.946   9.225 -0.2575 -0.1410 -0.3100
   57SAPC  H15Y 4274   2.689   3.986   9.096 -0.7089 -1.0806 -0.1725
   57SAPC  C316 4275   2.484   4.035   9.032 -0.3699 -0.0802  0.0924
   57SAPC  H16X 4276   2.503   4.129   8.976 -2.2440  0.4010  0.1696
   57SAPC  H16Y 4277   2.387   4.058   9.083  0.5475 -1.2237  2.4891
   57SAPC  C317 4278   2.479   3.911   8.942 -0.4269 -0.3850 -0.1008
   57SAPC  H17X 4279   2.424   3.835   9.003  1.4149 -0.3644  1.6901
   57SAPC  H17Y 4280   2.581   3.872   8.923 -0.5577 -0.6573 -0.2504
   57SAPC  C318 4281   2.412   3.930   8.803 -0.3063 -1.0388 -0.4423
   57SAPC  H18X 4282   2.460   4.011   8.744 -1.5832  2.1625  2.5670
   57SAPC  H18Y 4283   2.304   3.953   8.813 -0.1944 -0.4165 -0.5904
   57SAPC  H18Z 4284   2.410   3.839   8.738 -3.4882 -1.9435  0.7255
   58SAPC     N 4285   4.417   2.542  11.060 -0.2911  0.5157 -0.9303
   58SAPC   C12 4286   4.457   2.608  10.930  0.1822  0.2865  0.2519
   58SAPC  H12A 4287   4.494   2.527  10.868 -0.9564 -0.8602  1.0280
   58SAPC  H12B 4288   4.537   2.676  10.955  0.4175  0.0593  0.1293
   58SAPC   C13 4289   4.314   2.441  11.048 -0.0902  0.9939  0.9733
   58SAPC  H13A 4290   4.223   2.481  11.005 -0.0552 -1.1873 -1.3786
   58SAPC  H13B 4291   4.350   2.358  10.989  2.1906  0.9854  2.3023
   58SAPC  H13C 4292   4.278   2.399  11.140 -2.7733  2.3003  0.6506
   58SAPC   C14 4293   4.537   2.462  11.101 -0.4511 -0.6575 -0.1609
   58SAPC  H14A 4294   4.560   2.392  11.022 -1.2227 -0.8389 -0.2311
   58SAPC  H14B 4295   4.624   2.523  11.121  0.2290 -1.6162 -0.1244
   58SAPC  H14C 4296   4.512   2.408  11.191 -1.5893  0.3782  0.1725
   58SAPC   C15 4297   4.379   2.647  11.172  1.0329  0.1883  0.6459
   58SAPC  H15A 4298   4.348   2.594  11.261  3.1347  0.3786  1.5516
   58SAPC  H15B 4299   4.458   2.713  11.207  0.3384  1.5477 -0.2847
   58SAPC  H15C 4300   4.293   2.695  11.128 -0.4126 -1.4462  1.5988
   58SAPC   C11 4301   4.351   2.682  10.855  0.5675 -0.1114  0.1824
   58SAPC  H11A 4302   4.262   2.619  10.837 -1.0056  2.7329 -3.0688
   58SAPC  H11B 4303   4.392   2.693  10.752 -1.4835 -0.2868 -0.6946
   58SAPC     P 4304   4.401   2.926  10.903 -0.2494 -0.1543 -0.8321
   58SAPC   O13 4305   4.338   3.049  10.955  0.1887 -0.8079  0.1005
   58SAPC   O14 4306   4.535   2.883  10.954 -0.3186 -0.2135 -0.3776
   58SAPC   O12 4307   4.298   2.803  10.912 -0.3759 -0.0641 -0.3631
   58SAPC   O11 4308   4.407   2.930  10.743 -0.1101 -0.0515  0.3743
   58SAPC    C1 4309   4.299   2.979  10.658  0.1736  0.3268 -0.1255
   58SAPC    HA 4310   4.217   2.904  10.669  1.5253 -1.1231  0.5706
   58SAPC    HB 4311   4.260   3.080  10.682 -3.4315 -0.6343 -1.2887
   58SAPC    C2 4312   4.329   2.980  10.504  0.0134 -0.6161 -0.5755
   58SAPC    HS 4313   4.235   2.986  10.445  0.8092 -0.2643 -1.8411
   58SAPC   O21 4314   4.412   2.863  10.468 -0.1872  0.3068 -0.1901
   58SAPC   C21 4315   4.415   2.826  10.344  0.5780 -0.3286  0.5427
   58SAPC   O22 4316   4.338   2.870  10.262 -0.1862  0.2011  0.1870
   58SAPC   C22 4317   4.515   2.719  10.324  0.0604  0.3250  0.7873
   58SAPC   H2R 4318   4.615   2.743  10.366  0.1215  0.6651  0.4521
   58SAPC   H2S 4319   4.484   2.632  10.385 -0.8036  1.6961  2.4118
   58SAPC    C3 4320   4.397   3.120  10.464  0.3159  0.2828 -0.0161
   58SAPC    HX 4321   4.459   3.150  10.552  1.1200 -1.9699  0.2453
   58SAPC    HY 4322   4.311   3.190  10.461 -0.0238 -0.1541 -0.6886
   58SAPC   O31 4323   4.466   3.110  10.333 -0.1796  1.1256 -0.4651
   58SAPC   C31 4324   4.531   3.227  10.323  0.5715 -0.5064 -0.0880
   58SAPC   O32 4325   4.520   3.315  10.410  0.0477  0.7784 -0.0695
   58SAPC   C32 4326   4.627   3.229  10.200 -0.7762  0.2917  0.6276
   58SAPC   H2X 4327   4.724   3.259  10.245 -2.1837  1.5713  2.9786
   58SAPC   H2Y 4328   4.580   3.306  10.134  2.4965  1.8246 -0.1150
   58SAPC   C23 4329   4.541   2.692  10.175 -0.1741  0.3073 -0.1042
   58SAPC   H3R 4330   4.594   2.780  10.134 -0.3587  1.5876  2.2073
   58SAPC   H3S 4331   4.446   2.678  10.118 -0.1648  0.5740 -0.1856
   58SAPC   C24 4332   4.623   2.562  10.154  0.4689 -0.2037 -0.0570
   58SAPC   H4R 4333   4.621   2.560  10.043 -1.5405  3.7503 -0.2901
   58SAPC   H4S 4334   4.561   2.476  10.185 -1.8832  0.2062 -3.1296
   58SAPC   C25 4335   4.763   2.565  10.205 -0.0061 -0.3909  0.2037
   58SAPC   H5R 4336   4.762   2.561  10.315  3.3542  1.3259  0.4195
   58SAPC   C26 4337   4.870   2.589  10.132 -0.3401  0.3127 -0.3940
   58SAPC   H6R 4338   4.969   2.584  10.179 -0.7459 -0.0163  0.4338
   58SAPC   C27 4339   4.875   2.603   9.978 -0.1072 -0.5271 -0.4433
   58SAPC   H7R 4340   4.823   2.699   9.955  1.4444 -0.1796 -2.8422
   58SAPC   H7S 4341   4.814   2.522   9.932 -1.2083 -0.5036  0.8990
   58SAPC   C28 4342   5.016   2.597   9.920 -0.4667 -0.6664  0.1043
   58SAPC   H8R 4343   5.081   2.672   9.968 -1.5268  1.6485 -1.8796
   58SAPC   C29 4344   5.066   2.527   9.813 -0.1346 -0.6173 -0.2100
   58SAPC   H9R 4345   5.173   2.542   9.792 -0.4128  0.4343 -0.9692
   58SAPC  C210 4346   4.997   2.443   9.712  0.1113 -0.4988 -0.5996
   58SAPC  H10R 4347   4.930   2.513   9.657 -0.7409 -0.9454 -0.1492
   58SAPC  H10S 4348   4.932   2.376   9.773  0.2568 -0.8618 -0.8442
   58SAPC  C211 4349   5.089   2.374   9.612 -0.1161 -0.5195  0.1082
   58SAPC  H11R 4350   5.140   2.295   9.669 -0.5678 -0.0956  1.1459
   58SAPC  C212 4351   5.112   2.397   9.481 -0.2852 -0.5453 -0.8392
   58SAPC  H12R 4352   5.183   2.341   9.419 -2.2788 -0.8495 -3.0084
   58SAPC  C213 4353   5.045   2.509   9.402  0.2170  1.0225  0.2525
   58SAPC  H13R 4354   4.957   2.541   9.461 -0.7321  1.0633 -1.1487
   58SAPC  H13S 4355   5.003   2.465   9.310 -1.2940 -0.6999  1.6848
   58SAPC  C214 4356   5.131   2.630   9.375 -0.1779  0.0504  0.0183
   58SAPC  H14R 4357   5.183   2.662   9.467  1.1657 -2.1352  0.1021
   58SAPC  C215 4358   5.164   2.685   9.258  0.6203 -0.5462  0.2222
   58SAPC  H15R 4359   5.234   2.769   9.268 -0.5597  0.2875  1.9352
   58SAPC  C216 4360   5.133   2.631   9.117  0.1737 -0.3208 -0.0941
   58SAPC  H16R 4361   5.170   2.527   9.106  2.5725  0.5155 -0.3991
   58SAPC  H16S 4362   5.180   2.692   9.037 -1.1554 -1.4708 -1.8448
   58SAPC  C217 4363   4.979   2.644   9.089 -0.2131 -0.8393  0.1365
   58SAPC  H17R 4364   4.920   2.583   9.160  0.4989 -1.4794  0.1912
   58SAPC  H17S 4365   4.965   2.594   8.990  1.1280  0.1840 -0.5969
   58SAPC  C218 4366   4.936   2.790   9.087 -0.4274  0.6252 -0.3519
   58SAPC  H18R 4367   5.007   2.838   9.016 -0.5508 -0.6844 -1.3842
   58SAPC  H18S 4368   4.948   2.835   9.188  1.2948  0.4032 -0.4223
   58SAPC  C219 4369   4.799   2.801   9.026 -0.6228  0.0403 -0.8567
   58SAPC  H19R 4370   4.725   2.763   9.100 -1.2423 -1.7831 -2.3411
   58SAPC  H19S 4371   4.777   2.726   8.947 -2.6779 -1.2145  0.7928
   58SAPC  C220 4372   4.762   2.944   8.990 -0.0304  0.0004 -0.5709
   58SAPC  H20R 4373   4.770   3.016   9.074 -1.7856  1.0851 -1.2842
   58SAPC  H20S 4374   4.660   2.935   8.948 -0.2953 -1.0967  0.2649
   58SAPC  H20T 4375   4.833   2.987   8.916  0.5559  1.0498  0.5473
   58SAPC   C33 4376   4.634   3.088  10.122 -0.7361  0.3406 -0.0962
   58SAPC   H3X 4377   4.525   3.067  10.109 -1.3006  2.3822  0.8693
   58SAPC   H3Y 4378   4.683   3.014  10.188  0.6824  0.1322 -1.3296
   58SAPC   C34 4379   4.711   3.110   9.998 -0.6275 -0.4849  0.2724
   58SAPC   H4X 4380   4.810   3.148  10.032 -0.4033 -1.5226  0.8512
   58SAPC   H4Y 4381   4.673   3.195   9.939  1.2622  0.9105  0.9639
   58SAPC   C35 4382   4.737   2.984   9.910  0.3864  0.5443  0.0413
   58SAPC   H5X 4383   4.740   2.910   9.992 -0.1606  0.6211  0.1312
   58SAPC   H5Y 4384   4.832   2.980   9.852  0.7301 -3.1673  0.6331
   58SAPC   C36 4385   4.612   2.946   9.822  0.5854  0.0188  0.2235
   58SAPC   H6X 4386   4.618   2.988   9.720  0.5393 -0.0757  0.1822
   58SAPC   H6Y 4387   4.528   2.995   9.876  1.0533  1.6736 -0.4847
   58SAPC   C37 4388   4.586   2.796   9.813 -0.2771  0.0286 -0.8314
   58SAPC   H7X 4389   4.554   2.761   9.913  1.6337  0.2601 -0.0947
   58SAPC   H7Y 4390   4.679   2.738   9.795  0.6111  1.5161 -1.2373
   58SAPC   C38 4391   4.493   2.765   9.695  0.5121  0.7898 -0.2567
   58SAPC   H8X 4392   4.546   2.808   9.607  0.1462  0.8558 -0.4443
   58SAPC   H8Y 4393   4.398   2.823   9.690  1.8688  3.0963 -1.4051
   58SAPC   C39 4394   4.459   2.612   9.690  0.4257  0.0901 -0.8734
   58SAPC   H9X 4395   4.381   2.588   9.615  0.8118  0.9767 -1.5697
   58SAPC   H9Y 4396   4.406   2.589   9.785  0.6860 -1.4168 -1.0586
   58SAPC  C310 4397   4.591   2.524   9.685  0.1403  0.7313 -1.0512
   58SAPC  H10X 4398   4.550   2.421   9.694 -0.0148  0.9522  1.4867
   58SAPC  H10Y 4399   4.669   2.527   9.764 -1.3195 -1.2184  0.5776
   58SAPC  C311 4400   4.664   2.551   9.555 -1.0573  0.5817  0.0964
   58SAPC  H11X 4401   4.746   2.478   9.537 -2.2963 -0.0259 -4.0010
   58SAPC  H11Y 4402   4.714   2.650   9.569 -2.7523  1.5283 -0.2890
   58SAPC  C312 4403   4.581   2.545   9.429 -0.2540 -0.2660 -0.7563
   58SAPC  H12X 4404   4.515   2.635   9.433  0.7677  0.4761 -0.0015
   58SAPC  H12Y 4405   4.507   2.462   9.437  0.2221 -0.4818  3.7493
   58SAPC  C313 4406   4.656   2.534   9.297  0.5135 -0.4134 -0.5558
   58SAPC  H13X 4407   4.731   2.453   9.309  2.0073  1.1323  1.0549
   58SAPC  H13Y 4408   4.711   2.629   9.281 -1.0905  0.3523 -1.8038
   58SAPC  C314 4409   4.568   2.512   9.177 -0.4116  0.2285 -0.0049
   58SAPC  H14X 4410   4.507   2.419   9.181 -0.5749  0.3414  0.1310
   58SAPC  H14Y 4411   4.639   2.510   9.092  1.4346  3.5962  1.2963
   58SAPC  C315 4412   4.469   2.628   9.152 -0.2207 -0.0425 -0.2312
   58SAPC  H15X 4413   4.533   2.718   9.160  0.1685 -0.4309  1.2936
   58SAPC  H15Y 4414   4.399   2.642   9.238  2.6797  0.5686  2.1856
   58SAPC  C316 4415   4.395   2.618   9.016 -0.1772  0.6434  0.2215
   58SAPC  H16X 4416   4.333   2.710   9.010 -0.9355  0.0520 -1.6960
   58SAPC  H16Y 4417   4.316   2.541   9.021  0.7418 -0.3068  0.5467
   58SAPC  C317 4418   4.484   2.605   8.891  0.7748 -0.1170  0.4456
   58SAPC  H17X 4419   4.570   2.538   8.914  0.7189  0.3324  2.0834
   58SAPC  H17Y 4420   4.533   2.704   8.887  0.5575 -0.0296 -0.1590
   58SAPC  C318 4421   4.405   2.578   8.768  0.7487  0.8662  0.3110
   58SAPC  H18X 4422   4.465   2.574   8.674 -0.5078 -0.3669 -0.4814
   58SAPC  H18Y 4423   4.327   2.655   8.750  1.7653  2.2001  1.4450
   58SAPC  H18Z 4424   4.358   2.477   8.762 -0.1382  1.2667  0.4250
   59SAPC     N 4425   0.697   5.514  11.659 -0.1832  0.3671  0.2993
   59SAPC   C12 4426   0.834   5.494  11.592  0.0191 -0.0635 -0.4392
   59SAPC  H12A 4427   0.891   5.430  11.658 -1.5265  1.3885  2.4983
   59SAPC  H12B 4428   0.901   5.578  11.592  1.6061 -1.2476  1.2448
   59SAPC   C13 4429   0.726   5.578  11.789 -0.0022 -0.0189 -0.7672
   59SAPC  H13A 4430   0.798   5.516  11.840 -2.4126 -0.4929  2.3006
   59SAPC  H13B 4431   0.770   5.674  11.764 -4.7521  2.5515 -0.4491
   59SAPC  H13C 4432   0.637   5.591  11.847 -0.3841 -2.8518 -0.5729
   59SAPC   C14 4433   0.604   5.603  11.582  0.0172  0.1992  0.0155
   59SAPC  H14A 4434   0.650   5.701  11.573  1.1899 -0.1670  1.6942
   59SAPC  H14B 4435   0.602   5.568  11.480 -1.4312 -1.1986  0.4874
   59SAPC  H14C 4436   0.509   5.615  11.632  0.5692  0.8176  0.9545
   59SAPC   C15 4437   0.623   5.383  11.683  0.3672  0.8415  0.1644
   59SAPC  H15A 4438   0.591   5.337  11.591  1.8303 -2.0558  0.9894
   59SAPC  H15B 4439   0.683   5.310  11.736 -1.0111  0.5982  1.4478
   59SAPC  H15C 4440   0.546   5.392  11.758  0.1081  0.4146 -0.0442
   59SAPC   C11 4441   0.847   5.441  11.448 -0.0211 -0.0857 -0.2044
   59SAPC  H11A 4442   0.782   5.352  11.433  0.0673  0.0889 -1.6835
   59SAPC  H11B 4443   0.953   5.410  11.448 -0.5132 -1.8550 -0.3812
   59SAPC     P 4444   0.896   5.676  11.322  0.2690  0.0501  0.1407
   59SAPC   O13 4445   0.805   5.764  11.241 -0.0101  0.1826  0.0751
   59SAPC   O14 4446   0.947   5.732  11.449 -0.5108 -0.2451  1.1007
   59SAPC   O12 4447   0.809   5.547  11.357 -0.1642 -0.1829  0.4436
   59SAPC   O11 4448   1.021   5.640  11.230  0.1083  0.2001  0.2839
   59SAPC    C1 4449   1.041   5.504  11.182 -0.4694 -0.1034 -0.8663
   59SAPC    HA 4450   1.112   5.443  11.242  0.8012  1.1739 -1.0335
   59SAPC    HB 4451   0.950   5.439  11.192 -0.2705 -0.3252 -0.4595
   59SAPC    C2 4452   1.073   5.492  11.033 -0.6184  0.6369 -0.7049
   59SAPC    HS 4453   1.062   5.383  11.011 -2.7913  1.0566 -1.9333
   59SAPC   O21 4454   1.204   5.537  11.006 -0.1402 -0.2580 -0.6430
   59SAPC   C21 4455   1.286   5.451  10.952 -0.8334  0.1681  0.6623
   59SAPC   O22 4456   1.256   5.334  10.928 -0.0064 -0.2636 -0.3666
   59SAPC   C22 4457   1.416   5.523  10.918 -0.2589 -0.7401 -0.3450
   59SAPC   H2R 4458   1.410   5.615  10.980 -0.2784 -2.2015  1.9369
   59SAPC   H2S 4459   1.496   5.454  10.950  1.5273  0.7405 -1.3824
   59SAPC    C3 4460   0.968   5.555  10.939 -0.5578 -0.3786  0.0726
   59SAPC    HX 4461   0.967   5.664  10.960 -0.9433 -0.3259 -0.2088
   59SAPC    HY 4462   0.865   5.516  10.953 -1.3835  2.1824  2.0064
   59SAPC   O31 4463   1.003   5.533  10.797  0.2457  0.8431  0.3282
   59SAPC   C31 4464   0.990   5.408  10.753 -0.2082  0.4088 -0.1287
   59SAPC   O32 4465   0.934   5.319  10.815  0.3754  0.0028  0.2565
   59SAPC   C32 4466   1.048   5.393  10.620  0.2185 -0.8299  0.1934
   59SAPC   H2X 4467   1.135   5.461  10.619 -1.5863  1.6215  0.8348
   59SAPC   H2Y 4468   0.964   5.423  10.553  0.4983 -3.0493 -1.2900
   59SAPC   C23 4469   1.451   5.560  10.779  1.0341  0.4410 -0.2009
   59SAPC   H3R 4470   1.365   5.623  10.749 -0.0031  1.3773  4.1236
   59SAPC   H3S 4471   1.462   5.475  10.708 -2.3224  1.6285 -2.3676
   59SAPC   C24 4472   1.570   5.656  10.747 -0.4395 -0.2060  0.0281
   59SAPC   H4R 4473   1.580   5.735  10.824 -0.9099 -0.0080 -0.1116
   59SAPC   H4S 4474   1.543   5.703  10.650  0.4861  0.3953  0.0557
   59SAPC   C25 4475   1.697   5.577  10.740  0.5076 -0.7792  0.1634
   59SAPC   H5R 4476   1.732   5.536  10.836 -2.0550  0.4944  1.7516
   59SAPC   C26 4477   1.768   5.552  10.632  0.6204  0.3040  0.0159
   59SAPC   H6R 4478   1.854   5.485  10.645  1.0599  1.0839  1.3576
   59SAPC   C27 4479   1.726   5.598  10.491  0.1496 -0.6660  0.9400
   59SAPC   H7R 4480   1.780   5.691  10.463 -0.3305 -1.1388 -1.9298
   59SAPC   H7S 4481   1.618   5.619  10.480  0.0887 -0.6170  1.6295
   59SAPC   C28 4482   1.750   5.487  10.389  0.7360 -0.1280  0.2500
   59SAPC   H8R 4483   1.712   5.389  10.419  2.8466 -0.8625  0.7431
   59SAPC   C29 4484   1.814   5.496  10.273 -1.0961  0.0369  1.2261
   59SAPC   H9R 4485   1.833   5.410  10.207  1.8977  0.9614  0.7192
   59SAPC  C210 4486   1.872   5.625  10.208  0.3285  0.3435  0.1372
   59SAPC  H10R 4487   1.854   5.709  10.279  0.3201 -0.5163  1.1808
   59SAPC  H10S 4488   1.828   5.630  10.106 -2.3314  1.5289  1.2350
   59SAPC  C211 4489   2.023   5.599  10.190 -0.6196  0.1020 -0.4487
   59SAPC  H11R 4490   2.080   5.644  10.273 -1.1438 -1.5696  0.8540
   59SAPC  C212 4491   2.090   5.515  10.101 -0.3474  0.1106 -0.2651
   59SAPC  H12R 4492   2.200   5.518  10.103 -0.3746  1.5567  0.0089
   59SAPC  C213 4493   2.032   5.439   9.981 -0.3332  0.6847 -0.5407
   59SAPC  H13R 4494   1.933   5.486   9.964 -0.1819  0.9290 -0.7596
   59SAPC  H13S 4495   2.013   5.336  10.016  0.0850  0.6021 -0.5474
   59SAPC  C214 4496   2.125   5.435   9.865 -0.0025  0.2200  0.5351
   59SAPC  H14R 4497   2.227   5.474   9.883  0.5848 -0.6118 -0.8943
   59SAPC  C215 4498   2.109   5.380   9.752 -0.2831  0.7675 -0.0137
   59SAPC  H15R 4499   2.192   5.378   9.680 -1.6480 -0.9791 -1.6644
   59SAPC  C216 4500   1.975   5.323   9.704 -0.6284 -1.1341 -0.0734
   59SAPC  H16R 4501   1.933   5.382   9.619 -0.1007 -0.7312 -0.0537
   59SAPC  H16S 4502   1.906   5.328   9.791  1.8408  2.1458  1.9386
   59SAPC  C217 4503   1.980   5.179   9.648 -0.0783 -0.1965  0.8056
   59SAPC  H17R 4504   1.879   5.144   9.620 -0.3802  2.0979 -1.3874
   59SAPC  H17S 4505   2.021   5.110   9.725  2.4071  2.1929  1.7986
   59SAPC  C218 4506   2.060   5.163   9.513  0.4900  0.0978 -0.0388
   59SAPC  H18R 4507   2.170   5.158   9.520  0.4762 -1.4862 -0.6112
   59SAPC  H18S 4508   2.034   5.259   9.462 -2.0335  0.1889  1.2185
   59SAPC  C219 4509   2.010   5.039   9.434  0.7523 -0.2099  0.1648
   59SAPC  H19R 4510   1.900   5.050   9.430  0.9266  1.4469 -1.8953
   59SAPC  H19S 4511   2.027   4.952   9.501 -1.5399 -0.1030  0.9818
   59SAPC  C220 4512   2.075   5.010   9.299 -0.6270  0.5518  0.1701
   59SAPC  H20R 4513   2.185   5.025   9.298 -0.3151 -1.4784 -1.2301
   59SAPC  H20S 4514   2.021   5.067   9.220 -2.4600 -0.2391  0.8072
   59SAPC  H20T 4515   2.068   4.901   9.284  0.3037 -0.0512  3.3297
   59SAPC   C33 4516   1.099   5.246  10.604 -0.3159  0.0708 -0.3510
   59SAPC   H3X 4517   1.009   5.184  10.621 -0.2064  0.6738  3.0200
   59SAPC   H3Y 4518   1.177   5.218  10.678 -0.7646 -1.1175 -0.3140
   59SAPC   C34 4519   1.164   5.220  10.466 -0.0887 -0.2911  0.5705
   59SAPC   H4X 4520   1.087   5.236  10.387  0.7309 -4.0420 -1.2104
   59SAPC   H4Y 4521   1.206   5.117  10.456  1.4024  0.3103  0.3097
   59SAPC   C35 4522   1.291   5.302  10.453  0.2418  0.1513  0.4186
   59SAPC   H5X 4523   1.365   5.291  10.535 -0.2201 -0.5452  0.7582
   59SAPC   H5Y 4524   1.272   5.411  10.453  1.3578  0.3617 -0.3675
   59SAPC   C36 4525   1.373   5.266  10.320  0.0165  0.2994 -0.4712
   59SAPC   H6X 4526   1.305   5.200  10.263  0.1740 -0.1790 -0.1155
   59SAPC   H6Y 4527   1.462   5.208  10.351  1.0830  1.2953 -1.5868
   59SAPC   C37 4528   1.420   5.390  10.252  0.0778 -0.2759 -0.0817
   59SAPC   H7X 4529   1.473   5.449  10.329  0.0891 -0.6029  0.1659
   59SAPC   H7Y 4530   1.338   5.463  10.237 -0.1240 -0.6509 -0.8162
   59SAPC   C38 4531   1.509   5.362  10.129  0.3593 -0.8764  0.4568
   59SAPC   H8X 4532   1.610   5.325  10.157  1.5905  1.4101 -0.6424
   59SAPC   H8Y 4533   1.520   5.469  10.099  1.1518 -0.1214  3.1855
   59SAPC   C39 4534   1.434   5.282  10.016  0.0877 -0.4135  0.3783
   59SAPC   H9X 4535   1.325   5.303  10.005 -0.0922 -1.1373  0.7429
   59SAPC   H9Y 4536   1.440   5.174  10.038 -0.8850 -0.6494 -0.4553
   59SAPC  C310 4537   1.498   5.317   9.879  0.4797 -0.7780  0.2198
   59SAPC  H10X 4538   1.604   5.284   9.876  0.2315 -1.6155  0.3653
   59SAPC  H10Y 4539   1.487   5.424   9.851 -1.9700 -1.0230 -0.0153
   59SAPC  C311 4540   1.432   5.241   9.760 -0.1778  0.0118 -0.1081
   59SAPC  H11X 4541   1.324   5.237   9.787  0.5223  0.0409  3.0147
   59SAPC  H11Y 4542   1.457   5.134   9.769  0.9471  0.3196  0.5300
   59SAPC  C312 4543   1.462   5.280   9.615  0.7803  0.3547 -0.0086
   59SAPC  H12X 4544   1.455   5.390   9.603 -2.0756  0.8109  3.8320
   59SAPC  H12Y 4545   1.392   5.227   9.547 -1.0611 -2.0085  3.4466
   59SAPC  C313 4546   1.603   5.232   9.572  0.0577  0.7547  0.0292
   59SAPC  H13X 4547   1.599   5.121   9.569 -1.1256  0.7394  1.1493
   59SAPC  H13Y 4548   1.685   5.271   9.637  1.0305 -0.3450 -0.4998
   59SAPC  C314 4549   1.642   5.287   9.433  0.1187 -0.4807  0.1708
   59SAPC  H14X 4550   1.751   5.271   9.429 -0.1565 -3.4481  1.8864
   59SAPC  H14Y 4551   1.616   5.395   9.428  3.0170  0.2306 -1.8106
   59SAPC  C315 4552   1.572   5.221   9.314  0.3617  0.2583  0.2142
   59SAPC  H15X 4553   1.464   5.239   9.335  0.6374 -0.2376  2.2417
   59SAPC  H15Y 4554   1.589   5.112   9.302  0.1290  0.3500 -1.1388
   59SAPC  C316 4555   1.625   5.276   9.176  0.1678 -0.4961 -0.1004
   59SAPC  H16X 4556   1.735   5.264   9.183 -0.0029 -3.2518 -1.0617
   59SAPC  H16Y 4557   1.581   5.378   9.166  0.2551 -0.3486  0.9331
   59SAPC  C317 4558   1.584   5.192   9.065  0.4399  0.1982  0.5926
   59SAPC  H17X 4559   1.473   5.196   9.070  0.3736  0.2019 -0.4669
   59SAPC  H17Y 4560   1.623   5.090   9.083  0.6653 -0.3154 -2.2926
   59SAPC  C318 4561   1.616   5.231   8.916  0.1791  0.7905  0.5317
   59SAPC  H18X 4562   1.725   5.212   8.902  0.7785  1.2355  3.8946
   59SAPC  H18Y 4563   1.591   5.338   8.902 -0.6086  0.4944 -0.4712
   59SAPC  H18Z 4564   1.563   5.167   8.842  1.7636  0.1967 -0.1472
   60SAPC     N 4565   2.252   4.072  11.382  0.3164 -0.1265 -0.1708
   60SAPC   C12 4566   2.279   4.040  11.237  0.0775  0.3354  0.3486
   60SAPC  H12A 4567   2.183   4.048  11.187 -0.8540  0.8228  2.1158
   60SAPC  H12B 4568   2.313   3.939  11.223 -0.2501  0.1981  0.5394
   60SAPC   C13 4569   2.364   4.020  11.467  0.0810  0.0458 -0.2490
   60SAPC  H13A 4570   2.349   4.037  11.573  1.3957  1.5883 -0.2618
   60SAPC  H13B 4571   2.378   3.913  11.471 -2.5059 -0.3254  1.1171
   60SAPC  H13C 4572   2.456   4.072  11.443  2.1510 -2.2871  1.9253
   60SAPC   C14 4573   2.219   4.214  11.393  0.0835  0.1660 -0.6431
   60SAPC  H14A 4574   2.147   4.224  11.473  1.0212 -1.3744  0.4409
   60SAPC  H14B 4575   2.308   4.274  11.402 -0.7965  1.4466 -0.1033
   60SAPC  H14C 4576   2.160   4.253  11.311 -1.5266  1.4772  1.0289
   60SAPC   C15 4577   2.131   3.987  11.422 -0.4800 -0.5712  0.0987
   60SAPC  H15A 4578   2.112   3.997  11.528  0.1829  1.8372  0.0427
   60SAPC  H15B 4579   2.034   4.006  11.379 -0.5121  0.4211  0.5902
   60SAPC  H15C 4580   2.159   3.883  11.410  1.7422  0.1453 -1.5230
   60SAPC   C11 4581   2.384   4.128  11.162  0.1074 -0.1616  0.3286
   60SAPC  H11A 4582   2.357   4.235  11.173 -1.6278 -0.3767 -1.3036
   60SAPC  H11B 4583   2.388   4.110  11.052  2.7334  0.8100  0.1974
   60SAPC     P 4584   2.624   4.011  11.179  0.4238 -0.0037 -0.0624
   60SAPC   O13 4585   2.758   4.054  11.231 -0.5539 -0.3956 -0.2040
   60SAPC   O14 4586   2.578   3.883  11.235  0.5165 -0.5700  0.0183
   60SAPC   O12 4587   2.518   4.126  11.214  0.2203  0.0919  0.4158
   60SAPC   O11 4588   2.629   3.997  11.019  0.4266 -0.3942 -0.1377
   60SAPC    C1 4589   2.657   4.118  10.952 -0.4591  0.5951 -0.5027
   60SAPC    HA 4590   2.558   4.163  10.929 -0.4348  2.4123  2.5190
   60SAPC    HB 4591   2.709   4.194  11.014 -0.3356 -0.0369  0.1824
   60SAPC    C2 4592   2.736   4.094  10.819 -0.1249  0.4972  0.0127
   60SAPC    HS 4593   2.710   4.175  10.747  0.2678 -0.6445 -1.4853
   60SAPC   O21 4594   2.702   3.960  10.769 -0.0459  0.4437  0.5096
   60SAPC   C21 4595   2.587   3.930  10.711  0.2328  0.0316  0.5282
   60SAPC   O22 4596   2.489   4.005  10.706  0.3084  0.1412 -0.6216
   60SAPC   C22 4597   2.584   3.791  10.659  0.2616 -0.7821  0.5317
   60SAPC   H2R 4598   2.681   3.759  10.614  2.2563  1.8413  2.6473
   60SAPC   H2S 4599   2.537   3.724  10.735 -3.4474 -0.3789 -1.1771
   60SAPC    C3 4600   2.884   4.086  10.851 -0.2459 -0.0130  0.3640
   60SAPC    HX 4601   2.898   4.021  10.939  1.7997  1.7082  1.3995
   60SAPC    HY 4602   2.916   4.190  10.871  1.7020 -0.3086 -0.9402
   60SAPC   O31 4603   2.967   4.046  10.737  0.0496  0.2687  0.3141
   60SAPC   C31 4604   3.014   3.916  10.731  0.0890 -0.5444  0.0788
   60SAPC   O32 4605   2.978   3.837  10.818 -0.0796 -0.1806 -0.1846
   60SAPC   C32 4606   3.112   3.900  10.622 -0.7357  0.5108  0.2135
   60SAPC   H2X 4607   3.204   3.862  10.670 -1.1315 -0.7663 -0.0029
   60SAPC   H2Y 4608   3.139   3.995  10.571 -0.9392  1.8013  2.3838
   60SAPC   C23 4609   2.495   3.776  10.536 -0.4623  0.6466 -0.3581
   60SAPC   H3R 4610   2.559   3.820  10.456  0.2573 -3.0223 -2.0042
   60SAPC   H3S 4611   2.400   3.833  10.549 -0.7097  0.0292  0.5962
   60SAPC   C24 4612   2.450   3.636  10.505  0.2994 -0.2912  0.0503
   60SAPC   H4R 4613   2.399   3.659  10.409  2.0819  2.7072 -0.3134
   60SAPC   H4S 4614   2.378   3.602  10.583 -1.5778  0.8977 -1.0861
   60SAPC   C25 4615   2.548   3.530  10.487  0.0304 -0.6352  0.3213
   60SAPC   H5R 4616   2.581   3.487  10.583  0.6116  1.0725  0.9187
   60SAPC   C26 4617   2.591   3.472  10.371  0.7465 -0.2352  1.2575
   60SAPC   H6R 4618   2.678   3.405  10.370  0.9576 -0.1253 -2.5485
   60SAPC   C27 4619   2.550   3.513  10.230 -0.1270  0.1015  0.1845
   60SAPC   H7R 4620   2.441   3.494  10.229 -0.3170  1.1424 -0.0235
   60SAPC   H7S 4621   2.579   3.444  10.148  0.2588  0.5070 -0.0209
   60SAPC   C28 4622   2.587   3.652  10.188 -0.0767 -0.1109 -0.3380
   60SAPC   H8R 4623   2.626   3.723  10.263  2.2939  0.7152 -2.2187
   60SAPC   C29 4624   2.564   3.711  10.071  0.8884 -0.6625  0.3860
   60SAPC   H9R 4625   2.580   3.818  10.046 -2.0158 -0.6452 -1.9116
   60SAPC  C210 4626   2.492   3.637   9.959  0.5539  0.2148  0.0520
   60SAPC  H10R 4627   2.410   3.697   9.914 -0.0194 -2.0430 -2.1554
   60SAPC  H10S 4628   2.445   3.541   9.991  0.8182 -0.2931 -1.0064
   60SAPC  C211 4629   2.595   3.613   9.844 -0.0409  0.0133  0.0660
   60SAPC  H11R 4630   2.655   3.530   9.885 -1.0331 -0.0556  1.4858
   60SAPC  C212 4631   2.612   3.676   9.729 -0.0763 -0.2569 -0.6426
   60SAPC  H12R 4632   2.690   3.656   9.654 -0.8744  0.3007 -1.6457
   60SAPC  C213 4633   2.528   3.792   9.685  0.2269 -0.2285 -0.5192
   60SAPC  H13R 4634   2.585   3.845   9.605 -0.9515  0.5166 -0.8840
   60SAPC  H13S 4635   2.505   3.862   9.768 -0.5464 -4.1587  2.9032
   60SAPC  C214 4636   2.388   3.748   9.633 -0.5446  0.1442 -0.2610
   60SAPC  H14R 4637   2.347   3.646   9.642 -0.3561 -0.3050 -3.3435
   60SAPC  C215 4638   2.309   3.818   9.555 -0.1058 -0.4119  0.1671
   60SAPC  H15R 4639   2.224   3.765   9.511  0.5432 -0.9280 -0.4737
   60SAPC  C216 4640   2.334   3.960   9.515  0.5905 -0.3702  0.1360
   60SAPC  H16R 4641   2.407   3.954   9.431  1.9452 -1.2040  1.3084
   60SAPC  H16S 4642   2.394   4.014   9.592  0.3103 -1.3195  1.0429
   60SAPC  C217 4643   2.215   4.052   9.439 -1.1885  0.6357  0.2823
   60SAPC  H17R 4644   2.265   4.151   9.442 -0.1101  0.1016  2.8805
   60SAPC  H17S 4645   2.125   4.042   9.503 -0.2188 -2.2291  1.3755
   60SAPC  C218 4646   2.178   4.024   9.295  0.1244  0.6312  0.4830
   60SAPC  H18R 4647   2.094   3.952   9.289  0.4132  0.3236  0.1607
   60SAPC  H18S 4648   2.269   3.988   9.243 -0.0722  3.6787 -2.2562
   60SAPC  C219 4649   2.135   4.153   9.221 -0.7275  0.0924  0.2523
   60SAPC  H19R 4650   2.222   4.222   9.221  0.3421 -1.1437 -2.0907
   60SAPC  H19S 4651   2.064   4.203   9.290  0.8241 -0.8687  2.6783
   60SAPC  C220 4652   2.073   4.127   9.078 -0.8044  0.7073 -0.9686
   60SAPC  H20R 4653   2.073   4.214   9.008  1.7224  0.4093 -1.4089
   60SAPC  H20S 4654   1.971   4.085   9.091 -0.9670  1.2606 -0.3842
   60SAPC  H20T 4655   2.148   4.062   9.029 -0.6587  0.6837 -0.7140
   60SAPC   C33 4656   3.079   3.800  10.503  0.8744 -0.0158  0.2152
   60SAPC   H3X 4657   3.048   3.699  10.538  4.6667 -1.5551 -0.3864
   60SAPC   H3Y 4658   3.174   3.773  10.452  0.8001  0.3812 -0.1366
   60SAPC   C34 4659   2.992   3.859  10.396 -0.0328  0.2409  0.5195
   60SAPC   H4X 4660   3.038   3.956  10.369  1.1049 -0.6955 -1.0869
   60SAPC   H4Y 4661   2.894   3.873  10.447 -0.1210  2.4062 -0.1457
   60SAPC   C35 4662   2.980   3.767  10.269  0.2973 -0.2666  0.3298
   60SAPC   H5X 4663   2.942   3.670  10.308 -0.9665  0.4289  0.8971
   60SAPC   H5Y 4664   3.076   3.761  10.213 -1.3643  2.0455 -3.1293
   60SAPC   C36 4665   2.883   3.820  10.165  0.3857  0.3735  0.2805
   60SAPC   H6X 4666   2.797   3.856  10.225 -1.5932  0.5334 -2.4638
   60SAPC   H6Y 4667   2.846   3.737  10.102 -0.7189  2.1342 -1.4980
   60SAPC   C37 4668   2.947   3.932  10.088 -0.9261 -0.2917 -0.0520
   60SAPC   H7X 4669   3.041   3.897  10.040 -0.3119 -1.4780  1.9102
   60SAPC   H7Y 4670   2.994   4.008  10.154  1.0861  1.6974 -3.4486
   60SAPC   C38 4671   2.844   3.988   9.997 -0.3874  0.0869  0.2451
   60SAPC   H8X 4672   2.772   4.035  10.066  0.9538  0.5754  1.3596
   60SAPC   H8Y 4673   2.793   3.910   9.937 -1.1057  2.0397 -1.8694
   60SAPC   C39 4674   2.886   4.102   9.899 -0.4509 -0.1683  0.1418
   60SAPC   H9X 4675   2.932   4.186   9.957  0.3783 -0.3770 -0.2028
   60SAPC   H9Y 4676   2.793   4.135   9.848  1.1027  2.1354 -1.4006
   60SAPC  C310 4677   2.976   4.045   9.786  0.1405  0.0245 -0.3513
   60SAPC  H10X 4678   3.064   3.999   9.836 -0.2894 -2.1655 -1.4692
   60SAPC  H10Y 4679   3.021   4.132   9.734  3.7732 -1.0495  0.6834
   60SAPC  C311 4680   2.924   3.936   9.689  0.0198  0.1517 -0.3943
   60SAPC  H11X 4681   2.835   3.984   9.641 -1.0089  0.2626  1.5225
   60SAPC  H11Y 4682   2.879   3.848   9.739  1.9493 -1.1491 -0.8526
   60SAPC  C312 4683   3.018   3.887   9.576 -0.5622 -0.4539 -0.6909
   60SAPC  H12X 4684   3.084   3.808   9.618 -0.1685 -0.0357 -0.5102
   60SAPC  H12Y 4685   3.078   3.972   9.539  0.1737 -0.8072 -0.3361
   60SAPC  C313 4686   2.928   3.844   9.458  0.7572  0.2251  0.5222
   60SAPC  H13X 4687   2.882   3.937   9.419 -0.4072 -0.3745  0.4124
   60SAPC  H13Y 4688   2.845   3.782   9.499 -0.2489  0.0861 -1.6219
   60SAPC  C314 4689   3.007   3.782   9.338  0.0508  0.1544 -0.1472
   60SAPC  H14X 4690   3.059   3.686   9.362  0.9846  0.6534 -0.1213
   60SAPC  H14Y 4691   3.085   3.852   9.301  2.4060 -1.6966  1.0553
   60SAPC  C315 4692   2.905   3.764   9.219 -0.2006  0.9524 -0.0528
   60SAPC  H15X 4693   2.839   3.853   9.209 -1.5269 -0.1859 -2.0828
   60SAPC  H15Y 4694   2.828   3.685   9.226 -0.0242  0.3264 -3.4922
   60SAPC  C316 4695   2.973   3.736   9.082  0.1369 -0.0814  0.5392
   60SAPC  H16X 4696   2.969   3.625   9.072 -2.1810 -0.1240  1.4499
   60SAPC  H16Y 4697   3.075   3.780   9.085  0.0894  0.0167  0.7108
   60SAPC  C317 4698   2.905   3.807   8.964 -0.7950  0.2395  0.1074
   60SAPC  H17X 4699   2.889   3.914   8.984  0.8816  0.2794  1.4426
   60SAPC  H17Y 4700   2.807   3.759   8.942 -0.3511  0.1197 -1.7950
   60SAPC  C318 4701   2.992   3.778   8.839  0.3765 -0.0867  0.2899
   60SAPC  H18X 4702   3.092   3.822   8.862  1.0740  0.9770 -4.0123
   60SAPC  H18Y 4703   2.959   3.828   8.745  1.5203 -3.0562 -1.8342
   60SAPC  H18Z 4704   2.996   3.673   8.804 -1.0473 -0.5254  1.3461
   61SAPC     N 4705   1.901   1.528  11.179  0.6178 -0.7961  0.5677
   61SAPC   C12 4706   2.025   1.454  11.139 -0.5856  0.0516  0.1600
   61SAPC  H12A 4707   2.031   1.455  11.031  0.5483 -0.4623  0.2087
   61SAPC  H12B 4708   2.010   1.353  11.172 -1.3834 -0.6226 -2.0487
   61SAPC   C13 4709   1.875   1.643  11.090  0.5221 -0.3393  0.2246
   61SAPC  H13A 4710   1.872   1.601  10.990  1.0759  1.3238 -0.5306
   61SAPC  H13B 4711   1.800   1.709  11.129  0.4503 -0.1365 -0.2470
   61SAPC  H13C 4712   1.964   1.704  11.081 -0.9342  1.8001 -0.4502
   61SAPC   C14 4713   1.789   1.437  11.147  0.2465  0.3644  0.2813
   61SAPC  H14A 4714   1.696   1.480  11.179  0.1190  1.4276 -1.4237
   61SAPC  H14B 4715   1.787   1.397  11.046  0.6916 -1.4137  0.9244
   61SAPC  H14C 4716   1.783   1.345  11.204 -1.5562  0.2232 -0.0796
   61SAPC   C15 4717   1.899   1.565  11.323  0.1341 -0.0113  0.2990
   61SAPC  H15A 4718   1.998   1.603  11.347  0.2870 -0.6362  0.6773
   61SAPC  H15B 4719   1.819   1.632  11.352  1.1983  1.0770  0.8550
   61SAPC  H15C 4720   1.888   1.474  11.381 -0.7630 -0.8596 -1.1676
   61SAPC   C11 4721   2.158   1.521  11.176 -0.0284 -0.1979  0.1364
   61SAPC  H11A 4722   2.241   1.455  11.143 -0.1391 -0.3580  0.1751
   61SAPC  H11B 4723   2.163   1.510  11.286 -3.6272 -1.6917  0.2803
   61SAPC     P 4724   2.282   1.749  11.172  0.4532 -0.2162 -0.1902
   61SAPC   O13 4725   2.230   1.892  11.172  0.6918  0.2465  0.4307
   61SAPC   O14 4726   2.336   1.692  11.292 -0.5460 -0.3958 -0.3071
   61SAPC   O12 4727   2.165   1.652  11.122 -0.6953  0.7518 -0.2580
   61SAPC   O11 4728   2.389   1.742  11.054 -0.3215  0.4044 -0.2068
   61SAPC    C1 4729   2.463   1.621  11.024  0.3515 -0.3349 -0.2129
   61SAPC    HA 4730   2.503   1.577  11.118  3.1773  0.9444 -0.7269
   61SAPC    HB 4731   2.409   1.541  10.968  1.8645 -0.6829 -1.2265
   61SAPC    C2 4732   2.579   1.654  10.939  0.2014 -0.0636  0.1789
   61SAPC    HS 4733   2.647   1.714  11.002  2.2257  1.7065 -3.3597
   61SAPC   O21 4734   2.531   1.738  10.834  0.1636  0.8559  0.1597
   61SAPC   C21 4735   2.623   1.788  10.749  0.9570  0.0895 -0.8582
   61SAPC   O22 4736   2.739   1.800  10.767  0.1799 -0.2832  0.2956
   61SAPC   C22 4737   2.531   1.829  10.626 -0.4721 -0.4182 -0.2104
   61SAPC   H2R 4738   2.466   1.744  10.597 -2.0072  0.3548  0.7399
   61SAPC   H2S 4739   2.451   1.896  10.665 -0.4593 -0.6078  0.1440
   61SAPC    C3 4740   2.662   1.535  10.884  0.0677  0.0286 -0.0755
   61SAPC    HX 4741   2.690   1.470  10.969  2.4130 -1.5465 -1.9261
   61SAPC    HY 4742   2.754   1.582  10.842 -0.3101  1.6065  0.7688
   61SAPC   O31 4743   2.583   1.454  10.803  0.5177  0.2402 -0.1793
   61SAPC   C31 4744   2.651   1.400  10.709 -0.3933 -0.3354 -0.4585
   61SAPC   O32 4745   2.772   1.419  10.692  0.0749  0.2602 -0.2023
   61SAPC   C32 4746   2.564   1.327  10.604 -0.3387  0.4493 -0.1934
   61SAPC   H2X 4747   2.460   1.324  10.641  0.2067  0.6247  1.4048
   61SAPC   H2Y 4748   2.601   1.222  10.601  0.3452  0.7054 -1.4114
   61SAPC   C23 4749   2.618   1.898  10.512  0.1172  0.7019 -0.1692
   61SAPC   H3R 4750   2.689   1.829  10.462 -0.1663  0.3828 -0.1321
   61SAPC   H3S 4751   2.678   1.980  10.559  1.6105 -2.1933  3.5610
   61SAPC   C24 4752   2.535   1.949  10.394  0.1373  0.7466  0.4344
   61SAPC   H4R 4753   2.598   2.013  10.329  0.2496  0.8968  0.6848
   61SAPC   H4S 4754   2.461   2.026  10.426 -0.4899  0.3537 -0.0492
   61SAPC   C25 4755   2.474   1.837  10.311 -0.2934 -0.0782  0.6540
   61SAPC   H5R 4756   2.424   1.757  10.367 -0.4170 -0.4291  0.0469
   61SAPC   C26 4757   2.475   1.834  10.175 -0.5411 -0.4098 -0.1245
   61SAPC   H6R 4758   2.436   1.742  10.129  2.7929 -2.0481  0.0139
   61SAPC   C27 4759   2.527   1.943  10.081  0.7278  0.2204 -0.5263
   61SAPC   H7R 4760   2.557   2.036  10.134 -2.2229  1.6213 -1.1250
   61SAPC   H7S 4761   2.433   1.967  10.027 -0.1781 -1.1747  0.3325
   61SAPC   C28 4762   2.631   1.890   9.997 -0.4745 -0.0813 -0.0581
   61SAPC   H8R 4763   2.718   1.860  10.057 -2.3230 -1.1081  2.2883
   61SAPC   C29 4764   2.637   1.892   9.861  0.5371 -0.5019  0.4442
   61SAPC   H9R 4765   2.730   1.861   9.812  0.3712 -1.4300  0.6938
   61SAPC  C210 4766   2.533   1.956   9.771  0.4783  0.4268 -0.6425
   61SAPC  H10R 4767   2.595   1.998   9.689  0.6188  0.9314 -0.2873
   61SAPC  H10S 4768   2.474   2.036   9.821 -0.1384  0.9059 -2.0801
   61SAPC  C211 4769   2.439   1.861   9.717  0.4404  0.2079 -0.5440
   61SAPC  H11R 4770   2.428   1.773   9.783 -0.3443 -1.3726 -2.6662
   61SAPC  C212 4771   2.383   1.858   9.598 -0.6900 -0.5628  0.8256
   61SAPC  H12R 4772   2.310   1.782   9.568  1.1694 -1.4491 -1.8440
   61SAPC  C213 4773   2.408   1.961   9.483 -0.0159 -0.1556  0.0549
   61SAPC  H13R 4774   2.479   2.041   9.515 -0.3178 -0.2488  0.9906
   61SAPC  H13S 4775   2.315   2.017   9.464  0.8225  0.7707 -1.6098
   61SAPC  C214 4776   2.435   1.898   9.347 -0.1090 -0.1223  0.1998
   61SAPC  H14R 4777   2.361   1.820   9.322  0.9058 -0.7949 -0.7860
   61SAPC  C215 4778   2.547   1.903   9.260  0.5829 -0.0601  0.0866
   61SAPC  H15R 4779   2.539   1.839   9.171  0.5646 -1.1531  0.8577
   61SAPC  C216 4780   2.664   1.998   9.270  0.5301  0.3150  0.6778
   61SAPC  H16R 4781   2.668   2.046   9.370  1.3957 -0.2515  0.9299
   61SAPC  H16S 4782   2.646   2.077   9.193 -2.4049 -0.2178  0.7018
   61SAPC  C217 4783   2.804   1.937   9.252  0.0615 -0.2003  0.1647
   61SAPC  H17R 4784   2.877   2.020   9.244  0.8242 -0.9664 -1.1912
   61SAPC  H17S 4785   2.797   1.898   9.148 -0.5897  1.4406 -0.4371
   61SAPC  C218 4786   2.843   1.832   9.353 -0.1576  0.2850 -0.1375
   61SAPC  H18R 4787   2.930   1.774   9.316 -1.1648  0.6318 -3.3547
   61SAPC  H18S 4788   2.755   1.765   9.368  1.8138 -2.1677  1.2845
   61SAPC  C219 4789   2.883   1.895   9.491  0.3370 -0.3915  0.5309
   61SAPC  H19R 4790   2.792   1.937   9.539  1.4694  0.1157  2.3193
   61SAPC  H19S 4791   2.971   1.962   9.472 -0.5025  1.0140  1.4336
   61SAPC  C220 4792   2.932   1.784   9.581 -0.0113 -0.3341 -0.3669
   61SAPC  H20R 4793   3.018   1.737   9.529  0.7210  0.5185  0.0324
   61SAPC  H20S 4794   2.855   1.705   9.594 -0.2063 -0.2483 -0.9906
   61SAPC  H20T 4795   2.962   1.834   9.676  0.9765 -2.4873  0.5149
   61SAPC   C33 4796   2.585   1.383  10.462 -0.3082 -0.2763  0.4433
   61SAPC   H3X 4797   2.684   1.370  10.413 -0.5603  1.4694 -0.6172
   61SAPC   H3Y 4798   2.564   1.492  10.467 -1.9911 -0.5514 -0.0767
   61SAPC   C34 4799   2.481   1.327  10.361  0.2154  0.0416 -0.1305
   61SAPC   H4X 4800   2.386   1.336  10.418 -0.0863  1.6514 -0.8254
   61SAPC   H4Y 4801   2.509   1.224  10.333  1.0389  0.3026 -0.3071
   61SAPC   C35 4802   2.456   1.405  10.228  0.1904 -0.3359  0.1485
   61SAPC   H5X 4803   2.423   1.510  10.246 -2.2448 -0.5377 -2.4616
   61SAPC   H5Y 4804   2.374   1.359  10.170 -2.4509  1.2741  2.3911
   61SAPC   C36 4805   2.581   1.404  10.140 -0.2065 -0.3794 -1.3932
   61SAPC   H6X 4806   2.639   1.309  10.148  0.3248  0.0444  0.1932
   61SAPC   H6Y 4807   2.651   1.483  10.174 -0.3876 -0.2401 -1.3500
   61SAPC   C37 4808   2.536   1.422   9.997  1.0938 -0.2957  0.1954
   61SAPC   H7X 4809   2.499   1.526   9.992  2.2413  0.2159  1.6461
   61SAPC   H7Y 4810   2.454   1.349   9.980  0.9578 -0.4606  1.4661
   61SAPC   C38 4811   2.647   1.406   9.891  0.4428  0.0175  0.1486
   61SAPC   H8X 4812   2.716   1.320   9.900  0.1790 -0.4532 -1.8466
   61SAPC   H8Y 4813   2.716   1.493   9.886  1.7646 -1.0538 -0.7033
   61SAPC   C39 4814   2.590   1.397   9.746  0.4703 -0.2799 -0.3520
   61SAPC   H9X 4815   2.524   1.485   9.731  0.3447 -0.3229 -0.0565
   61SAPC   H9Y 4816   2.523   1.312   9.720 -0.4108  0.4037 -0.3897
   61SAPC  C310 4817   2.703   1.394   9.630  0.2349 -0.4955 -0.1316
   61SAPC  H10X 4818   2.750   1.295   9.616  0.3127 -0.7376  1.6022
   61SAPC  H10Y 4819   2.786   1.459   9.665 -1.0095  0.3872  1.3874
   61SAPC  C311 4820   2.655   1.434   9.488  1.1579 -0.2290 -0.8250
   61SAPC  H11X 4821   2.614   1.537   9.493  2.5711  0.5381 -3.1244
   61SAPC  H11Y 4822   2.568   1.375   9.453 -1.5523  2.1801  1.3547
   61SAPC  C312 4823   2.773   1.430   9.390 -0.3969 -0.2394  0.2707
   61SAPC  H12X 4824   2.837   1.342   9.410 -0.3387  0.0077  1.2402
   61SAPC  H12Y 4825   2.829   1.523   9.413  0.5875 -1.2374  2.0901
   61SAPC  C313 4826   2.721   1.418   9.247  0.3023  0.4433 -0.0356
   61SAPC  H13X 4827   2.641   1.494   9.231 -0.1829  0.0670  0.5365
   61SAPC  H13Y 4828   2.676   1.317   9.239 -0.0714  0.7141 -1.6731
   61SAPC  C314 4829   2.828   1.429   9.140 -0.0510 -0.0170  0.0645
   61SAPC  H14X 4830   2.890   1.338   9.152 -1.8137 -1.2462  0.1874
   61SAPC  H14Y 4831   2.893   1.513   9.173  0.0550 -0.6200  1.4579
   61SAPC  C315 4832   2.765   1.451   9.005  0.6634  0.1842 -0.3711
   61SAPC  H15X 4833   2.846   1.447   8.929 -0.1986 -2.4960 -1.2539
   61SAPC  H15Y 4834   2.703   1.543   9.000  0.3026  0.0940  1.6408
   61SAPC  C316 4835   2.679   1.335   8.962 -0.3676  0.0712  0.6213
   61SAPC  H16X 4836   2.586   1.343   9.024  0.8180  2.0524  2.2917
   61SAPC  H16Y 4837   2.736   1.242   8.984 -1.2507 -1.0845 -1.6585
   61SAPC  C317 4838   2.642   1.342   8.814  0.4166 -0.1875 -0.3922
   61SAPC  H17X 4839   2.709   1.287   8.745 -1.8206 -1.0795 -1.9799
   61SAPC  H17Y 4840   2.645   1.447   8.777 -0.5686 -0.7012 -1.9966
   61SAPC  C318 4841   2.498   1.278   8.789 -0.0902 -0.2697 -0.5894
   61SAPC  H18X 4842   2.428   1.308   8.869  0.1548 -2.8565  0.6955
   61SAPC  H18Y 4843   2.500   1.168   8.806  0.5565 -0.1476  0.1897
   61SAPC  H18Z 4844   2.467   1.300   8.684 -3.8611  0.1621  0.4690
   62SAPC     N 4845   6.390   2.321  11.179  0.1681  0.0535  0.2121
   62SAPC   C12 4846   6.522   2.296  11.103 -0.3360 -0.4754 -0.1108
   62SAPC  H12A 4847   6.585   2.262  11.184 -1.4998  0.1902  1.1386
   62SAPC  H12B 4848   6.544   2.388  11.051  0.6665 -1.3781 -1.3382
   62SAPC   C13 4849   6.278   2.368  11.084 -0.5326 -0.0871 -0.0949
   62SAPC  H13A 4850   6.180   2.373  11.129 -0.1531  0.8444  0.6702
   62SAPC  H13B 4851   6.292   2.465  11.039  1.5602 -1.0979 -1.7776
   62SAPC  H13C 4852   6.270   2.305  10.997 -0.4001 -1.6452  0.9928
   62SAPC   C14 4853   6.344   2.196  11.246 -0.3545 -0.1441  0.8456
   62SAPC  H14A 4854   6.250   2.216  11.294 -0.2407  1.1900  0.5547
   62SAPC  H14B 4855   6.313   2.122  11.174  0.4810  1.3099 -1.1400
   62SAPC  H14C 4856   6.417   2.156  11.314 -0.0151  0.5454  0.9028
   62SAPC   C15 4857   6.414   2.434  11.275 -0.1888 -0.7902 -0.4480
   62SAPC  H15A 4858   6.495   2.412  11.343 -0.5382 -1.2114 -0.1669
   62SAPC  H15B 4859   6.431   2.523  11.215  1.1748  1.1271  2.5015
   62SAPC  H15C 4860   6.327   2.460  11.333  0.0670  1.3475 -0.9243
   62SAPC   C11 4861   6.521   2.192  10.988  0.5439 -0.0009  0.6614
   62SAPC  H11A 4862   6.456   2.108  11.021 -0.0236 -0.0760 -0.5876
   62SAPC  H11B 4863   6.625   2.158  10.968  0.4952 -0.6913  1.5180
   62SAPC     P 4864   6.405   2.164  10.750  0.4587 -0.0181  0.1168
   62SAPC   O13 4865   6.327   2.047  10.796 -0.1080  0.1254  0.3771
   62SAPC   O14 4866   6.351   2.250  10.647  0.8301 -0.4285  0.4481
   62SAPC   O12 4867   6.467   2.244  10.870  0.1335  0.5282  0.3379
   62SAPC   O11 4868   6.532   2.102  10.691  0.0243 -0.5208  0.0798
   62SAPC    C1 4869   6.634   2.183  10.633  1.1767  0.1604 -0.3107
   62SAPC    HA 4870   6.600   2.287  10.614  1.4104  0.4198  0.6361
   62SAPC    HB 4871   6.723   2.186  10.700  0.2966  4.2236  0.9703
   62SAPC    C2 4872   6.672   2.125  10.498 -0.1225  0.2829  0.4624
   62SAPC    HS 4873   6.581   2.134  10.434  1.0770 -0.3649 -1.4351
   62SAPC   O21 4874   6.719   1.989  10.519  0.0317 -0.1506 -0.5726
   62SAPC   C21 4875   6.640   1.891  10.489  0.7280  0.4426 -0.1530
   62SAPC   O22 4876   6.528   1.905  10.442 -0.2779  0.5406 -0.1348
   62SAPC   C22 4877   6.712   1.765  10.520  0.1502 -1.1929 -0.0146
   62SAPC   H2R 4878   6.810   1.769  10.468  1.3272 -0.4003  2.1546
   62SAPC   H2S 4879   6.721   1.746  10.629 -1.6613 -0.9677  0.2120
   62SAPC    C3 4880   6.788   2.212  10.439  0.4923 -0.1980  0.1203
   62SAPC    HX 4881   6.866   2.195  10.516  1.1865  0.1271 -0.4979
   62SAPC    HY 4882   6.769   2.321  10.431 -2.0513 -0.6814 -2.3186
   62SAPC   O31 4883   6.837   2.176  10.307  0.2537  0.0897 -0.7997
   62SAPC   C31 4884   6.941   2.095  10.299  0.1484 -0.1604  0.4160
   62SAPC   O32 4885   6.994   2.039  10.396 -0.0746  0.7029  0.4646
   62SAPC   C32 4886   6.984   2.089  10.151  0.1062  0.4604 -0.2209
   62SAPC   H2X 4887   6.967   2.191  10.111 -0.6564  0.0709 -0.8996
   62SAPC   H2Y 4888   6.906   2.019  10.114 -0.7880 -0.0149  2.3009
   62SAPC   C23 4889   6.637   1.643  10.445 -0.6645  0.2866  0.1299
   62SAPC   H3R 4890   6.630   1.671  10.338 -3.0679  0.6896  0.3309
   62SAPC   H3S 4891   6.535   1.621  10.484 -0.2040  0.7901  1.7199
   62SAPC   C24 4892   6.715   1.508  10.470  0.8137 -0.1365 -0.9005
   62SAPC   H4R 4893   6.659   1.419  10.435  0.4229 -0.3089  0.1376
   62SAPC   H4S 4894   6.714   1.482  10.578 -1.5909 -1.8120 -1.2455
   62SAPC   C25 4895   6.855   1.503  10.414  0.0045 -0.5812  0.1479
   62SAPC   H5R 4896   6.936   1.545  10.474 -0.6562  0.8335  0.0744
   62SAPC   C26 4897   6.883   1.443  10.296 -0.0988  0.4385  0.2994
   62SAPC   H6R 4898   6.986   1.455  10.258 -0.7493 -0.2106 -1.7869
   62SAPC   C27 4899   6.793   1.379  10.194 -0.1853 -0.0388  0.0863
   62SAPC   H7R 4900   6.723   1.310  10.245 -0.1616  0.1718  0.4116
   62SAPC   H7S 4901   6.850   1.318  10.120 -1.5535 -0.9593 -0.2409
   62SAPC   C28 4902   6.699   1.473  10.126  0.3571  0.0227  0.4742
   62SAPC   H8R 4903   6.605   1.491  10.180  1.4431  0.9052  2.1816
   62SAPC   C29 4904   6.716   1.532  10.010 -0.0811  0.1219 -0.2211
   62SAPC   H9R 4905   6.639   1.600   9.972 -0.0489 -0.8116 -2.0938
   62SAPC  C210 4906   6.845   1.523   9.931 -0.2672 -0.0694 -0.3820
   62SAPC  H10R 4907   6.850   1.438   9.859  2.4678  0.8642 -1.4356
   62SAPC  H10S 4908   6.930   1.503   9.998 -1.8902 -1.6297  1.3338
   62SAPC  C211 4909   6.865   1.645   9.851  0.3145  0.4898  0.0833
   62SAPC  H11R 4910   6.892   1.729   9.917  0.9843  0.6867 -0.4308
   62SAPC  C212 4911   6.835   1.673   9.724  0.0917 -0.7050  0.0300
   62SAPC  H12R 4912   6.854   1.776   9.689 -2.0833 -0.0501  0.6252
   62SAPC  C213 4913   6.781   1.578   9.624  0.0604 -0.0372 -0.6575
   62SAPC  H13R 4914   6.725   1.496   9.673  1.8058 -0.1486  1.2701
   62SAPC  H13S 4915   6.872   1.537   9.575  1.3733  0.4516  1.2894
   62SAPC  C214 4916   6.687   1.640   9.525 -0.4365 -0.7313 -0.4912
   62SAPC  H14R 4917   6.638   1.733   9.559  1.0527 -0.4292  0.9778
   62SAPC  C215 4918   6.672   1.596   9.402  0.1798 -0.3560 -0.1029
   62SAPC  H15R 4919   6.589   1.635   9.342  1.5065 -0.8244 -2.3371
   62SAPC  C216 4920   6.740   1.482   9.344  0.0467  0.1486 -0.5459
   62SAPC  H16R 4921   6.675   1.415   9.284  1.4860  0.1031 -2.1067
   62SAPC  H16S 4922   6.770   1.417   9.429 -1.0814  0.7009  0.3167
   62SAPC  C217 4923   6.864   1.532   9.275  0.3267  0.2125  0.3360
   62SAPC  H17R 4924   6.951   1.463   9.274 -0.7086 -1.1653  1.5293
   62SAPC  H17S 4925   6.915   1.615   9.327 -1.7550  1.4674  0.4959
   62SAPC  C218 4926   6.837   1.568   9.132  0.3161 -0.7462 -0.0275
   62SAPC  H18R 4927   6.921   1.618   9.079  0.0843 -0.1756  0.1406
   62SAPC  H18S 4928   6.753   1.641   9.131  0.0017 -1.1007  0.3428
   62SAPC  C219 4929   6.814   1.448   9.043  0.6834 -1.0709 -0.0603
   62SAPC  H19R 4930   6.749   1.381   9.103 -0.1835 -0.4789 -0.3128
   62SAPC  H19S 4931   6.900   1.380   9.028 -0.5978 -2.8558  0.3357
   62SAPC  C220 4932   6.747   1.484   8.910 -0.1176 -0.3257 -0.0297
   62SAPC  H20R 4933   6.641   1.514   8.928 -0.4534 -2.4205  2.0015
   62SAPC  H20S 4934   6.732   1.395   8.845 -1.4794 -1.3267  1.5519
   62SAPC  H20T 4935   6.809   1.555   8.852  1.0610 -0.7552  0.6853
   62SAPC   C33 4936   7.120   2.027  10.117 -0.3687 -0.5497  0.0722
   62SAPC   H3X 4937   7.111   1.916  10.126 -1.4501 -0.6761 -1.9339
   62SAPC   H3Y 4938   7.196   2.065  10.188 -0.3204  1.6009 -1.0370
   62SAPC   C34 4939   7.175   2.056   9.979  0.0344  0.0933  0.5046
   62SAPC   H4X 4940   7.274   2.007   9.977 -0.2352 -0.4554 -1.5483
   62SAPC   H4Y 4941   7.188   2.167   9.972  0.2159  0.0498  0.1408
   62SAPC   C35 4942   7.098   2.019   9.857 -0.6876  0.1135  0.4769
   62SAPC   H5X 4943   6.994   2.058   9.864 -1.3056 -1.4985  0.9217
   62SAPC   H5Y 4944   7.080   1.910   9.846  0.1961  0.0697 -0.6890
   62SAPC   C36 4945   7.165   2.050   9.724 -0.1753 -0.2142  0.1415
   62SAPC   H6X 4946   7.269   2.011   9.727 -0.1472 -0.1237  0.3789
   62SAPC   H6Y 4947   7.172   2.158   9.702 -2.8636 -0.0479 -0.1615
   62SAPC   C37 4948   7.099   1.974   9.607  0.7295 -0.2712 -0.0567
   62SAPC   H7X 4949   7.003   2.026   9.588  1.4748  0.7969 -1.0762
   62SAPC   H7Y 4950   7.060   1.872   9.631  2.7615 -0.4956  2.8149
   62SAPC   C38 4951   7.177   1.985   9.471  0.4725  0.3266 -0.3399
   62SAPC   H8X 4952   7.283   1.953   9.479 -0.0186 -1.1161  0.7678
   62SAPC   H8Y 4953   7.168   2.090   9.434 -0.0003  0.2268 -0.5135
   62SAPC   C39 4954   7.105   1.914   9.359  0.8516  0.1048  0.5707
   62SAPC   H9X 4955   6.997   1.938   9.361  1.2045  1.8945 -0.3637
   62SAPC   H9Y 4956   7.117   1.809   9.394  1.0131  0.0169  0.2555
   62SAPC  C310 4957   7.177   1.921   9.220  0.2274  0.4299  1.0024
   62SAPC  H10X 4958   7.284   1.893   9.226  0.1630 -0.7821 -1.8827
   62SAPC  H10Y 4959   7.192   2.029   9.198 -1.7942  1.0553  2.4113
   62SAPC  C311 4960   7.119   1.836   9.109  0.6208  0.4329 -0.2451
   62SAPC  H11X 4961   7.008   1.832   9.114  0.5728 -0.8337 -1.5288
   62SAPC  H11Y 4962   7.152   1.730   9.116 -0.5495 -0.0091 -1.0553
   62SAPC  C312 4963   7.153   1.884   8.966  0.1367 -0.3002  1.2633
   62SAPC  H12X 4964   7.263   1.884   8.953 -0.0930 -0.1008 -1.2190
   62SAPC  H12Y 4965   7.110   1.987   8.955 -1.8591 -1.2215 -0.2823
   62SAPC  C313 4966   7.091   1.801   8.849  0.6693 -0.4874 -0.1776
   62SAPC  H13X 4967   6.982   1.823   8.850  0.4470 -1.4692 -0.8457
   62SAPC  H13Y 4968   7.094   1.696   8.887  0.4554  0.0361  1.3619
   62SAPC  C314 4969   7.162   1.811   8.716 -0.9836 -0.2109  0.5934
   62SAPC  H14X 4970   7.268   1.780   8.722  0.2438  3.2466 -0.7126
   62SAPC  H14Y 4971   7.182   1.918   8.693 -1.0840 -0.4815 -0.8176
   62SAPC  C315 4972   7.093   1.747   8.594  0.9694 -0.5719 -0.6049
   62SAPC  H15X 4973   7.153   1.771   8.504 -0.2598 -0.2385 -1.3504
   62SAPC  H15Y 4974   7.001   1.808   8.580 -0.4557 -1.7781  2.5564
   62SAPC  C316 4975   7.052   1.604   8.600  0.3343  0.3630  0.1893
   62SAPC  H16X 4976   6.985   1.583   8.686 -1.9401  2.8919 -0.8011
   62SAPC  H16Y 4977   7.149   1.552   8.607  0.9620  1.6445  1.4973
   62SAPC  C317 4978   6.974   1.549   8.481 -0.3780 -0.0484  0.4033
   62SAPC  H17X 4979   7.026   1.560   8.383 -1.1915  1.9818  0.1441
   62SAPC  H17Y 4980   6.893   1.621   8.457  0.2659  0.7411  0.5492
   62SAPC  C318 4981   6.917   1.412   8.507  0.2480  0.1892 -0.0844
   62SAPC  H18X 4982   6.866   1.401   8.605  1.4534 -0.2875  0.5171
   62SAPC  H18Y 4983   6.994   1.332   8.508 -2.7578 -2.9377 -0.1730
   62SAPC  H18Z 4984   6.870   1.377   8.413  1.3547  0.0179 -0.5903
   63SAPC     N 4985   5.640   5.837   6.247 -0.0720 -0.3653  0.2408
   63SAPC   C12 4986   5.755   5.867   6.336 -0.7183  0.1367 -0.2373
   63SAPC  H12A 4987   5.849   5.821   6.310 -0.2658  1.6495 -1.3985
   63SAPC  H12B 4988   5.733   5.822   6.432 -1.2540 -0.7305 -0.7538
   63SAPC   C13 4989   5.646   5.925   6.124 -0.1880 -0.6352 -0.4431
   63SAPC  H13A 4990   5.555   5.907   6.070 -0.0382 -3.4866  0.1108
   63SAPC  H13B 4991   5.651   6.029   6.152 -1.6986 -1.1626  2.1176
   63SAPC  H13C 4992   5.730   5.903   6.060  0.2949  2.2315 -0.9413
   63SAPC   C14 4993   5.641   5.689   6.212 -0.5667 -0.5762  0.6111
   63SAPC  H14A 4994   5.738   5.668   6.169  0.4146  0.2826  2.2715
   63SAPC  H14B 4995   5.642   5.632   6.304  2.7280  2.4248  2.7336
   63SAPC  H14C 4996   5.561   5.668   6.143  1.4123 -1.4528 -1.5390
   63SAPC   C15 4997   5.504   5.855   6.317 -0.0067  0.3726 -0.3403
   63SAPC  H15A 4998   5.425   5.819   6.253 -2.4291 -0.1875  2.7420
   63SAPC  H15B 4999   5.501   5.807   6.414  1.1262  2.5573  0.8521
   63SAPC  H15C 5000   5.483   5.961   6.322 -2.9965 -0.1847  1.5407
   63SAPC   C11 5001   5.794   6.016   6.358 -0.1066  0.0115 -0.4653
   63SAPC  H11A 5002   5.830   6.075   6.272 -0.8636  0.4375 -0.5082
   63SAPC  H11B 5003   5.888   6.016   6.417 -1.1752  1.3255  1.3495
   63SAPC     P 5004   5.688   6.068   6.590  0.4928 -0.4611 -0.4596
   63SAPC   O13 5005   5.764   6.180   6.654  0.5623  0.3986  0.6457
   63SAPC   O14 5006   5.549   6.049   6.640  0.6598  0.8613 -0.0170
   63SAPC   O12 5007   5.688   6.085   6.429 -0.7402  0.0041  0.4442
   63SAPC   O11 5008   5.767   5.940   6.620 -0.2054  0.5089 -0.1440
   63SAPC    C1 5009   5.700   5.817   6.665 -0.1596  0.5495  0.0984
   63SAPC    HA 5010   5.602   5.797   6.616  0.4918 -0.4446 -0.8534
   63SAPC    HB 5011   5.753   5.731   6.619  1.0595  1.7902 -0.8774
   63SAPC    C2 5012   5.688   5.807   6.817 -0.2656 -0.1403 -0.4358
   63SAPC    HS 5013   5.597   5.867   6.843  1.0515  1.2275  1.2560
   63SAPC   O21 5014   5.812   5.872   6.865 -0.1201 -0.1987 -0.6198
   63SAPC   C21 5015   5.795   5.981   6.934 -0.3411 -0.2295 -0.4518
   63SAPC   O22 5016   5.690   6.030   6.972 -0.0816  0.2160 -0.5650
   63SAPC   C22 5017   5.940   6.035   6.966 -0.6401  0.0641  0.0364
   63SAPC   H2R 5018   6.005   5.946   6.956  0.6434  0.9727 -0.0521
   63SAPC   H2S 5019   5.964   6.100   6.879 -1.9455 -1.4316 -1.5145
   63SAPC    C3 5020   5.668   5.666   6.868 -0.3696  0.4557 -0.9275
   63SAPC    HX 5021   5.739   5.599   6.814  1.4968  2.1932 -0.7648
   63SAPC    HY 5022   5.568   5.624   6.847 -0.9675  0.0646  2.1996
   63SAPC   O31 5023   5.707   5.646   7.003 -0.0590  0.7625 -0.3234
   63SAPC   C31 5024   5.616   5.682   7.098  0.5355  0.2734  0.3836
   63SAPC   O32 5025   5.504   5.720   7.069  0.1050 -0.2146  0.4100
   63SAPC   C32 5026   5.688   5.659   7.226  0.0581  0.0447  0.2454
   63SAPC   H2X 5027   5.780   5.721   7.220 -0.8246  1.2541 -1.6681
   63SAPC   H2Y 5028   5.711   5.551   7.234 -2.0351 -0.4630  0.0027
   63SAPC   C23 5029   5.957   6.112   7.096  0.5915  0.4985 -0.5121
   63SAPC   H3R 5030   6.067   6.118   7.109  0.7623 -2.8746  0.6723
   63SAPC   H3S 5031   5.933   6.038   7.175  0.2730 -0.1818 -1.2336
   63SAPC   C24 5032   5.864   6.233   7.113 -0.0439  0.5541 -0.4876
   63SAPC   H4R 5033   5.890   6.270   7.215 -3.5801  0.5961  0.5160
   63SAPC   H4S 5034   5.758   6.203   7.125  0.1563 -1.8198 -3.4042
   63SAPC   C25 5035   5.885   6.336   7.006 -0.3276  0.2722  0.5182
   63SAPC   H5R 5036   5.822   6.316   6.918 -0.3136 -3.2906  1.1632
   63SAPC   C26 5037   5.955   6.449   7.008 -0.6808 -0.1074  0.3092
   63SAPC   H6R 5038   5.949   6.510   6.917  0.0396 -0.9289 -0.3107
   63SAPC   C27 5039   6.032   6.503   7.138  0.1028 -0.5051 -0.0417
   63SAPC   H7R 5040   6.011   6.446   7.231  1.6397 -1.1162 -0.0459
   63SAPC   H7S 5041   5.993   6.607   7.147  1.5792  0.3128 -2.4066
   63SAPC   C28 5042   6.179   6.525   7.112  0.2300  0.3136  0.0840
   63SAPC   H8R 5043   6.201   6.567   7.012  0.8354 -0.2390 -0.0255
   63SAPC   C29 5044   6.285   6.508   7.194 -0.1415  0.1135  0.6630
   63SAPC   H9R 5045   6.385   6.528   7.153 -1.1585  0.4452 -1.8540
   63SAPC  C210 5046   6.283   6.466   7.344  0.2357  0.4820  0.4549
   63SAPC  H10R 5047   6.191   6.508   7.389 -0.0809  1.6510 -1.1952
   63SAPC  H10S 5048   6.370   6.507   7.400  2.6011 -1.4107 -1.6094
   63SAPC  C211 5049   6.276   6.316   7.360 -0.5430  0.0854 -0.4368
   63SAPC  H11R 5050   6.245   6.254   7.275 -2.1648 -1.5339  1.2451
   63SAPC  C212 5051   6.292   6.250   7.468 -0.1945 -0.0211  0.3752
   63SAPC  H12R 5052   6.275   6.142   7.457 -0.5313  0.0590  0.0838
   63SAPC  C213 5053   6.326   6.297   7.612  0.1969 -0.6896  0.1721
   63SAPC  H13R 5054   6.378   6.396   7.612 -1.5892  0.2874  0.5032
   63SAPC  H13S 5055   6.388   6.226   7.670  1.1621 -1.7446 -2.0437
   63SAPC  C214 5056   6.193   6.315   7.676  0.1248  0.4300 -0.2282
   63SAPC  H14R 5057   6.113   6.367   7.621 -1.3650 -0.9558  0.5740
   63SAPC  C215 5058   6.169   6.289   7.804  0.9010 -0.3088  0.4446
   63SAPC  H15R 5059   6.062   6.285   7.829  0.6745  0.3267 -0.3536
   63SAPC  C216 5060   6.271   6.232   7.902  0.3857  0.7378 -0.7766
   63SAPC  H16R 5061   6.372   6.277   7.896  1.1403 -0.9264 -0.9973
   63SAPC  H16S 5062   6.267   6.123   7.885 -0.7171  0.3843  1.3867
   63SAPC  C217 5063   6.232   6.256   8.054  0.2119  0.7141  0.9521
   63SAPC  H17R 5064   6.125   6.229   8.064  0.8604 -2.8240 -0.3354
   63SAPC  H17S 5065   6.244   6.365   8.073 -2.8102  1.4405 -0.6883
   63SAPC  C218 5066   6.307   6.165   8.154  0.0080 -0.3761 -0.0860
   63SAPC  H18R 5067   6.324   6.059   8.122 -0.1137 -0.9810  1.7473
   63SAPC  H18S 5068   6.242   6.155   8.244  4.2849  1.5930  3.6028
   63SAPC  C219 5069   6.433   6.226   8.217 -0.0088 -0.9209  0.4651
   63SAPC  H19R 5070   6.482   6.149   8.280  1.5568 -0.3790 -0.0473
   63SAPC  H19S 5071   6.411   6.315   8.280  1.4612 -0.4871  0.4091
   63SAPC  C220 5072   6.537   6.278   8.117 -0.4990 -0.2037 -0.4112
   63SAPC  H20R 5073   6.590   6.194   8.068 -0.8164 -0.1215 -0.9047
   63SAPC  H20S 5074   6.616   6.331   8.174  2.0592 -4.2122  0.1952
   63SAPC  H20T 5075   6.489   6.340   8.038 -2.7726  0.2884  1.2461
   63SAPC   C33 5076   5.603   5.721   7.349  0.1871  0.3648  0.2016
   63SAPC   H3X 5077   5.501   5.678   7.353  1.3085 -2.6609 -0.7112
   63SAPC   H3Y 5078   5.606   5.830   7.329 -0.2470  0.4149  0.3896
   63SAPC   C34 5079   5.676   5.670   7.470  0.2368 -0.7696  0.2366
   63SAPC   H4X 5080   5.779   5.707   7.485  0.5211 -1.0993 -0.8189
   63SAPC   H4Y 5081   5.681   5.560   7.478 -0.2556 -0.8982 -0.8868
   63SAPC   C35 5082   5.611   5.704   7.605  0.2814  0.0092 -0.1705
   63SAPC   H5X 5083   5.672   5.662   7.688  0.1073  1.1138  0.5438
   63SAPC   H5Y 5084   5.508   5.664   7.618  0.1712  0.5171  0.6318
   63SAPC   C36 5085   5.588   5.860   7.618 -0.6038  0.3381  0.2478
   63SAPC   H6X 5086   5.510   5.891   7.546 -0.0935 -0.0964 -0.5097
   63SAPC   H6Y 5087   5.682   5.908   7.581  0.1729 -1.1362  0.2297
   63SAPC   C37 5088   5.553   5.891   7.761 -0.4323 -0.2881  0.2971
   63SAPC   H7X 5089   5.630   5.858   7.834 -0.6409 -1.5722 -0.0392
   63SAPC   H7Y 5090   5.469   5.822   7.781 -1.7954  1.4654  0.8508
   63SAPC   C38 5091   5.523   6.038   7.783  1.3536 -0.1722  0.0451
   63SAPC   H8X 5092   5.456   6.085   7.708 -2.2486 -1.3730  2.2451
   63SAPC   H8Y 5093   5.613   6.101   7.795 -0.2587  1.8411  3.0260
   63SAPC   C39 5094   5.454   6.065   7.918  0.5376  0.6400  0.2943
   63SAPC   H9X 5095   5.356   6.015   7.930  0.0303  0.8154 -2.4621
   63SAPC   H9Y 5096   5.432   6.173   7.928  2.4106  1.2123 -1.1458
   63SAPC  C310 5097   5.550   6.030   8.042  0.3136 -0.0911 -0.3124
   63SAPC  H10X 5098   5.651   6.067   8.016 -0.3334  1.6569 -0.4618
   63SAPC  H10Y 5099   5.554   5.920   8.060 -0.7674  0.0960  1.3761
   63SAPC  C311 5100   5.510   6.089   8.179  0.6908 -0.4315  0.3070
   63SAPC  H11X 5101   5.410   6.055   8.213  0.1417  3.1970  2.9077
   63SAPC  H11Y 5102   5.502   6.196   8.153 -3.2843 -0.8354 -0.7619
   63SAPC  C312 5103   5.620   6.072   8.286 -0.1829  0.3887  0.1424
   63SAPC  H12X 5104   5.709   6.118   8.237 -0.2852 -0.1746 -0.5862
   63SAPC  H12Y 5105   5.643   5.965   8.303  0.9832  0.4081 -1.0821
   63SAPC  C313 5106   5.586   6.137   8.416  0.4806 -0.2025  0.0760
   63SAPC  H13X 5107   5.488   6.097   8.447  0.3839  0.0964  0.1626
   63SAPC  H13Y 5108   5.567   6.245   8.395  2.3137  0.1088 -0.2222
   63SAPC  C314 5109   5.687   6.117   8.532  0.3899  0.8743  0.4319
   63SAPC  H14X 5110   5.704   6.009   8.552 -2.9306  0.4150  1.4918
   63SAPC  H14Y 5111   5.651   6.161   8.628 -0.1758  0.5589  0.3731
   63SAPC  C315 5112   5.816   6.187   8.487 -0.2024 -0.3583 -0.4115
   63SAPC  H15X 5113   5.793   6.293   8.466 -1.1507 -1.2629 -4.8740
   63SAPC  H15Y 5114   5.850   6.151   8.388 -1.0341  1.9642 -1.6219
   63SAPC  C316 5115   5.928   6.169   8.588  0.3743  0.8270  0.3249
   63SAPC  H16X 5116   5.978   6.073   8.561  0.8880  1.0230  0.5567
   63SAPC  H16Y 5117   5.891   6.151   8.692  0.0561 -0.1911  0.0486
   63SAPC  C317 5118   6.022   6.289   8.591 -0.1313 -0.1777  0.0345
   63SAPC  H17X 5119   6.096   6.245   8.660 -1.9414 -0.7145  1.7332
   63SAPC  H17Y 5120   5.979   6.376   8.646 -0.3196 -0.0053 -0.3745
   63SAPC  C318 5121   6.077   6.327   8.459  0.0471  0.0182  0.2224
   63SAPC  H18X 5122   5.998   6.374   8.396 -2.2269 -2.4015  1.1048
   63SAPC  H18Y 5123   6.136   6.248   8.406 -0.6147 -1.7941  2.0849
   63SAPC  H18Z 5124   6.144   6.412   8.484 -0.0563 -0.4161  2.1351
   64SAPC     N 5125   2.285   1.459   5.663 -0.7607  0.6240 -0.0897
   64SAPC   C12 5126   2.316   1.603   5.723  0.0208  0.6921  0.2355
   64SAPC  H12A 5127   2.266   1.667   5.652 -0.6374  0.2461  0.2948
   64SAPC  H12B 5128   2.424   1.611   5.716  0.2538 -1.5450  0.5964
   64SAPC   C13 5129   2.148   1.416   5.710  0.0349  0.1761  0.8914
   64SAPC  H13A 5130   2.150   1.401   5.817  0.9355  1.3117  1.0512
   64SAPC  H13B 5131   2.072   1.486   5.679  0.7232  0.1481 -1.0000
   64SAPC  H13C 5132   2.131   1.314   5.681  1.2121  0.2141  0.0145
   64SAPC   C14 5133   2.293   1.453   5.517  0.5455  0.6912  0.4233
   64SAPC  H14A 5134   2.263   1.357   5.480  1.2786  0.7889 -0.4557
   64SAPC  H14B 5135   2.216   1.517   5.478  0.5573 -0.3529 -1.3822
   64SAPC  H14C 5136   2.388   1.486   5.477 -1.1781  1.2177 -3.7290
   64SAPC   C15 5137   2.389   1.365   5.721  0.5275 -0.1767  0.6299
   64SAPC  H15A 5138   2.398   1.368   5.829  0.4852  2.0200  0.6209
   64SAPC  H15B 5139   2.380   1.267   5.677 -1.8960 -0.3121  1.3140
   64SAPC  H15C 5140   2.483   1.407   5.687  0.5606  1.9677  3.0466
   64SAPC   C11 5141   2.272   1.645   5.859  0.1872  0.0109 -0.5661
   64SAPC  H11A 5142   2.161   1.644   5.857  0.1829 -0.0564 -0.2529
   64SAPC  H11B 5143   2.292   1.751   5.886  1.9884 -0.1495 -1.1629
   64SAPC     P 5144   2.456   1.580   6.023 -0.0727  0.4598 -0.0992
   64SAPC   O13 5145   2.536   1.466   5.988  0.2584  0.1008 -0.1151
   64SAPC   O14 5146   2.514   1.710   5.979 -0.1250  0.0966  0.1975
   64SAPC   O12 5147   2.313   1.558   5.966  0.8369  0.1011 -0.4846
   64SAPC   O11 5148   2.425   1.593   6.176 -0.1273  0.2342  0.1348
   64SAPC    C1 5149   2.296   1.566   6.236  0.2550 -0.4572 -0.1344
   64SAPC    HA 5150   2.274   1.457   6.236  1.0963 -0.6398 -1.0397
   64SAPC    HB 5151   2.299   1.589   6.345  1.1483 -2.2692  0.2675
   64SAPC    C2 5152   2.183   1.670   6.202  0.1990  0.3180 -0.1341
   64SAPC    HS 5153   2.164   1.666   6.093 -1.3307 -1.1751  0.1512
   64SAPC   O21 5154   2.226   1.806   6.244 -0.3295  0.4943 -0.4954
   64SAPC   C21 5155   2.161   1.908   6.189  0.0913  0.3142 -0.0561
   64SAPC   O22 5156   2.079   1.898   6.100 -0.0158 -0.4561  0.5847
   64SAPC   C22 5157   2.199   2.036   6.255  0.2577  0.1083  0.2370
   64SAPC   H2R 5158   2.109   2.080   6.302 -0.7121  0.7939 -2.1048
   64SAPC   H2S 5159   2.265   2.007   6.339  1.2211  2.0328  0.2144
   64SAPC    C3 5160   2.054   1.624   6.270 -0.6019 -0.1601 -0.5314
   64SAPC    HX 5161   2.026   1.523   6.233  3.4554 -2.0215  0.9114
   64SAPC    HY 5162   1.968   1.690   6.245 -0.3369  0.3538 -0.1158
   64SAPC   O31 5163   2.069   1.627   6.411  0.2956  0.5406 -0.0626
   64SAPC   C31 5164   2.049   1.746   6.468 -0.5775 -0.3384 -0.3079
   64SAPC   O32 5165   2.015   1.848   6.416 -0.4835 -0.5727  0.8505
   64SAPC   C32 5166   2.059   1.722   6.618 -0.1002  0.1993 -0.3830
   64SAPC   H2X 5167   2.159   1.673   6.630  0.5867  0.8146 -2.9466
   64SAPC   H2Y 5168   1.974   1.654   6.638 -0.2563  0.6580  0.5600
   64SAPC   C23 5169   2.256   2.145   6.162 -0.2186 -0.4589  0.2202
   64SAPC   H3R 5170   2.178   2.164   6.085 -3.3419 -0.9973  2.9966
   64SAPC   H3S 5171   2.343   2.104   6.106 -1.8609  0.2098 -3.1178
   64SAPC   C24 5172   2.288   2.279   6.224  0.4972  0.2382 -0.0163
   64SAPC   H4R 5173   2.340   2.342   6.150  2.8459  0.7093  1.9151
   64SAPC   H4S 5174   2.366   2.266   6.302 -0.7906 -0.6534  1.1777
   64SAPC   C25 5175   2.168   2.353   6.278 -0.5616  0.0489  0.1214
   64SAPC   H5R 5176   2.124   2.426   6.208  1.0254  0.5326 -0.4276
   64SAPC   C26 5177   2.128   2.343   6.404  0.3594 -0.3943 -0.7322
   64SAPC   H6R 5178   2.033   2.397   6.417  2.0264  3.3413 -2.7122
   64SAPC   C27 5179   2.182   2.264   6.524 -0.3876  0.0437  0.3275
   64SAPC   H7R 5180   2.278   2.311   6.554  0.2990 -0.2657 -1.2807
   64SAPC   H7S 5181   2.212   2.161   6.492 -0.4717  0.6599 -1.9299
   64SAPC   C28 5182   2.095   2.258   6.642 -0.5610  0.6502  0.1174
   64SAPC   H8R 5183   1.987   2.273   6.623 -0.8663 -0.5091  0.8392
   64SAPC   C29 5184   2.137   2.236   6.766 -0.4074 -0.0054 -0.2252
   64SAPC   H9R 5185   2.062   2.238   6.847 -0.6155 -0.5681 -0.4051
   64SAPC  C210 5186   2.277   2.233   6.817 -0.1056  0.4225 -0.4511
   64SAPC  H10R 5187   2.331   2.177   6.738 -1.7665  1.1675 -2.2171
   64SAPC  H10S 5188   2.280   2.164   6.904 -0.2694  0.3566 -0.4972
   64SAPC  C211 5189   2.353   2.361   6.830  0.3691 -0.6326 -0.2290
   64SAPC  H11R 5190   2.343   2.441   6.756  2.3423 -0.0130  0.0911
   64SAPC  C212 5191   2.421   2.401   6.938 -0.1077  0.5082 -0.6169
   64SAPC  H12R 5192   2.479   2.494   6.936  0.9109 -0.1141 -1.1472
   64SAPC  C213 5193   2.440   2.329   7.069  0.2556  0.4091  0.0934
   64SAPC  H13R 5194   2.531   2.374   7.116  0.6142 -0.8142  0.6155
   64SAPC  H13S 5195   2.467   2.224   7.045  1.6056 -0.0576  3.1726
   64SAPC  C214 5196   2.317   2.331   7.159  0.1078 -0.0059 -0.4711
   64SAPC  H14R 5197   2.224   2.310   7.104 -0.9730 -1.4631  1.7422
   64SAPC  C215 5198   2.320   2.347   7.286  0.8165  0.0466 -0.4940
   64SAPC  H15R 5199   2.221   2.336   7.332  1.1294  0.0485  0.1869
   64SAPC  C216 5200   2.443   2.374   7.376  0.7143 -0.1557  1.0032
   64SAPC  H16R 5201   2.516   2.448   7.336  2.0606 -2.2489 -0.6403
   64SAPC  H16S 5202   2.506   2.283   7.391  1.8330  0.7038  1.6716
   64SAPC  C217 5203   2.397   2.434   7.504  0.4949  0.3921  0.0184
   64SAPC  H17R 5204   2.334   2.356   7.552  2.0049 -1.1498 -0.4099
   64SAPC  H17S 5205   2.332   2.522   7.489  2.1732  1.2400 -3.2122
   64SAPC  C218 5206   2.514   2.466   7.601  0.1014 -0.4459 -0.1961
   64SAPC  H18R 5207   2.598   2.504   7.538  1.2727 -0.6418  1.1849
   64SAPC  H18S 5208   2.558   2.369   7.631  1.2937  0.2479  0.3965
   64SAPC  C219 5209   2.476   2.545   7.732  0.3842  0.6478 -0.0277
   64SAPC  H19R 5210   2.379   2.505   7.769  0.3565 -0.3907 -1.1776
   64SAPC  H19S 5211   2.453   2.650   7.706 -1.8569  0.3849  0.6603
   64SAPC  C220 5212   2.570   2.545   7.857  0.2074  0.5862 -0.2936
   64SAPC  H20R 5213   2.519   2.594   7.943  0.5575 -1.3952  1.1039
   64SAPC  H20S 5214   2.665   2.597   7.831 -0.1007 -0.1608 -3.2882
   64SAPC  H20T 5215   2.600   2.448   7.901  1.4822  0.2416 -1.8271
   64SAPC   C33 5216   2.054   1.846   6.706 -0.6119 -0.9092  0.1523
   64SAPC   H3X 5217   1.956   1.894   6.683 -1.0751 -2.2119 -0.7780
   64SAPC   H3Y 5218   2.131   1.922   6.683  0.0754 -1.6210  0.0867
   64SAPC   C34 5219   2.048   1.811   6.859 -0.5778  0.2357 -0.0442
   64SAPC   H4X 5220   2.139   1.748   6.855 -0.8601 -0.1190 -0.8714
   64SAPC   H4Y 5221   1.959   1.749   6.886 -0.0088 -0.4111  0.3667
   64SAPC   C35 5222   2.060   1.933   6.954  0.3638  0.4768 -0.5626
   64SAPC   H5X 5223   1.967   1.992   6.962 -1.7487 -2.5775 -0.7226
   64SAPC   H5Y 5224   2.151   1.989   6.922  1.8943 -1.5778 -0.0555
   64SAPC   C36 5225   2.085   1.890   7.104  0.6006  0.3220  0.1922
   64SAPC   H6X 5226   2.164   1.812   7.111 -1.6041 -2.2010 -0.9502
   64SAPC   H6Y 5227   1.994   1.828   7.118 -0.0163  0.9924 -0.7463
   64SAPC   C37 5228   2.103   2.009   7.196 -0.2272 -0.3830 -0.3612
   64SAPC   H7X 5229   2.010   2.067   7.175  0.3066  0.2936 -0.8931
   64SAPC   H7Y 5230   2.194   2.061   7.159  0.2844 -0.4380  0.7679
   64SAPC   C38 5231   2.118   1.961   7.346 -0.7361 -0.0050 -0.3993
   64SAPC   H8X 5232   2.201   1.887   7.347 -1.4933 -0.8591  0.1455
   64SAPC   H8Y 5233   2.026   1.904   7.369  0.0090  0.0640  3.4123
   64SAPC   C39 5234   2.143   2.083   7.441 -0.1832  0.1274 -0.5808
   64SAPC   H9X 5235   2.059   2.153   7.424 -0.1148  0.6523  1.0451
   64SAPC   H9Y 5236   2.237   2.140   7.427  1.1452 -2.3206 -2.4523
   64SAPC  C310 5237   2.116   2.048   7.592 -0.4840 -0.6233 -0.5200
   64SAPC  H10X 5238   2.199   1.982   7.623 -0.5669 -0.8859 -0.8543
   64SAPC  H10Y 5239   2.015   2.002   7.600  0.3752 -2.8102 -1.4865
   64SAPC  C311 5240   2.130   2.172   7.671 -0.3747  0.1480 -0.2802
   64SAPC  H11X 5241   2.058   2.247   7.632 -3.3797 -1.4814  1.8299
   64SAPC  H11Y 5242   2.232   2.216   7.664 -0.3037 -0.1672 -1.4173
   64SAPC  C312 5243   2.104   2.154   7.825 -0.0997  0.3392  0.9947
   64SAPC  H12X 5244   2.183   2.091   7.871 -0.5183  0.8402  2.4506
   64SAPC  H12Y 5245   2.016   2.088   7.842  0.9186 -0.7660  2.0793
   64SAPC  C313 5246   2.079   2.281   7.904  0.2820 -0.1242  0.0168
   64SAPC  H13X 5247   1.984   2.323   7.864  0.2730  1.5217  1.6095
   64SAPC  H13Y 5248   2.152   2.359   7.873 -1.5222  1.8621  0.5027
   64SAPC  C314 5249   2.056   2.257   8.053 -0.0860  0.1036 -0.0468
   64SAPC  H14X 5250   2.139   2.206   8.107  1.3494 -0.0451 -2.2855
   64SAPC  H14Y 5251   1.967   2.192   8.071  0.2447 -0.0350  1.1847
   64SAPC  C315 5252   2.022   2.391   8.129 -0.3000 -0.4337  0.4481
   64SAPC  H15X 5253   1.941   2.439   8.070 -0.6000  0.8972  1.8720
   64SAPC  H15Y 5254   2.106   2.463   8.116 -1.3315  0.3668 -2.7549
   64SAPC  C316 5255   1.990   2.380   8.282 -0.5336 -0.4560  0.1262
   64SAPC  H16X 5256   1.918   2.296   8.289  0.5453 -1.8276 -3.1976
   64SAPC  H16Y 5257   1.930   2.471   8.305 -1.1260 -0.7045 -0.4003
   64SAPC  C317 5258   2.114   2.362   8.368  0.4762 -0.2758 -0.5385
   64SAPC  H17X 5259   2.162   2.462   8.381 -2.4377  1.1392  0.2002
   64SAPC  H17Y 5260   2.186   2.296   8.315  1.5090  0.5712 -0.2331
   64SAPC  C318 5261   2.087   2.313   8.511 -0.6237  0.4162 -0.2719
   64SAPC  H18X 5262   2.069   2.404   8.573  2.4534  2.6248 -2.3501
   64SAPC  H18Y 5263   2.180   2.271   8.554  0.1788 -0.0637 -2.3586
   64SAPC  H18Z 5264   2.007   2.237   8.510  0.0589 -0.3140 -0.1992
   65SAPC     N 5265   3.904   4.484   6.367 -0.1853 -0.4079 -0.1518
   65SAPC   C12 5266   3.997   4.405   6.268  0.4495 -0.0522 -0.9238
   65SAPC  H12A 5267   4.063   4.357   6.339 -0.6931 -0.9034 -0.3886
   65SAPC  H12B 5268   4.052   4.472   6.204 -0.3705  1.0826 -0.4795
   65SAPC   C13 5269   3.992   4.567   6.456  0.5752 -0.2719 -0.5496
   65SAPC  H13A 5270   4.063   4.506   6.510  0.5667  0.8409  0.7624
   65SAPC  H13B 5271   4.055   4.637   6.403  0.6232  2.0461  2.2574
   65SAPC  H13C 5272   3.927   4.628   6.517 -2.2080 -0.8919 -2.7098
   65SAPC   C14 5273   3.815   4.577   6.292  0.8863 -0.6869 -0.6122
   65SAPC  H14A 5274   3.734   4.618   6.352  2.5296 -0.3072  1.4625
   65SAPC  H14B 5275   3.873   4.659   6.253  1.3426 -0.9103 -0.4093
   65SAPC  H14C 5276   3.770   4.536   6.202 -0.2684 -0.4088 -0.1830
   65SAPC   C15 5277   3.828   4.384   6.438 -0.8391 -0.2599 -0.3198
   65SAPC  H15A 5278   3.805   4.423   6.536  3.2098  0.6610  0.4417
   65SAPC  H15B 5279   3.738   4.351   6.388 -0.5710 -0.7530 -0.4806
   65SAPC  H15C 5280   3.886   4.296   6.462  0.4796  0.9332  1.0910
   65SAPC   C11 5281   3.936   4.294   6.181 -0.0775 -0.6909 -0.1114
   65SAPC  H11A 5282   3.992   4.282   6.086 -0.2507 -1.6925 -0.1017
   65SAPC  H11B 5283   3.835   4.329   6.151  0.8116  0.4294 -1.9009
   65SAPC     P 5284   4.057   4.090   6.263 -0.3250  0.2294  0.1047
   65SAPC   O13 5285   4.123   4.083   6.134  0.6418  0.8953  0.2356
   65SAPC   O14 5286   4.136   4.147   6.372 -0.6776 -0.0218  0.0271
   65SAPC   O12 5287   3.930   4.173   6.254 -0.1224  0.0956  0.1842
   65SAPC   O11 5288   3.996   3.948   6.304 -0.0024  0.8248  0.1731
   65SAPC    C1 5289   3.882   3.935   6.393 -0.9140 -0.8458 -0.0092
   65SAPC    HA 5290   3.794   3.992   6.356 -0.9581 -0.8196  0.1350
   65SAPC    HB 5291   3.857   3.827   6.399 -1.6337 -0.7557 -1.1671
   65SAPC    C2 5292   3.917   3.968   6.543 -0.3959 -0.8561 -1.1455
   65SAPC    HS 5293   3.947   4.075   6.544  0.1568 -1.0059 -1.2987
   65SAPC   O21 5294   4.026   3.885   6.584  0.0348  0.4279 -0.7300
   65SAPC   C21 5295   4.128   3.923   6.659  0.0813 -0.7002 -0.1109
   65SAPC   O22 5296   4.148   4.039   6.697 -0.1110 -1.0032  0.2781
   65SAPC   C22 5297   4.212   3.806   6.688 -0.8792  0.2812 -0.1363
   65SAPC   H2R 5298   4.251   3.749   6.601 -1.4741  0.1136 -0.3001
   65SAPC   H2S 5299   4.291   3.852   6.751 -1.8468  1.9573 -0.0815
   65SAPC    C3 5300   3.800   3.957   6.643 -0.0289 -0.1976 -0.3111
   65SAPC    HX 5301   3.743   3.863   6.627 -0.6375 -0.1460  1.3439
   65SAPC    HY 5302   3.736   4.047   6.639  1.6659  1.1229  0.7387
   65SAPC   O31 5303   3.854   3.962   6.780 -0.4603  0.7032  0.0106
   65SAPC   C31 5304   3.877   4.083   6.831  0.0101 -0.1387 -0.1756
   65SAPC   O32 5305   3.869   4.188   6.771 -0.0435 -0.0498 -0.4853
   65SAPC   C32 5306   3.906   4.070   6.977 -0.4686 -0.6246 -0.1445
   65SAPC   H2X 5307   3.935   4.170   7.013 -0.9874 -0.2154 -0.8294
   65SAPC   H2Y 5308   3.986   3.994   6.991 -0.2773 -0.1580  1.4675
   65SAPC   C23 5309   4.126   3.710   6.777  0.3987  0.4033  0.4862
   65SAPC   H3R 5310   4.059   3.656   6.707  0.3167  0.0293  0.8553
   65SAPC   H3S 5311   4.068   3.768   6.852 -0.3987  1.7767 -1.1210
   65SAPC   C24 5312   4.216   3.605   6.849  0.7091 -0.3153  0.2577
   65SAPC   H4R 5313   4.289   3.660   6.912 -1.3959  1.2971  1.4245
   65SAPC   H4S 5314   4.276   3.552   6.772 -0.7199 -1.4136 -0.1345
   65SAPC   C25 5315   4.138   3.511   6.934  0.3824 -0.4342 -0.4494
   65SAPC   H5R 5316   4.049   3.470   6.884  0.1131  2.1934 -2.3322
   65SAPC   C26 5317   4.178   3.464   7.055  0.2542  0.2912  0.5504
   65SAPC   H6R 5318   4.109   3.395   7.106 -0.3856  1.1759  0.9088
   65SAPC   C27 5319   4.306   3.492   7.129 -0.4506  0.5240  0.7001
   65SAPC   H7R 5320   4.287   3.575   7.201 -0.6812  0.7700  0.3546
   65SAPC   H7S 5321   4.386   3.529   7.062 -1.0564 -0.5494 -0.6607
   65SAPC   C28 5322   4.343   3.369   7.200 -0.3173 -0.6396  0.2348
   65SAPC   H8R 5323   4.424   3.315   7.149 -1.9582 -1.6152 -1.4753
   65SAPC   C29 5324   4.277   3.312   7.302  0.7974  0.7333  0.4860
   65SAPC   H9R 5325   4.314   3.218   7.345 -0.8251  0.4370  1.3089
   65SAPC  C210 5326   4.150   3.363   7.369 -0.6955  1.4322  0.2112
   65SAPC  H10R 5327   4.105   3.277   7.423  0.9629  0.7052  0.4751
   65SAPC  H10S 5328   4.066   3.374   7.297 -0.1964 -2.0853 -1.1186
   65SAPC  C211 5329   4.160   3.488   7.454 -0.7109 -0.6486  0.3378
   65SAPC  H11R 5330   4.144   3.582   7.398 -1.0771 -1.1680 -0.4600
   65SAPC  C212 5331   4.180   3.488   7.588  0.2189 -0.0366  0.4586
   65SAPC  H12R 5332   4.174   3.585   7.640 -0.7263  1.0180 -1.4973
   65SAPC  C213 5333   4.198   3.363   7.674  0.2189  0.1218 -0.0965
   65SAPC  H13R 5334   4.125   3.284   7.647 -0.8995  1.0389  0.1625
   65SAPC  H13S 5335   4.189   3.388   7.782  2.2531 -2.8697  0.8797
   65SAPC  C214 5336   4.338   3.310   7.661  0.0800  0.0382 -0.3380
   65SAPC  H14R 5337   4.365   3.323   7.555 -1.5841  1.9083 -0.5749
   65SAPC  C215 5338   4.425   3.260   7.751 -0.1173 -0.3171 -0.1590
   65SAPC  H15R 5339   4.524   3.232   7.711 -0.2126 -0.5942 -0.2026
   65SAPC  C216 5340   4.405   3.253   7.903  0.0969  0.3168 -0.4029
   65SAPC  H16R 5341   4.439   3.153   7.940 -0.9705  0.2314  0.3936
   65SAPC  H16S 5342   4.300   3.272   7.934  0.3392  0.4535  0.3644
   65SAPC  C217 5343   4.496   3.356   7.976 -0.1642 -0.3756 -0.4635
   65SAPC  H17R 5344   4.464   3.459   7.950  0.2862 -0.4497 -1.3259
   65SAPC  H17S 5345   4.596   3.352   7.929  0.2635 -1.3009  0.4815
   65SAPC  C218 5346   4.519   3.345   8.125  0.4295 -0.0610 -0.5242
   65SAPC  H18R 5347   4.420   3.344   8.176  0.2609  0.9784 -0.8145
   65SAPC  H18S 5348   4.585   3.431   8.148  1.6986 -1.2801  0.5723
   65SAPC  C219 5349   4.598   3.219   8.150 -0.0658  0.6943  0.3736
   65SAPC  H19R 5350   4.697   3.238   8.104 -0.2445  2.8393  0.7346
   65SAPC  H19S 5351   4.545   3.134   8.102  0.0783  0.7208  0.1684
   65SAPC  C220 5352   4.629   3.191   8.298 -0.2186  1.0253 -0.2531
   65SAPC  H20R 5353   4.537   3.164   8.354 -0.8908  0.4479 -1.5929
   65SAPC  H20S 5354   4.666   3.291   8.330  0.3466  1.5136 -2.2967
   65SAPC  H20T 5355   4.707   3.115   8.319 -0.2070  0.9595 -0.5316
   65SAPC   C33 5356   3.779   4.030   7.063 -0.2136  0.5759 -0.1184
   65SAPC   H3X 5357   3.746   3.933   7.019  3.4114 -1.2773  0.7980
   65SAPC   H3Y 5358   3.711   4.117   7.067  0.6532  1.2739 -0.2540
   65SAPC   C34 5359   3.808   3.992   7.215 -0.0354  0.1792  0.8780
   65SAPC   H4X 5360   3.889   4.060   7.250  0.0712  0.1540  0.6833
   65SAPC   H4Y 5361   3.853   3.892   7.231 -1.4420 -0.8559 -1.1876
   65SAPC   C35 5362   3.691   4.016   7.309 -0.4144  0.8095  0.0500
   65SAPC   H5X 5363   3.606   3.959   7.267 -0.2079  1.2030 -0.9324
   65SAPC   H5Y 5364   3.667   4.124   7.312 -0.3345  0.8175  2.8113
   65SAPC   C36 5365   3.722   3.979   7.458 -0.1481 -0.4286  0.4929
   65SAPC   H6X 5366   3.805   4.046   7.489 -0.1087 -0.3644  0.2493
   65SAPC   H6Y 5367   3.756   3.874   7.455 -0.0776 -0.5174  2.6851
   65SAPC   C37 5368   3.603   3.993   7.552  0.2104 -0.0041  0.1343
   65SAPC   H7X 5369   3.513   3.944   7.510  0.1992 -1.9968  2.2883
   65SAPC   H7Y 5370   3.580   4.101   7.566  0.2026 -0.1234  1.1562
   65SAPC   C38 5371   3.628   3.921   7.680 -0.4594  0.4573  0.4217
   65SAPC   H8X 5372   3.733   3.910   7.714 -0.4614  0.6877  0.5074
   65SAPC   H8Y 5373   3.588   3.818   7.671 -1.0288  0.7137 -0.0355
   65SAPC   C39 5374   3.546   3.983   7.794 -0.4648  0.6891 -0.4825
   65SAPC   H9X 5375   3.437   3.979   7.773 -0.6952  3.6239 -0.2990
   65SAPC   H9Y 5376   3.574   4.090   7.782 -0.4868  0.6755 -0.6557
   65SAPC  C310 5377   3.588   3.931   7.929 -0.2832 -0.2108 -0.1543
   65SAPC  H10X 5378   3.694   3.898   7.925 -0.3430 -0.7021  1.5804
   65SAPC  H10Y 5379   3.525   3.843   7.956  0.5281 -0.7632 -0.0385
   65SAPC  C311 5380   3.586   4.047   8.034  0.0437 -0.1073  0.3853
   65SAPC  H11X 5381   3.487   4.096   8.018  0.2554 -0.4776 -2.5639
   65SAPC  H11Y 5382   3.665   4.119   8.005 -0.8570  0.1307 -1.6802
   65SAPC  C312 5383   3.595   3.994   8.182 -0.1467 -0.9043  0.0356
   65SAPC  H12X 5384   3.502   3.940   8.209 -0.7460 -0.5149 -1.1491
   65SAPC  H12Y 5385   3.595   4.086   8.244  3.0410  0.0912 -1.2145
   65SAPC  C313 5386   3.723   3.912   8.207  0.0294 -0.7792 -0.2015
   65SAPC  H13X 5387   3.807   3.969   8.163 -0.9419  4.3062  3.6347
   65SAPC  H13Y 5388   3.711   3.808   8.169 -1.3088 -0.5619 -0.4282
   65SAPC  C314 5389   3.760   3.911   8.357  0.0901  0.2844 -0.5721
   65SAPC  H14X 5390   3.752   4.016   8.393  0.4933 -0.1335  0.7887
   65SAPC  H14Y 5391   3.864   3.876   8.370  0.1426  0.6277 -0.0501
   65SAPC  C315 5392   3.661   3.825   8.449 -0.3350  0.2485  0.3405
   65SAPC  H15X 5393   3.701   3.722   8.440  1.2917  0.9874 -1.8067
   65SAPC  H15Y 5394   3.558   3.831   8.409  0.1438  0.0637 -0.9617
   65SAPC  C316 5395   3.649   3.846   8.601 -1.2145  0.2960  0.8461
   65SAPC  H16X 5396   3.549   3.891   8.617 -1.7732 -0.6567  0.1443
   65SAPC  H16Y 5397   3.732   3.912   8.633  0.6028 -1.0866 -0.7236
   65SAPC  C317 5398   3.658   3.713   8.692  0.2803  0.4365 -0.1288
   65SAPC  H17X 5399   3.650   3.746   8.798 -2.3415  0.2190 -0.1800
   65SAPC  H17Y 5400   3.757   3.667   8.675  0.1797  0.1620  0.0205
   65SAPC  C318 5401   3.546   3.607   8.670 -0.0143  0.0255 -0.8928
   65SAPC  H18X 5402   3.450   3.650   8.704  1.2565  1.1306  1.6198
   65SAPC  H18Y 5403   3.556   3.514   8.731 -2.1105  0.2963 -0.0684
   65SAPC  H18Z 5404   3.543   3.578   8.563  0.3408  1.3472 -1.2806
   66SAPC     N 5405   5.786   2.196   5.981 -0.2727  0.0397 -0.0242
   66SAPC   C12 5406   5.696   2.228   6.092  0.3375  0.3106 -0.3282
   66SAPC  H12A 5407   5.747   2.299   6.156  1.2236 -0.1956 -0.4553
   66SAPC  H12B 5408   5.682   2.140   6.152  2.2047  0.6593  0.6794
   66SAPC   C13 5409   5.731   2.096   5.885  0.2201  0.6161 -0.4827
   66SAPC  H13A 5410   5.633   2.129   5.854  0.5772  1.8291 -0.3857
   66SAPC  H13B 5411   5.786   2.103   5.792 -1.0225  0.6661 -1.2381
   66SAPC  H13C 5412   5.739   1.995   5.920 -2.1184  0.4852 -0.1925
   66SAPC   C14 5413   5.826   2.330   5.918  0.1744 -0.1561  0.0716
   66SAPC  H14A 5414   5.908   2.314   5.850  0.7103 -1.2636  0.9542
   66SAPC  H14B 5415   5.732   2.378   5.896  0.6710  0.9981  0.3793
   66SAPC  H14C 5416   5.867   2.399   5.991 -1.9406 -0.3783  1.5636
   66SAPC   C15 5417   5.923   2.139   6.026 -0.3214 -0.1403  0.1194
   66SAPC  H15A 5418   5.963   2.208   6.099 -0.4166  2.0097 -1.7509
   66SAPC  H15B 5419   5.906   2.043   6.071 -2.1489  0.2098  0.2550
   66SAPC  H15C 5420   5.988   2.122   5.941 -0.6203  2.6458 -0.7840
   66SAPC   C11 5421   5.550   2.271   6.060  0.0592  0.4403  0.3044
   66SAPC  H11A 5422   5.555   2.356   5.988  2.1983 -1.0809 -1.4793
   66SAPC  H11B 5423   5.504   2.313   6.152  0.8933  1.4609  0.2755
   66SAPC     P 5424   5.387   2.067   6.065  0.1222 -0.1593 -0.0230
   66SAPC   O13 5425   5.259   2.133   6.096 -0.3799 -0.2871 -0.0011
   66SAPC   O14 5426   5.388   1.938   5.988  0.4064 -0.7513 -0.3527
   66SAPC   O12 5427   5.477   2.169   5.997 -0.1297 -0.5253  0.0173
   66SAPC   O11 5428   5.459   2.033   6.195 -0.1221 -0.2984 -0.1978
   66SAPC    C1 5429   5.558   1.931   6.209  0.1983  0.0223  0.6984
   66SAPC    HA 5430   5.514   1.829   6.199 -2.2691  0.9857  1.2342
   66SAPC    HB 5431   5.643   1.947   6.139  0.6857 -0.5545  1.1492
   66SAPC    C2 5432   5.621   1.948   6.347  0.0056 -0.6847 -0.2692
   66SAPC    HS 5433   5.534   1.962   6.414  1.8623  0.7260  1.9855
   66SAPC   O21 5434   5.700   2.073   6.345 -0.0439  0.8168 -0.4404
   66SAPC   C21 5435   5.715   2.112   6.475  0.3316 -0.3315 -0.0590
   66SAPC   O22 5436   5.640   2.075   6.565 -0.0046 -0.1918 -0.3195
   66SAPC   C22 5437   5.833   2.212   6.480  0.5395 -0.3910  0.5068
   66SAPC   H2R 5438   5.924   2.157   6.448  1.0227  0.7862 -0.1823
   66SAPC   H2S 5439   5.804   2.285   6.401 -0.5658 -1.6833 -0.3359
   66SAPC    C3 5440   5.700   1.823   6.384  0.2328 -0.0123  0.0812
   66SAPC    HX 5441   5.802   1.833   6.339 -0.1565  1.9434 -0.4647
   66SAPC    HY 5442   5.654   1.740   6.326  1.5348 -0.4280 -0.3969
   66SAPC   O31 5443   5.706   1.779   6.523  0.6390  0.0672  0.0070
   66SAPC   C31 5444   5.817   1.807   6.589  0.0199  0.1297 -0.1895
   66SAPC   O32 5445   5.905   1.870   6.542 -0.2102 -0.0343  0.1160
   66SAPC   C32 5446   5.807   1.773   6.739 -0.3232  0.3367  0.6538
   66SAPC   H2X 5447   5.758   1.673   6.734 -0.9084  0.6362  0.2801
   66SAPC   H2Y 5448   5.724   1.838   6.774 -1.3567  1.7176 -3.7785
   66SAPC   C23 5449   5.846   2.266   6.620 -0.1922 -0.4254 -0.4420
   66SAPC   H3R 5450   5.751   2.312   6.654  0.5407  1.5813 -0.9220
   66SAPC   H3S 5451   5.920   2.349   6.633 -2.0149  1.2335 -0.2126
   66SAPC   C24 5452   5.892   2.150   6.716 -0.3011  0.0246  0.3019
   66SAPC   H4R 5453   5.987   2.117   6.667 -0.2681  0.5502  0.0085
   66SAPC   H4S 5454   5.822   2.065   6.730 -1.7487  1.0268 -0.6073
   66SAPC   C25 5455   5.941   2.204   6.847  0.2668 -0.4084  0.4655
   66SAPC   H5R 5456   6.043   2.245   6.852  0.6690 -1.4898  1.9087
   66SAPC   C26 5457   5.858   2.224   6.948 -0.3966  0.5997 -0.2767
   66SAPC   H6R 5458   5.906   2.267   7.037 -1.7487  0.0485  0.7514
   66SAPC   C27 5459   5.715   2.186   6.965  0.1053 -0.1556 -0.2917
   66SAPC   H7R 5460   5.701   2.116   7.050  2.2988 -1.3216 -0.8042
   66SAPC   H7S 5461   5.685   2.127   6.876 -1.0095 -2.1521  1.3257
   66SAPC   C28 5462   5.622   2.295   6.980 -0.3098 -0.5877 -1.3152
   66SAPC   H8R 5463   5.617   2.362   6.893  0.5514 -1.7438 -2.2817
   66SAPC   C29 5464   5.552   2.331   7.091  0.4718 -0.2455 -0.6693
   66SAPC   H9R 5465   5.484   2.416   7.078 -0.7568 -1.1059 -0.0331
   66SAPC  C210 5466   5.545   2.260   7.226  0.2262 -0.1322  0.8197
   66SAPC  H10R 5467   5.596   2.161   7.229  1.1353  0.3238  1.0043
   66SAPC  H10S 5468   5.440   2.225   7.231 -0.6357  1.6594 -2.0720
   66SAPC  C211 5469   5.566   2.352   7.341 -0.7839 -0.7697  0.3057
   66SAPC  H11R 5470   5.613   2.448   7.312 -0.4537 -0.2174  2.4885
   66SAPC  C212 5471   5.535   2.334   7.473 -0.4756 -0.2210  0.3854
   66SAPC  H12R 5472   5.565   2.405   7.551 -0.7228  0.2218  0.0807
   66SAPC  C213 5473   5.473   2.201   7.514 -0.1864 -0.3389 -0.2049
   66SAPC  H13R 5474   5.467   2.122   7.436 -3.7689  0.0199 -0.4478
   66SAPC  H13S 5475   5.371   2.221   7.551 -0.5416  1.5278 -1.9689
   66SAPC  C214 5476   5.564   2.136   7.618  0.1839  0.6376 -0.3552
   66SAPC  H14R 5477   5.644   2.079   7.568  0.6922  0.8605  0.1863
   66SAPC  C215 5478   5.561   2.141   7.753 -0.4155  0.0751  0.6905
   66SAPC  H15R 5479   5.634   2.085   7.813  1.1890  1.7605  0.4143
   66SAPC  C216 5480   5.462   2.227   7.814  0.2139  0.1406  0.1859
   66SAPC  H16R 5481   5.384   2.278   7.754  0.7012  0.8505  0.1453
   66SAPC  H16S 5482   5.512   2.310   7.869  0.7357  0.3584 -0.6033
   66SAPC  C217 5483   5.384   2.153   7.925 -0.3463  0.3538 -0.4812
   66SAPC  H17R 5484   5.345   2.054   7.893  0.8578 -0.3348  0.1058
   66SAPC  H17S 5485   5.305   2.227   7.948 -2.1247 -1.4315 -0.5524
   66SAPC  C218 5486   5.470   2.147   8.052 -0.0982 -0.1410  0.2345
   66SAPC  H18R 5487   5.475   2.256   8.073 -1.8840 -0.0282  0.2257
   66SAPC  H18S 5488   5.570   2.116   8.014 -0.1617  1.5653 -1.4421
   66SAPC  C219 5489   5.411   2.065   8.164  0.2080  0.0844  0.6097
   66SAPC  H19R 5490   5.392   1.964   8.124 -0.5384 -0.4882  2.3286
   66SAPC  H19S 5491   5.308   2.105   8.179 -0.3806 -0.7710 -0.9665
   66SAPC  C220 5492   5.471   2.062   8.293 -0.1064 -0.0821 -0.5801
   66SAPC  H20R 5493   5.578   2.031   8.288  0.6195  2.1215  0.1377
   66SAPC  H20S 5494   5.414   1.993   8.359  0.2528  1.0078  0.9238
   66SAPC  H20T 5495   5.458   2.160   8.343 -1.2250 -0.5973  0.1762
   66SAPC   C33 5496   5.936   1.768   6.821  0.2799  0.4846 -0.4206
   66SAPC   H3X 5497   5.960   1.876   6.829  2.6527 -0.1344  2.6730
   66SAPC   H3Y 5498   6.016   1.715   6.765  1.4080  2.0253 -0.3378
   66SAPC   C34 5499   5.920   1.709   6.966 -0.1609  0.1091 -0.6633
   66SAPC   H4X 5500   6.020   1.693   7.013 -1.7167 -3.3318  1.9922
   66SAPC   H4Y 5501   5.868   1.611   6.960  1.0751 -0.6645  0.5176
   66SAPC   C35 5502   5.839   1.800   7.067  0.2738 -0.2905  0.4243
   66SAPC   H5X 5503   5.736   1.812   7.028  0.2693 -0.4527  0.3819
   66SAPC   H5Y 5504   5.878   1.903   7.052 -3.7173  1.0143 -2.5141
   66SAPC   C36 5505   5.833   1.753   7.216 -0.6445 -0.1197 -0.0770
   66SAPC   H6X 5506   5.939   1.737   7.244 -0.7200  0.0847  0.3297
   66SAPC   H6Y 5507   5.769   1.665   7.233 -0.8852  0.2397  0.9233
   66SAPC   C37 5508   5.782   1.872   7.305  0.6429  0.4155  0.2812
   66SAPC   H7X 5509   5.675   1.880   7.277  0.9916  1.4516 -0.8528
   66SAPC   H7Y 5510   5.825   1.973   7.288 -0.4271  0.9972  0.9189
   66SAPC   C38 5511   5.778   1.833   7.456  0.2704 -0.0511 -0.0400
   66SAPC   H8X 5512   5.736   1.731   7.463 -0.8673  0.3555 -0.7847
   66SAPC   H8Y 5513   5.709   1.909   7.499 -0.6457 -0.4255 -0.8212
   66SAPC   C39 5514   5.916   1.839   7.511  0.1232  0.8760 -0.1137
   66SAPC   H9X 5515   5.940   1.947   7.520 -1.2204  1.5330 -3.0798
   66SAPC   H9Y 5516   5.982   1.778   7.446 -1.4119 -1.6721  0.5682
   66SAPC  C310 5517   5.908   1.767   7.647 -0.0186  0.1520 -0.2457
   66SAPC  H10X 5518   6.016   1.759   7.673 -0.0254  0.5676 -0.0849
   66SAPC  H10Y 5519   5.880   1.660   7.636 -1.1804  0.3095  0.9534
   66SAPC  C311 5520   5.824   1.834   7.750 -0.1489 -1.0298  0.3910
   66SAPC  H11X 5521   5.722   1.800   7.722  0.3632 -1.1669 -1.3847
   66SAPC  H11Y 5522   5.835   1.945   7.742 -2.1238 -0.7260  1.3031
   66SAPC  C312 5523   5.830   1.789   7.897 -0.0805  1.1248  0.3206
   66SAPC  H12X 5524   5.935   1.789   7.934  1.1371  3.2951 -2.7263
   66SAPC  H12Y 5525   5.812   1.680   7.892 -2.6829  1.5261 -0.6840
   66SAPC  C313 5526   5.727   1.832   7.999 -0.0535 -1.4202  0.0699
   66SAPC  H13X 5527   5.624   1.793   7.981 -0.6586 -0.2830  0.9444
   66SAPC  H13Y 5528   5.723   1.943   8.000  1.0270 -1.3689  1.7149
   66SAPC  C314 5529   5.771   1.791   8.149  0.8288 -0.0728 -0.3989
   66SAPC  H14X 5530   5.804   1.685   8.147  0.1900 -0.2774 -2.0178
   66SAPC  H14Y 5531   5.678   1.797   8.209  0.0137  1.3618 -1.7430
   66SAPC  C315 5532   5.892   1.868   8.196 -0.1298 -0.5297 -0.1387
   66SAPC  H15X 5533   5.860   1.973   8.184 -3.2182 -1.3952 -0.3196
   66SAPC  H15Y 5534   5.978   1.851   8.127  0.9822 -0.6004  1.2126
   66SAPC  C316 5535   5.926   1.856   8.347 -0.1274 -0.3681  0.1126
   66SAPC  H16X 5536   6.005   1.931   8.366 -0.8478  1.0906 -2.1862
   66SAPC  H16Y 5537   5.965   1.754   8.368 -0.2632  0.0877  2.8632
   66SAPC  C317 5538   5.808   1.889   8.439  0.4091  0.4553 -0.0346
   66SAPC  H17X 5539   5.723   1.820   8.420  0.5052  0.2588  0.2421
   66SAPC  H17Y 5540   5.772   1.993   8.423  1.0403  0.8848  1.1791
   66SAPC  C318 5541   5.840   1.875   8.584  0.1123  0.5100 -0.6027
   66SAPC  H18X 5542   5.898   1.781   8.591  2.0647  1.7588  0.8006
   66SAPC  H18Y 5543   5.749   1.866   8.647  0.4555  0.9838 -0.0359
   66SAPC  H18Z 5544   5.897   1.959   8.629 -1.7910  1.7801 -0.4126
   67SAPC     N 5545   2.378   4.509   6.733  0.1150 -0.0792  0.3332
   67SAPC   C12 5546   2.270   4.606   6.785 -0.0631 -0.3738 -0.6765
   67SAPC  H12A 5547   2.323   4.677   6.847  1.2377  0.4087 -2.6005
   67SAPC  H12B 5548   2.211   4.560   6.863  0.7448  0.0909  0.2391
   67SAPC   C13 5549   2.445   4.560   6.610 -0.2386  0.1505 -0.2440
   67SAPC  H13A 5550   2.495   4.653   6.631 -0.0459 -0.0723  0.2949
   67SAPC  H13B 5551   2.523   4.493   6.577 -0.1510  0.2904 -0.3214
   67SAPC  H13C 5552   2.372   4.567   6.531  1.3078  1.9678 -1.6009
   67SAPC   C14 5553   2.492   4.477   6.820 -0.4072  0.0524  0.1961
   67SAPC  H14A 5554   2.556   4.401   6.778 -0.3972  0.2341 -0.1202
   67SAPC  H14B 5555   2.551   4.567   6.831  0.7746  0.1234 -4.6090
   67SAPC  H14C 5556   2.451   4.449   6.916 -0.2950  2.9569  1.2149
   67SAPC   C15 5557   2.310   4.378   6.691  0.3573  0.3032 -0.1043
   67SAPC  H15A 5558   2.378   4.328   6.624  1.5573 -2.1384  2.7422
   67SAPC  H15B 5559   2.284   4.314   6.774  1.6712  0.0340  0.1175
   67SAPC  H15C 5560   2.222   4.405   6.634 -0.7981  0.5105  1.7082
   67SAPC   C11 5561   2.180   4.683   6.682  0.4461 -0.4461 -0.1769
   67SAPC  H11A 5562   2.247   4.750   6.622  1.4600 -0.6349  0.7220
   67SAPC  H11B 5563   2.116   4.749   6.743  1.6886  1.7514 -1.1064
   67SAPC     P 5564   1.978   4.521   6.633  0.2739 -0.0128  0.3511
   67SAPC   O13 5565   1.860   4.601   6.595  0.2653 -0.2642  0.0550
   67SAPC   O14 5566   1.992   4.390   6.571  0.6019  0.1654 -0.2087
   67SAPC   O12 5567   2.114   4.593   6.600 -0.4039  0.2783  0.5324
   67SAPC   O11 5568   1.984   4.506   6.786  0.2424 -0.2122 -0.4608
   67SAPC    C1 5569   1.900   4.405   6.844  0.4663 -0.6208 -0.3173
   67SAPC    HA 5570   1.793   4.435   6.843  0.9235  1.4552  2.0232
   67SAPC    HB 5571   1.910   4.303   6.801  2.1218 -0.4697 -0.3580
   67SAPC    C2 5572   1.944   4.385   6.997 -1.0894  0.0698 -0.0587
   67SAPC    HS 5573   2.043   4.334   6.985 -1.1255  0.5448 -3.1407
   67SAPC   O21 5574   1.853   4.302   7.076 -0.0328 -0.2281 -0.0030
   67SAPC   C21 5575   1.827   4.175   7.031 -0.1794 -0.0651  0.1633
   67SAPC   O22 5576   1.876   4.130   6.928 -0.1018  0.2687  0.0612
   67SAPC   C22 5577   1.742   4.094   7.130 -0.4602 -0.3646  0.4208
   67SAPC   H2R 5578   1.646   4.143   7.155 -0.2436  0.1854  0.1820
   67SAPC   H2S 5579   1.727   4.002   7.069  1.6980 -0.1920 -0.4651
   67SAPC    C3 5580   1.968   4.514   7.079 -0.2259 -0.1200 -0.4179
   67SAPC    HX 5581   1.869   4.560   7.097  0.1025  0.6743 -0.6126
   67SAPC    HY 5582   2.013   4.588   7.009  0.2446 -2.5234 -2.8547
   67SAPC   O31 5583   2.049   4.477   7.195  0.2403 -0.5172 -0.2366
   67SAPC   C31 5584   1.967   4.476   7.308  0.6916 -0.2502 -0.2384
   67SAPC   O32 5585   1.851   4.505   7.311 -0.3141  0.2481  0.2115
   67SAPC   C32 5586   2.048   4.433   7.424 -0.7919 -0.1993  0.0408
   67SAPC   H2X 5587   2.144   4.489   7.421 -1.2699  0.6052 -0.3863
   67SAPC   H2Y 5588   2.062   4.324   7.407 -0.2924  0.1213 -1.8964
   67SAPC   C23 5589   1.821   4.044   7.262  0.6022  1.1343 -0.1284
   67SAPC   H3R 5590   1.929   4.037   7.237  0.8070  0.5244  0.8882
   67SAPC   H3S 5591   1.766   3.952   7.294  2.2305 -0.4730 -1.6939
   67SAPC   C24 5592   1.814   4.148   7.381 -0.1631  0.1081  0.3853
   67SAPC   H4R 5593   1.873   4.238   7.353  1.3895 -1.0326 -0.1800
   67SAPC   H4S 5594   1.875   4.099   7.460 -1.2600  1.6067  2.2600
   67SAPC   C25 5595   1.669   4.172   7.432 -0.1647  0.1065 -0.7215
   67SAPC   H5R 5596   1.599   4.207   7.355 -0.0460  4.8404  0.9780
   67SAPC   C26 5597   1.628   4.168   7.562 -0.1239 -0.6275  0.5656
   67SAPC   H6R 5598   1.524   4.200   7.576 -0.4179  0.0691 -2.6317
   67SAPC   C27 5599   1.706   4.145   7.688 -0.1576  0.3198  0.7100
   67SAPC   H7R 5600   1.671   4.219   7.762 -1.6895 -0.4957  0.8487
   67SAPC   H7S 5601   1.814   4.166   7.672  0.8647 -3.8652  0.8940
   67SAPC   C28 5602   1.707   4.001   7.741  0.4299 -0.6627  0.2585
   67SAPC   H8R 5603   1.685   3.918   7.672  0.3458 -0.4103 -0.0169
   67SAPC   C29 5604   1.732   3.964   7.869  0.1895 -0.3530 -0.3548
   67SAPC   H9R 5605   1.747   3.857   7.886  0.0211 -0.2205  0.6847
   67SAPC  C210 5606   1.771   4.051   7.987 -0.0032 -0.2616 -0.2398
   67SAPC  H10R 5607   1.752   3.988   8.076  2.4639 -0.4535  0.1974
   67SAPC  H10S 5608   1.703   4.139   7.993  0.3906  0.2255 -2.1985
   67SAPC  C211 5609   1.917   4.106   7.965 -0.0289  0.6748 -0.5920
   67SAPC  H11R 5610   1.955   4.132   7.866  0.9771 -1.2504 -0.7523
   67SAPC  C212 5611   2.003   4.126   8.069 -0.0726  0.0186  0.1468
   67SAPC  H12R 5612   2.103   4.164   8.043  0.1132  0.5666  1.5588
   67SAPC  C213 5613   1.983   4.103   8.221 -0.0957 -0.5317 -0.2057
   67SAPC  H13R 5614   1.875   4.115   8.245 -0.2689 -0.2005 -1.0950
   67SAPC  H13S 5615   2.038   4.185   8.271  0.4545 -0.7032 -0.5216
   67SAPC  C214 5616   2.040   3.983   8.290 -0.4045  0.2872  0.1551
   67SAPC  H14R 5617   2.023   3.895   8.226  0.1819  2.1641 -2.7688
   67SAPC  C215 5618   2.095   3.980   8.410 -0.4610  0.6556  0.7028
   67SAPC  H15R 5619   2.118   3.879   8.448  0.4074  0.9758  1.0566
   67SAPC  C216 5620   2.110   4.097   8.503  0.2253 -0.1134 -0.2301
   67SAPC  H16R 5621   2.057   4.075   8.598  1.5798 -1.9278  0.1546
   67SAPC  H16S 5622   2.050   4.185   8.471  1.6590  0.8876 -0.3017
   67SAPC  C217 5623   2.251   4.143   8.528  0.5727  0.0052  0.4589
   67SAPC  H17R 5624   2.301   4.158   8.430 -0.2354 -0.9773 -0.1247
   67SAPC  H17S 5625   2.309   4.060   8.574  1.2429  0.3607  0.2766
   67SAPC  C218 5626   2.247   4.271   8.605 -0.4304 -0.4499  0.2804
   67SAPC  H18R 5627   2.195   4.350   8.547  1.2492  0.0004 -0.6727
   67SAPC  H18S 5628   2.352   4.307   8.603 -1.2085  1.9871  0.2497
   67SAPC  C219 5629   2.198   4.259   8.749  0.3191  0.4565 -1.1633
   67SAPC  H19R 5630   2.228   4.163   8.797  0.1514  2.2816  2.9960
   67SAPC  H19S 5631   2.087   4.260   8.752  0.2679  3.0462  3.0991
   67SAPC  C220 5632   2.265   4.362   8.844  0.4067  0.1615 -0.2587
   67SAPC  H20R 5633   2.375   4.351   8.831  0.1999  0.6448 -3.0176
   67SAPC  H20S 5634   2.238   4.360   8.952 -0.3392 -0.9936 -0.4398
   67SAPC  H20T 5635   2.229   4.463   8.816 -1.9570 -0.2660  1.0065
   67SAPC   C33 5636   1.962   4.453   7.551  0.3279  0.3952 -0.4197
   67SAPC   H3X 5637   1.858   4.414   7.544 -0.5122  2.4661 -0.1684
   67SAPC   H3Y 5638   1.950   4.564   7.558 -1.1488  0.2914 -1.0152
   67SAPC   C34 5639   2.023   4.389   7.680 -1.0376 -0.4425  0.1132
   67SAPC   H4X 5640   2.026   4.278   7.679 -0.7415 -0.5979  4.1087
   67SAPC   H4Y 5641   1.967   4.417   7.772 -0.2512 -0.3522  0.5748
   67SAPC   C35 5642   2.172   4.438   7.714 -0.2762 -0.2775 -0.2716
   67SAPC   H5X 5643   2.184   4.548   7.722 -0.3262 -0.3726  1.4398
   67SAPC   H5Y 5644   2.241   4.398   7.637  0.5212  1.1515 -0.3207
   67SAPC   C36 5645   2.220   4.394   7.853  0.7157 -0.3823 -0.2049
   67SAPC   H6X 5646   2.331   4.393   7.855  0.7295 -1.5037  1.9407
   67SAPC   H6Y 5647   2.193   4.290   7.882  0.8081  0.1898  2.1028
   67SAPC   C37 5648   2.171   4.499   7.957 -0.0372  0.1975 -0.1822
   67SAPC   H7X 5649   2.067   4.521   7.926 -0.4730 -2.6933 -1.1108
   67SAPC   H7Y 5650   2.235   4.589   7.946  0.5168  0.1508  2.1398
   67SAPC   C38 5651   2.170   4.450   8.104 -0.1204 -0.4360  0.6192
   67SAPC   H8X 5652   2.270   4.419   8.141 -0.1828  0.9307  2.0160
   67SAPC   H8Y 5653   2.106   4.360   8.115  0.4445 -1.2593 -2.0091
   67SAPC   C39 5654   2.112   4.548   8.203  0.3747 -0.6464 -0.9430
   67SAPC   H9X 5655   2.005   4.567   8.181  0.2596 -0.5724 -0.3404
   67SAPC   H9Y 5656   2.157   4.647   8.181  1.3674 -0.3284  2.0429
   67SAPC  C310 5657   2.112   4.498   8.354 -0.7936 -0.1194  0.3186
   67SAPC  H10X 5658   2.218   4.505   8.387  0.3912 -1.1417 -2.8845
   67SAPC  H10Y 5659   2.079   4.392   8.352 -0.3828 -0.2556  0.5522
   67SAPC  C311 5660   2.024   4.581   8.437  0.1346  1.1637 -0.0929
   67SAPC  H11X 5661   1.923   4.562   8.395  0.3709 -1.7657  0.4533
   67SAPC  H11Y 5662   2.058   4.686   8.423  2.3299  0.3426 -1.4480
   67SAPC  C312 5663   2.019   4.550   8.593 -0.2906  0.3989 -0.0741
   67SAPC  H12X 5664   2.125   4.558   8.624 -0.6408  1.6698  0.9164
   67SAPC  H12Y 5665   1.981   4.446   8.599 -0.3214  0.5002  1.8886
   67SAPC  C313 5666   1.943   4.649   8.688  0.0053 -0.3711  0.8413
   67SAPC  H13X 5667   1.842   4.657   8.643  0.8692 -0.1638 -1.1691
   67SAPC  H13Y 5668   1.985   4.752   8.680 -0.2756 -0.3977 -1.4846
   67SAPC  C314 5669   1.960   4.611   8.836 -0.8140  0.5901  0.3262
   67SAPC  H14X 5670   1.938   4.701   8.897 -3.0479  0.2735  0.0716
   67SAPC  H14Y 5671   2.067   4.589   8.856 -0.6911 -2.2345 -2.7329
   67SAPC  C315 5672   1.869   4.488   8.875 -0.3148 -0.4730 -1.0287
   67SAPC  H15X 5673   1.866   4.398   8.810 -2.0378 -0.4920 -0.9516
   67SAPC  H15Y 5674   1.763   4.521   8.878 -0.5137 -1.1439 -0.0824
   67SAPC  C316 5675   1.894   4.426   9.015  0.0858 -0.1587  0.0842
   67SAPC  H16X 5676   1.869   4.498   9.095 -1.4415  1.8178 -2.0478
   67SAPC  H16Y 5677   2.001   4.399   9.032 -0.4296 -1.9307  0.8101
   67SAPC  C317 5678   1.799   4.306   9.037  0.7310  0.2191  0.9368
   67SAPC  H17X 5679   1.816   4.267   9.139  1.3477 -2.1334  0.0138
   67SAPC  H17Y 5680   1.835   4.223   8.972 -2.2030 -0.2822 -0.2311
   67SAPC  C318 5681   1.653   4.342   9.013  0.8570 -0.6727  0.4755
   67SAPC  H18X 5682   1.590   4.273   9.074 -0.1841 -0.8649 -0.7872
   67SAPC  H18Y 5683   1.624   4.348   8.907 -2.9245 -0.0519  1.4192
   67SAPC  H18Z 5684   1.627   4.438   9.061  2.1963 -0.0803  0.0557
   68SAPC     N 5685   0.556   1.208   6.147  0.4311 -0.1028 -0.1905
   68SAPC   C12 5686   0.651   1.158   6.255 -0.2426  0.5699  0.8021
   68SAPC  H12A 5687   0.619   1.216   6.340 -1.2003  2.0326 -0.5045
   68SAPC  H12B 5688   0.751   1.189   6.228  0.0227  1.3005  2.4744
   68SAPC   C13 5689   0.566   1.138   6.017  0.1184  0.0272 -0.0113
   68SAPC  H13A 5690   0.497   1.162   5.937 -1.4830  0.8110  1.5280
   68SAPC  H13B 5691   0.667   1.150   5.982  0.0352  1.8312  0.2272
   68SAPC  H13C 5692   0.557   1.033   6.037  0.6240 -0.2231 -1.0204
   68SAPC   C14 5693   0.415   1.185   6.194 -0.1941  0.4858 -0.3027
   68SAPC  H14A 5694   0.400   1.240   6.285  2.3163  1.8393 -0.6165
   68SAPC  H14B 5695   0.347   1.215   6.116  1.4746  3.1158 -0.8700
   68SAPC  H14C 5696   0.412   1.078   6.209  1.9717  0.4360  0.0541
   68SAPC   C15 5697   0.575   1.354   6.127 -0.1116  0.0894  0.1593
   68SAPC  H15A 5698   0.517   1.382   6.040 -0.3266  2.4561  0.9992
   68SAPC  H15B 5699   0.534   1.412   6.209 -2.2009 -0.4682 -0.4318
   68SAPC  H15C 5700   0.679   1.379   6.110 -0.1805 -0.1316 -0.6129
   68SAPC   C11 5701   0.644   1.009   6.297  0.1004  1.1360 -0.1281
   68SAPC  H11A 5702   0.738   0.992   6.355  0.7785  0.3402 -1.4023
   68SAPC  H11B 5703   0.654   0.942   6.209 -1.8168  0.0633  0.4103
   68SAPC     P 5704   0.512   0.892   6.496 -0.0090 -0.0825 -0.2499
   68SAPC   O13 5705   0.372   0.838   6.511 -0.8346  0.0928  0.3423
   68SAPC   O14 5706   0.625   0.802   6.500 -0.9989  0.1195 -0.8300
   68SAPC   O12 5707   0.521   0.978   6.362  0.4568 -0.0868 -0.2547
   68SAPC   O11 5708   0.526   1.005   6.603  0.2883  0.1608 -0.2470
   68SAPC    C1 5709   0.663   1.034   6.656 -0.0075 -0.0399 -0.4859
   68SAPC    HA 5710   0.707   0.947   6.708  0.8697  1.0885  0.7510
   68SAPC    HB 5711   0.731   1.079   6.581 -0.1767 -0.3234 -0.8145
   68SAPC    C2 5712   0.649   1.139   6.770 -0.2847 -0.0241 -0.1715
   68SAPC    HS 5713   0.751   1.162   6.807 -0.9987  0.4544  1.5886
   68SAPC   O21 5714   0.569   1.080   6.875  0.4694 -0.4512  0.1892
   68SAPC   C21 5715   0.624   0.989   6.951  0.9323  0.2080 -0.1006
   68SAPC   O22 5716   0.743   0.953   6.946  0.0262 -0.6554 -0.2461
   68SAPC   C22 5717   0.517   0.918   7.021  0.4559  0.3644 -0.3364
   68SAPC   H2R 5718   0.426   0.976   7.046 -2.1099 -3.0284 -1.0082
   68SAPC   H2S 5719   0.486   0.828   6.964  1.6369 -1.1957  1.3538
   68SAPC    C3 5720   0.572   1.258   6.706  0.3172  0.3161  0.9810
   68SAPC    HX 5721   0.487   1.242   6.636  1.1583  0.1307 -0.0135
   68SAPC    HY 5722   0.647   1.305   6.640  1.3257 -1.2515  0.9532
   68SAPC   O31 5723   0.539   1.356   6.808 -0.7463 -0.2154  0.6629
   68SAPC   C31 5724   0.421   1.340   6.868  0.3921 -0.3780 -0.5688
   68SAPC   O32 5725   0.326   1.280   6.822 -0.3308  0.1111 -0.1809
   68SAPC   C32 5726   0.420   1.400   7.008  0.5638 -0.4207  0.0794
   68SAPC   H2X 5727   0.315   1.412   7.043  1.3813  2.0312  1.9517
   68SAPC   H2Y 5728   0.467   1.501   7.011  0.7995 -0.5166 -0.3225
   68SAPC   C23 5729   0.575   0.854   7.146  0.1879 -0.3722 -0.1174
   68SAPC   H3R 5730   0.660   0.784   7.132  0.2115 -0.5631  0.8770
   68SAPC   H3S 5731   0.496   0.791   7.192 -1.9221  2.2638  0.1017
   68SAPC   C24 5732   0.593   0.958   7.254  0.1184  0.5194 -0.6858
   68SAPC   H4R 5733   0.499   1.008   7.289 -0.0754  0.8890 -1.7103
   68SAPC   H4S 5734   0.654   1.043   7.216 -2.5212  2.0591 -1.7272
   68SAPC   C25 5735   0.664   0.896   7.377  0.2311  0.1224 -0.7292
   68SAPC   H5R 5736   0.752   0.832   7.359  0.5875 -0.3823  2.2796
   68SAPC   C26 5737   0.616   0.886   7.500 -0.3594  0.1705 -0.4637
   68SAPC   H6R 5738   0.683   0.842   7.575 -0.6110 -1.3860 -1.1153
   68SAPC   C27 5739   0.491   0.958   7.549  0.9889  0.0808 -0.1351
   68SAPC   H7R 5740   0.407   0.986   7.482 -1.4381  1.0438  3.0763
   68SAPC   H7S 5741   0.530   1.058   7.580 -1.2812  0.9631  0.0938
   68SAPC   C28 5742   0.415   0.896   7.670 -0.0280 -0.0958 -0.0188
   68SAPC   H8R 5743   0.319   0.851   7.638 -0.7997  0.8602  0.8914
   68SAPC   C29 5744   0.443   0.876   7.801 -0.0294  0.3028 -0.0117
   68SAPC   H9R 5745   0.363   0.827   7.858 -1.5988  2.6458 -0.0687
   68SAPC  C210 5746   0.573   0.923   7.863 -0.1708 -0.6804 -0.3231
   68SAPC  H10R 5747   0.647   0.965   7.792  2.1921 -1.2500  1.6486
   68SAPC  H10S 5748   0.634   0.838   7.901 -1.5168 -0.9342  1.4046
   68SAPC  C211 5749   0.528   1.026   7.975 -0.4970 -0.2158 -0.4666
   68SAPC  H11R 5750   0.456   1.099   7.934 -0.5764 -0.1028 -0.1238
   68SAPC  C212 5751   0.572   1.035   8.104  0.1486  0.5133 -0.0976
   68SAPC  H12R 5752   0.514   1.104   8.166  0.4351  1.5905 -0.9848
   68SAPC  C213 5753   0.675   0.939   8.173 -0.5237  0.2008 -0.6658
   68SAPC  H13R 5754   0.739   0.882   8.102  0.6604 -0.1679  0.6431
   68SAPC  H13S 5755   0.620   0.874   8.244  1.0745 -0.1323  0.3455
   68SAPC  C214 5756   0.770   1.031   8.246  0.8940  0.4307  0.6737
   68SAPC  H14R 5757   0.840   1.085   8.180 -0.9863  1.2643 -0.7555
   68SAPC  C215 5758   0.762   1.068   8.376 -0.1504 -0.0279  0.3559
   68SAPC  H15R 5759   0.811   1.158   8.417  1.8188 -1.7434  1.9931
   68SAPC  C216 5760   0.651   1.014   8.459  0.3860 -0.0944  0.4123
   68SAPC  H16R 5761   0.664   0.909   8.493  0.1506  0.1466  1.2795
   68SAPC  H16S 5762   0.557   1.007   8.401  1.1040  1.7106 -1.0363
   68SAPC  C217 5763   0.624   1.119   8.574  0.2979 -0.2326  0.4375
   68SAPC  H17R 5764   0.583   1.214   8.533 -0.6673 -1.0777 -0.6434
   68SAPC  H17S 5765   0.713   1.158   8.628 -0.7805  0.7741  1.5260
   68SAPC  C218 5766   0.522   1.061   8.671  0.3051  0.1943  0.7312
   68SAPC  H18R 5767   0.554   0.961   8.708 -1.9338 -2.3402 -3.3663
   68SAPC  H18S 5768   0.425   1.041   8.620  0.2252 -0.9278  1.2819
   68SAPC  C219 5769   0.494   1.155   8.790 -0.5802 -0.1127  0.0882
   68SAPC  H19R 5770   0.588   1.173   8.847 -0.2908 -2.1542  0.3364
   68SAPC  H19S 5771   0.436   1.092   8.860 -2.5215  2.4025  0.8686
   68SAPC  C220 5772   0.417   1.282   8.753 -0.0418 -0.7640 -0.3333
   68SAPC  H20R 5773   0.312   1.263   8.723 -1.0699  2.8928  0.4679
   68SAPC  H20S 5774   0.468   1.331   8.668 -2.5788  0.6574 -1.1267
   68SAPC  H20T 5775   0.408   1.353   8.839 -1.6408  1.3974 -2.1805
   68SAPC   C33 5776   0.483   1.305   7.121  0.5879 -0.0234 -0.0751
   68SAPC   H3X 5777   0.590   1.285   7.099  0.3362 -2.0549  0.3825
   68SAPC   H3Y 5778   0.432   1.208   7.106  0.2642 -0.3443  2.6018
   68SAPC   C34 5779   0.463   1.347   7.256 -0.4783 -1.1187  0.0076
   68SAPC   H4X 5780   0.478   1.457   7.256 -0.4468 -1.1080 -1.2378
   68SAPC   H4Y 5781   0.539   1.307   7.327 -0.9391  1.1192  1.9079
   68SAPC   C35 5782   0.325   1.323   7.309 -0.3743 -0.4574  0.6286
   68SAPC   H5X 5783   0.311   1.215   7.332  0.8340 -0.4264  1.6581
   68SAPC   H5Y 5784   0.250   1.356   7.235  0.7839  1.3860  0.2145
   68SAPC   C36 5785   0.280   1.409   7.431 -0.5574  0.6923  0.0282
   68SAPC   H6X 5786   0.169   1.405   7.442 -0.5861 -2.6206 -0.5428
   68SAPC   H6Y 5787   0.310   1.516   7.424 -0.4815  0.6137 -0.9798
   68SAPC   C37 5788   0.332   1.369   7.567  0.5680 -0.0298  0.2360
   68SAPC   H7X 5789   0.439   1.397   7.572  1.0311 -0.1247 -4.5003
   68SAPC   H7Y 5790   0.317   1.260   7.583 -1.9539  0.5428  2.4301
   68SAPC   C38 5791   0.255   1.433   7.687 -0.4609  0.0794 -0.0479
   68SAPC   H8X 5792   0.152   1.398   7.666  0.4792 -4.3177  1.6543
   68SAPC   H8Y 5793   0.267   1.543   7.678  1.9479 -0.2503 -1.5017
   68SAPC   C39 5794   0.305   1.392   7.825 -0.4010  0.0642  1.1921
   68SAPC   H9X 5795   0.411   1.427   7.828  0.4755 -2.1653 -0.2211
   68SAPC   H9Y 5796   0.314   1.281   7.830  0.7403  0.1646  1.7990
   68SAPC  C310 5797   0.237   1.463   7.943  0.3628 -0.4156 -0.3925
   68SAPC  H10X 5798   0.250   1.401   8.035  1.1156  0.4427  0.1009
   68SAPC  H10Y 5799   0.129   1.453   7.921  0.5264  0.7378 -1.8544
   68SAPC  C311 5800   0.293   1.601   7.976 -0.4430 -0.4955 -0.1207
   68SAPC  H11X 5801   0.291   1.671   7.889  0.2793 -2.2379 -1.6075
   68SAPC  H11Y 5802   0.400   1.580   7.995  1.2075  3.1120 -3.8154
   68SAPC  C312 5803   0.224   1.669   8.102  0.5571  0.1662  0.1706
   68SAPC  H12X 5804   0.275   1.765   8.126  0.1146  1.1240 -2.3933
   68SAPC  H12Y 5805   0.220   1.591   8.181  0.9003  0.9098  0.9406
   68SAPC  C313 5806   0.076   1.706   8.079 -0.1946 -0.4780 -0.5258
   68SAPC  H13X 5807   0.040   1.637   7.999 -1.8928  1.0831 -1.1842
   68SAPC  H13Y 5808   0.050   1.809   8.046  1.7623  0.8564  1.8122
   68SAPC  C314 5809  -0.013   1.687   8.197 -0.1576 -0.7119  0.5266
   68SAPC  H14X 5810   0.026   1.748   8.281 -1.2699  2.5125 -1.1135
   68SAPC  H14Y 5811  -0.011   1.581   8.229  2.3531 -1.0547 -0.5784
   68SAPC  C315 5812  -0.162   1.724   8.173 -0.5164 -0.5682 -0.5159
   68SAPC  H15X 5813  -0.182   1.703   8.066 -0.1288  0.3549 -0.7775
   68SAPC  H15Y 5814  -0.174   1.834   8.180 -0.2089 -0.5399 -0.4439
   68SAPC  C316 5815  -0.256   1.649   8.263  0.3437 -0.6974 -0.1518
   68SAPC  H16X 5816  -0.204   1.625   8.358 -0.1384 -0.7053  0.1121
   68SAPC  H16Y 5817  -0.284   1.553   8.215  1.3159 -0.0420 -2.1475
   68SAPC  C317 5818  -0.383   1.733   8.287 -0.3311 -0.2362  0.0398
   68SAPC  H17X 5819  -0.425   1.754   8.186  2.2909  5.3533 -0.3158
   68SAPC  H17Y 5820  -0.354   1.836   8.318 -0.1601  0.4323 -2.1175
   68SAPC  C318 5821  -0.487   1.671   8.377 -0.3432  1.0725  0.4727
   68SAPC  H18X 5822  -0.510   1.570   8.337  1.6741  1.0082 -0.6505
   68SAPC  H18Y 5823  -0.584   1.724   8.383 -1.3506 -0.6426 -0.0596
   68SAPC  H18Z 5824  -0.468   1.663   8.486 -0.9414  0.8372  0.5630
   69SLPC     N 5825   3.597   0.849  11.191 -0.0149  0.5276 -0.4180
   69SLPC   C13 5826   3.539   0.852  11.051  0.4027  0.7390  0.4648
   69SLPC  H13A 5827   3.458   0.924  11.042 -3.2312 -2.9456  0.7180
   69SLPC  H13B 5828   3.620   0.852  10.980  0.5124 -0.8818  0.5602
   69SLPC  H13C 5829   3.484   0.761  11.034 -2.8727  2.3191  1.5925
   69SLPC   C14 5830   3.655   0.980  11.228  0.1846  0.5630 -1.1000
   69SLPC  H14A 5831   3.753   0.983  11.181  0.9866 -0.3604  0.4214
   69SLPC  H14B 5832   3.590   1.065  11.217 -2.4988 -1.3058 -0.6185
   69SLPC  H14C 5833   3.683   0.980  11.332 -0.0327  0.9442 -1.0417
   69SLPC   C15 5834   3.701   0.741  11.200  0.2260 -0.7139  0.9475
   69SLPC  H15A 5835   3.751   0.722  11.294  0.1213 -0.1035  1.1363
   69SLPC  H15B 5836   3.661   0.650  11.157 -1.2066  0.3944 -0.1956
   69SLPC  H15C 5837   3.792   0.768  11.149 -1.3174  0.9197 -1.1856
   69SLPC   C12 5838   3.487   0.825  11.294  0.0189 -0.3162  0.3096
   69SLPC  H12A 5839   3.419   0.909  11.294 -1.0048 -1.1096  1.0594
   69SLPC  H12B 5840   3.525   0.827  11.395  0.3539 -0.3297  0.1854
   69SLPC   C11 5841   3.403   0.690  11.273 -0.7299  0.0862  0.2939
   69SLPC  H11A 5842   3.363   0.687  11.169 -1.0120  2.0608  0.3156
   69SLPC  H11B 5843   3.324   0.695  11.350 -0.5598 -0.4335  0.5044
   69SLPC     P 5844   3.430   0.425  11.256 -0.3138 -0.2782 -0.4802
   69SLPC   O13 5845   3.551   0.338  11.258  0.9905 -0.4737  1.0622
   69SLPC   O14 5846   3.317   0.398  11.348  0.4253  0.0070 -0.1151
   69SLPC   O12 5847   3.484   0.574  11.301 -0.3091  0.2175  0.5316
   69SLPC   O11 5848   3.373   0.453  11.115  0.5447  0.2000 -0.0892
   69SLPC    C1 5849   3.456   0.457  11.002 -0.8402 -0.2373 -0.1572
   69SLPC    HA 5850   3.480   0.565  10.994  1.1542 -0.7100 -1.1289
   69SLPC    HB 5851   3.550   0.400  11.019  0.8240  2.1423 -0.9838
   69SLPC    C2 5852   3.388   0.416  10.856  0.1405 -0.0805  0.0678
   69SLPC    HS 5853   3.454   0.456  10.776 -0.4324 -2.5810 -1.7514
   69SLPC   O21 5854   3.251   0.457  10.840 -0.3081  0.5674 -0.0215
   69SLPC   C21 5855   3.236   0.590  10.832 -0.0786 -0.0912 -0.0012
   69SLPC   O22 5856   3.324   0.678  10.834  0.7615  0.5248  0.3560
   69SLPC   C22 5857   3.085   0.628  10.821 -0.9711  0.1999 -0.7321
   69SLPC   H2R 5858   3.019   0.541  10.840 -0.7354  0.2245  0.2503
   69SLPC   H2S 5859   3.070   0.711  10.893 -1.6575  0.4704 -1.1826
   69SLPC    C3 5860   3.406   0.260  10.845  0.2342  0.2422  0.3135
   69SLPC    HX 5861   3.378   0.197  10.933  2.3392 -0.4551  0.5364
   69SLPC    HY 5862   3.515   0.240  10.841  0.0509 -1.0280  1.2183
   69SLPC   O31 5863   3.351   0.214  10.720  0.5248  0.1268 -0.5281
   69SLPC   C31 5864   3.230   0.157  10.741  0.3943  0.2265 -0.2415
   69SLPC   O32 5865   3.179   0.144  10.850 -0.1221 -0.0676 -0.1317
   69SLPC   C32 5866   3.164   0.118  10.606 -0.3296 -0.5085  0.4187
   69SLPC   H2X 5867   3.086   0.040  10.620  0.4627 -1.4815 -0.4739
   69SLPC   H2Y 5868   3.249   0.082  10.544 -0.5781 -1.1000  0.4141
   69SLPC   C23 5869   3.050   0.696  10.686 -0.3541 -0.3563  0.1777
   69SLPC   H3R 5870   3.119   0.776  10.651  0.5863 -1.3768 -0.3621
   69SLPC   H3S 5871   2.952   0.745  10.703  0.3758  0.8997  0.9090
   69SLPC   C24 5872   3.026   0.601  10.575 -0.2938 -0.1477 -0.2648
   69SLPC   H4R 5873   2.959   0.519  10.608  0.8844 -0.8828  0.3888
   69SLPC   H4S 5874   3.120   0.555  10.537  0.5057  1.1283  0.1123
   69SLPC   C25 5875   2.957   0.668  10.449  0.6451 -0.5193  0.2592
   69SLPC   H5R 5876   3.006   0.766  10.428  0.0839 -0.5566 -1.3719
   69SLPC   H5S 5877   2.849   0.683  10.466  0.6692  0.8932 -0.6704
   69SLPC   C26 5878   2.968   0.583  10.321  0.3390 -0.6998  0.0193
   69SLPC   H6R 5879   2.899   0.500  10.347 -1.1556 -0.0941 -1.7989
   69SLPC   H6S 5880   3.070   0.546  10.299  0.3785  0.6320 -2.3691
   69SLPC   C27 5881   2.912   0.661  10.201 -0.0631 -0.1907 -0.2365
   69SLPC   H7R 5882   2.975   0.751  10.185  0.9842 -1.3463 -3.3828
   69SLPC   H7S 5883   2.811   0.700  10.226  0.2729  0.3059  0.3729
   69SLPC   C28 5884   2.916   0.589  10.065  0.6870  0.2499  0.6258
   69SLPC   H8R 5885   3.016   0.541  10.052 -0.6001 -2.0983 -1.5573
   69SLPC   H8S 5886   2.915   0.672   9.992 -1.3937 -0.2988 -0.0539
   69SLPC   C29 5887   2.806   0.487  10.039  0.0105 -0.0438  0.4855
   69SLPC   H9R 5888   2.771   0.441  10.132 -1.6134  0.5842  0.2213
   69SLPC  C210 5889   2.746   0.468   9.920 -0.2391  0.0701  0.5996
   69SLPC  H10R 5890   2.662   0.397   9.917 -0.8667  0.8084  0.1356
   69SLPC  C211 5891   2.772   0.523   9.782  0.0127  0.1319 -0.1362
   69SLPC  H11R 5892   2.791   0.442   9.708  0.1860 -0.6565  0.7483
   69SLPC  H11S 5893   2.864   0.584   9.786 -0.5603  0.9715  0.5842
   69SLPC  C212 5894   2.651   0.593   9.724 -0.8853 -0.4524  0.1707
   69SLPC  H12R 5895   2.590   0.637   9.805  0.3049 -0.2105  0.9702
   69SLPC  C213 5896   2.625   0.607   9.591 -0.6372 -0.6616 -0.4988
   69SLPC  H13R 5897   2.535   0.661   9.558 -0.4793  0.4140  0.7625
   69SLPC  C214 5898   2.705   0.552   9.474  0.0325 -0.9390  0.1473
   69SLPC  H14R 5899   2.787   0.484   9.503 -0.8671 -2.1529 -0.0599
   69SLPC  H14S 5900   2.746   0.630   9.406  0.4911 -0.9214  0.4457
   69SLPC  C215 5901   2.619   0.468   9.377 -0.1751 -0.0333 -0.1096
   69SLPC  H15R 5902   2.550   0.396   9.426  0.9740  0.3288  2.1882
   69SLPC  H15S 5903   2.695   0.415   9.315 -0.2521  1.1699 -1.2751
   69SLPC  C216 5904   2.546   0.556   9.273  0.0428 -0.1338 -0.0715
   69SLPC  H16R 5905   2.618   0.623   9.220  0.0369  0.7506  1.0133
   69SLPC  H16S 5906   2.477   0.628   9.323  0.6774 -0.0856  0.7566
   69SLPC  C217 5907   2.474   0.469   9.175  0.1464 -0.2793  0.0324
   69SLPC  H17R 5908   2.392   0.414   9.227  1.8675 -0.6890  2.4971
   69SLPC  H17S 5909   2.542   0.394   9.130 -0.1606 -2.2622  2.5980
   69SLPC  C218 5910   2.419   0.547   9.063  1.0392 -0.5820 -0.4697
   69SLPC  H18R 5911   2.333   0.614   9.086  1.4570 -0.3330  0.3831
   69SLPC  H18S 5912   2.383   0.474   8.987 -3.4144  0.1708  0.5997
   69SLPC  H18T 5913   2.491   0.611   9.009  0.0118  1.0566  0.0317
   69SLPC   C33 5914   3.089   0.236  10.537  0.1321  0.0133 -0.5890
   69SLPC   H3X 5915   3.165   0.317  10.540 -0.2333  0.3619 -0.6373
   69SLPC   H3Y 5916   3.008   0.255  10.611  1.7202 -3.3754  2.3181
   69SLPC   C34 5917   3.033   0.207  10.400 -0.6801  0.2258 -0.7265
   69SLPC   H4X 5918   2.968   0.292  10.370 -3.1030 -1.1469  0.2996
   69SLPC   H4Y 5919   2.974   0.113  10.397  0.7117 -0.6595 -1.6668
   69SLPC   C35 5920   3.145   0.197  10.295 -0.6777  0.3855 -0.5820
   69SLPC   H5X 5921   3.199   0.101  10.309 -2.1975 -0.5008 -0.5181
   69SLPC   H5Y 5922   3.217   0.280  10.312 -1.0982  0.4520  1.0213
   69SLPC   C36 5923   3.094   0.201  10.150  0.5784  0.5735 -0.4493
   69SLPC   H6X 5924   3.020   0.284  10.138  1.8272  1.6399 -1.0816
   69SLPC   H6Y 5925   3.052   0.100  10.134  1.2984  0.4210 -1.4608
   69SLPC   C37 5926   3.214   0.226  10.053  0.0950 -1.0862 -0.4246
   69SLPC   H7X 5927   3.302   0.170  10.089  1.0429  2.2457  3.1234
   69SLPC   H7Y 5928   3.244   0.333  10.057 -2.0298 -0.4722  1.6630
   69SLPC   C38 5929   3.170   0.176   9.916  0.0227  0.1753 -0.0062
   69SLPC   H8X 5930   3.121   0.077   9.923  1.2695 -0.3894  1.0094
   69SLPC   H8Y 5931   3.257   0.146   9.854 -0.9650 -2.2945 -0.3292
   69SLPC   C39 5932   3.093   0.284   9.829 -0.6980 -0.1742 -0.0725
   69SLPC   H9X 5933   3.160   0.371   9.816 -0.1197 -0.8915 -2.4272
   69SLPC   H9Y 5934   3.005   0.319   9.888 -0.9951 -0.8424 -0.1125
   69SLPC  C310 5935   3.054   0.233   9.689 -0.3482  0.1598 -0.0696
   69SLPC  H10X 5936   2.962   0.286   9.654 -1.3815 -1.2480  0.4153
   69SLPC  H10Y 5937   3.032   0.124   9.696 -1.0886  0.3318  0.4485
   69SLPC  C311 5938   3.167   0.253   9.590 -0.0984 -0.7235  0.4435
   69SLPC  H11X 5939   3.259   0.201   9.622 -0.2256 -0.5660  1.0664
   69SLPC  H11Y 5940   3.183   0.362   9.578 -0.3784 -0.9844 -3.7541
   69SLPC  C312 5941   3.128   0.199   9.448  0.3717  0.6416 -1.1583
   69SLPC  H12X 5942   3.018   0.207   9.431  0.5064  1.0164 -1.8498
   69SLPC  H12Y 5943   3.145   0.089   9.445 -0.2342  0.5482 -1.3467
   69SLPC  C313 5944   3.190   0.269   9.334 -0.3622 -0.1618  0.2854
   69SLPC  H13X 5945   3.300   0.283   9.340  0.1951 -2.5602 -2.2463
   69SLPC  H13Y 5946   3.152   0.372   9.314 -0.1633 -0.5614 -2.5939
   69SLPC  C314 5947   3.164   0.199   9.194 -0.7454 -0.0846 -0.1645
   69SLPC  H14X 5948   3.080   0.127   9.182  0.9388 -2.2741  0.4415
   69SLPC  H14Y 5949   3.253   0.133   9.184 -2.4548 -2.3316 -1.2448
   69SLPC  C315 5950   3.143   0.295   9.071  0.1083  0.3300 -0.1115
   69SLPC  H15X 5951   3.155   0.229   8.983  2.8469 -1.8297  1.7114
   69SLPC  H15Y 5952   3.219   0.376   9.067 -1.2420  1.6073 -0.9821
   69SLPC  C316 5953   3.007   0.360   9.071  0.7088  0.2969 -0.3581
   69SLPC  H16X 5954   3.025   0.438   9.148 -1.5970  2.1371 -1.5352
   69SLPC  H16Y 5955   2.923   0.294   9.102 -0.5485  1.0251 -2.0380
   69SLPC  C317 5956   2.994   0.444   8.945 -0.5108  0.3265 -0.0581
   69SLPC  H17X 5957   2.956   0.368   8.872 -1.1991 -0.5567  1.1767
   69SLPC  H17Y 5958   3.092   0.480   8.908 -0.3400  0.0933  0.1654
   69SLPC  C318 5959   2.894   0.552   8.949  0.8063 -0.2882 -0.4686
   69SLPC  H18X 5960   2.878   0.587   8.844 -1.9757 -2.3276 -0.8094
   69SLPC  H18Y 5961   2.936   0.641   9.001  0.1982 -0.5526  0.4831
   69SLPC  H18Z 5962   2.800   0.524   9.001  1.3721 -2.6830 -0.6606
   70SLPC     N 5963   0.289   6.060  11.455  0.0962  0.4317  0.3423
   70SLPC   C13 5964   0.232   6.133  11.571  0.1110  0.2841 -0.5501
   70SLPC  H13A 5965   0.302   6.207  11.608  0.9061  2.2426 -5.2126
   70SLPC  H13B 5966   0.134   6.172  11.550 -0.0009  0.5674  0.4496
   70SLPC  H13C 5967   0.206   6.063  11.649  0.2015  0.3480 -0.4611
   70SLPC   C14 5968   0.183   5.964  11.398 -0.5118  0.1801  0.3161
   70SLPC  H14A 5969   0.109   6.021  11.343 -0.9226 -0.7644 -0.1261
   70SLPC  H14B 5970   0.233   5.890  11.337  2.7349  1.0359  1.7286
   70SLPC  H14C 5971   0.132   5.908  11.475  0.2264 -0.1645  0.5605
   70SLPC   C15 5972   0.409   5.981  11.498  0.0706 -0.0350  0.0095
   70SLPC  H15A 5973   0.384   5.901  11.566 -0.8247 -0.5704 -0.9127
   70SLPC  H15B 5974   0.439   5.930  11.407 -1.2560 -1.5536  0.3853
   70SLPC  H15C 5975   0.487   6.030  11.555 -1.3915  0.6467  1.4866
   70SLPC   C12 5976   0.336   6.160  11.351  0.0192  1.5047  0.4017
   70SLPC  H12A 5977   0.415   6.109  11.298 -1.6521  0.6415 -1.3719
   70SLPC  H12B 5978   0.389   6.245  11.391  0.6515  1.3445 -0.0830
   70SLPC   C11 5979   0.232   6.204  11.245  0.1607  0.2253  1.0234
   70SLPC  H11A 5980   0.265   6.293  11.186 -1.7026  0.9484  1.0052
   70SLPC  H11B 5981   0.137   6.231  11.296 -0.1420 -1.5199  1.4282
   70SLPC     P 5982   0.307   6.050  11.055 -0.2847  0.2391  0.0344
   70SLPC   O13 5983   0.364   6.164  10.984  0.6227  0.5230 -0.2859
   70SLPC   O14 5984   0.404   5.961  11.127  0.2854  0.1515  0.3386
   70SLPC   O12 5985   0.195   6.097  11.148  0.4017 -0.3298 -0.4319
   70SLPC   O11 5986   0.229   5.973  10.947 -0.0593 -0.7090  0.1698
   70SLPC    C1 5987   0.152   6.039  10.847 -0.0783  0.2095 -0.1311
   70SLPC    HA 5988   0.054   6.056  10.896 -0.2446 -1.2582  0.0792
   70SLPC    HB 5989   0.186   6.142  10.822 -0.4362  0.1131 -1.0211
   70SLPC    C2 5990   0.123   5.945  10.724  0.2622 -0.3726  0.0226
   70SLPC    HS 5991   0.150   5.842  10.757  0.5153  0.3683  2.3518
   70SLPC   O21 5992   0.201   5.989  10.619  0.4805 -0.2544  0.6418
   70SLPC   C21 5993   0.324   5.942  10.597  0.6356 -0.5237 -0.8934
   70SLPC   O22 5994   0.385   5.873  10.679  0.0589 -0.3949  0.2517
   70SLPC   C22 5995   0.391   5.984  10.466 -0.1518 -0.9995  0.0926
   70SLPC   H2R 5996   0.312   6.033  10.406 -0.0081 -0.5703  0.2485
   70SLPC   H2S 5997   0.465   6.065  10.486 -0.5161 -0.6653  0.1068
   70SLPC    C3 5998  -0.035   5.946  10.708 -0.6260  0.0567  0.5192
   70SLPC    HX 5999  -0.050   6.055  10.690  1.3320  0.6984  2.3707
   70SLPC    HY 6000  -0.094   5.932  10.802 -0.3064  1.3887  0.9362
   70SLPC   O31 6001  -0.075   5.867  10.591  0.5963 -0.1212  0.2769
   70SLPC   C31 6002  -0.083   5.734  10.614 -0.8787  0.1950  0.2602
   70SLPC   O32 6003  -0.048   5.681  10.715 -0.0428 -0.2561 -0.6770
   70SLPC   C32 6004  -0.141   5.667  10.496 -0.0997 -0.3095 -0.8410
   70SLPC   H2X 6005  -0.207   5.744  10.449 -0.3143  0.2762  0.3748
   70SLPC   H2Y 6006  -0.201   5.579  10.526  0.6634  0.1024  2.1594
   70SLPC   C23 6007   0.452   5.867  10.387  0.0237 -0.1152 -0.2086
   70SLPC   H3R 6008   0.364   5.811  10.350 -0.1312  1.0760 -1.7684
   70SLPC   H3S 6009   0.507   5.801  10.457 -1.7117 -0.9207  0.4341
   70SLPC   C24 6010   0.541   5.906  10.269 -0.4605 -0.0763 -0.2339
   70SLPC   H4R 6011   0.494   5.993  10.218  0.0149 -0.4246 -1.2843
   70SLPC   H4S 6012   0.539   5.816  10.204 -2.1691 -0.3133  0.0778
   70SLPC   C25 6013   0.677   5.957  10.316 -0.4766 -0.2091 -0.0135
   70SLPC   H5R 6014   0.724   5.887  10.388  1.4232  0.5689 -0.4460
   70SLPC   H5S 6015   0.654   6.049  10.374 -0.9197 -0.1155 -0.3400
   70SLPC   C26 6016   0.782   5.986  10.211 -0.2649 -0.8379  0.5350
   70SLPC   H6R 6017   0.741   6.068  10.149  0.5745 -0.6020  0.2805
   70SLPC   H6S 6018   0.792   5.906  10.135  1.2352 -0.7863  0.6522
   70SLPC   C27 6019   0.920   6.018  10.272 -0.2392 -0.2051 -0.1750
   70SLPC   H7R 6020   0.941   5.931  10.339  0.5511  0.3331  0.2942
   70SLPC   H7S 6021   0.905   6.109  10.334 -0.1244 -1.6816  2.1440
   70SLPC   C28 6022   1.031   6.051  10.171 -0.0906 -0.0278  0.2484
   70SLPC   H8R 6023   1.117   6.078  10.235 -1.8256  1.7390  1.9924
   70SLPC   H8S 6024   1.004   6.148  10.125 -0.9740 -0.3429  0.0743
   70SLPC   C29 6025   1.047   5.939  10.075 -0.0566 -0.4972 -0.6806
   70SLPC   H9R 6026   1.082   5.847  10.124  1.5802  0.0859 -0.6927
   70SLPC  C210 6027   1.038   5.943   9.941  0.3333 -0.0677  0.6654
   70SLPC  H10R 6028   1.056   5.853   9.881  0.2283  0.5482 -0.3210
   70SLPC  C211 6029   1.001   6.061   9.848  0.9733  0.3988 -0.1773
   70SLPC  H11R 6030   0.944   6.144   9.894 -0.7132 -0.6749 -0.2300
   70SLPC  H11S 6031   0.926   6.029   9.773  0.9470  2.4598 -1.0878
   70SLPC  C212 6032   1.124   6.106   9.776 -0.2502 -0.1249 -0.2680
   70SLPC  H12R 6033   1.198   6.164   9.834 -0.6666  1.3278 -1.1543
   70SLPC  C213 6034   1.140   6.091   9.644  0.1779  0.1062  0.0426
   70SLPC  H13R 6035   1.241   6.122   9.612  0.4831  0.8849  1.6940
   70SLPC  C214 6036   1.055   6.034   9.530  0.9057 -0.6287  0.1220
   70SLPC  H14R 6037   1.088   6.087   9.438  2.3149 -1.5041  0.1054
   70SLPC  H14S 6038   0.947   6.038   9.556  1.1297 -1.9713  1.4206
   70SLPC  C215 6039   1.090   5.887   9.508  0.3384  0.4402  0.5924
   70SLPC  H15R 6040   1.020   5.840   9.436  2.5438 -0.8272 -0.8506
   70SLPC  H15S 6041   1.081   5.823   9.598 -1.8928  0.7589  0.6648
   70SLPC  C216 6042   1.234   5.871   9.453 -0.8244 -0.6006  0.1607
   70SLPC  H16R 6043   1.313   5.874   9.532 -0.1311 -0.5204 -0.5249
   70SLPC  H16S 6044   1.244   5.967   9.399  2.8088 -0.9797 -0.0578
   70SLPC  C217 6045   1.260   5.750   9.363 -0.4285 -0.0078  0.2236
   70SLPC  H17R 6046   1.169   5.733   9.302 -0.7596  1.1669  0.3845
   70SLPC  H17S 6047   1.266   5.666   9.436 -0.4242  0.8270  1.1891
   70SLPC  C218 6048   1.387   5.754   9.280 -0.9348 -0.0285 -0.0677
   70SLPC  H18R 6049   1.469   5.795   9.343 -2.4137  2.6830  0.2492
   70SLPC  H18S 6050   1.377   5.827   9.197 -0.7845 -1.0048 -0.9647
   70SLPC  H18T 6051   1.413   5.653   9.241  0.8783  0.4868 -0.2850
   70SLPC   C33 6052  -0.034   5.622  10.383  0.3231  0.4887 -0.3675
   70SLPC   H3X 6053  -0.087   5.589  10.291  0.0996 -2.6053  0.7391
   70SLPC   H3Y 6054   0.018   5.528  10.411  0.8398  0.5033 -1.2809
   70SLPC   C34 6055   0.079   5.732  10.346 -0.2336 -0.5345 -0.0047
   70SLPC   H4X 6056   0.158   5.714  10.422 -0.9245  1.9726  1.4343
   70SLPC   H4Y 6057   0.043   5.835  10.366  2.9411  0.7152 -0.1206
   70SLPC   C35 6058   0.140   5.724  10.211 -0.1608  0.2876 -0.2867
   70SLPC   H5X 6059   0.177   5.623  10.185  3.0597  0.6928  2.0888
   70SLPC   H5Y 6060   0.234   5.783  10.213 -0.3952  0.6575  1.3514
   70SLPC   C36 6061   0.061   5.793  10.099  0.0730  0.2248  0.3145
   70SLPC   H6X 6062   0.026   5.892  10.136  1.3255  0.8874 -0.1659
   70SLPC   H6Y 6063  -0.031   5.737  10.073  0.3572 -1.3722  2.5449
   70SLPC   C37 6064   0.150   5.829   9.971  0.1530  0.3209  0.3780
   70SLPC   H7X 6065   0.234   5.890  10.010 -0.4099 -0.1553  2.4353
   70SLPC   H7Y 6066   0.086   5.886   9.899  1.3632  1.1229 -0.0900
   70SLPC   C38 6067   0.200   5.704   9.907 -0.2842  0.4839  0.3256
   70SLPC   H8X 6068   0.118   5.640   9.868  0.1962  0.6720 -1.0327
   70SLPC   H8Y 6069   0.259   5.643   9.978  2.1746  0.9332 -1.2028
   70SLPC   C39 6070   0.281   5.731   9.781 -0.3580 -0.2926 -0.1916
   70SLPC   H9X 6071   0.365   5.801   9.799  0.5902 -1.5139  0.2574
   70SLPC   H9Y 6072   0.206   5.782   9.718 -0.5377  0.2017  0.4058
   70SLPC  C310 6073   0.337   5.610   9.703 -0.0986  0.1249  0.1006
   70SLPC  H10X 6074   0.248   5.544   9.691 -1.2455  1.6936 -0.2879
   70SLPC  H10Y 6075   0.411   5.562   9.770 -0.1233 -2.0690 -1.3257
   70SLPC  C311 6076   0.393   5.637   9.569 -0.3341  0.1209  0.0162
   70SLPC  H11X 6077   0.315   5.683   9.505  0.3593  0.8561 -0.3227
   70SLPC  H11Y 6078   0.404   5.544   9.510 -0.1676  0.3039 -0.2458
   70SLPC  C312 6079   0.529   5.714   9.563  0.0893  1.3161  0.0679
   70SLPC  H12X 6080   0.613   5.659   9.611  0.6825  1.1978 -1.0753
   70SLPC  H12Y 6081   0.517   5.813   9.613 -0.1331  1.8863 -1.0944
   70SLPC  C313 6082   0.568   5.743   9.416  0.7522  0.0654 -0.5045
   70SLPC  H13X 6083   0.484   5.777   9.352 -0.2083  0.4130  0.8759
   70SLPC  H13Y 6084   0.607   5.648   9.374 -0.7889 -0.0300 -1.8323
   70SLPC  C314 6085   0.680   5.855   9.403 -0.1199 -0.7436 -0.5067
   70SLPC  H14X 6086   0.767   5.832   9.467 -0.1898  0.2888 -0.0139
   70SLPC  H14Y 6087   0.633   5.943   9.453 -1.7635 -1.3019 -1.0147
   70SLPC  C315 6088   0.733   5.872   9.259  0.1213  0.2453  0.5190
   70SLPC  H15X 6089   0.642   5.877   9.196  0.4909 -1.5894 -0.2364
   70SLPC  H15Y 6090   0.789   5.782   9.225 -0.5838  0.4856 -1.3802
   70SLPC  C316 6091   0.806   6.003   9.248 -0.7553 -0.4523 -0.4740
   70SLPC  H16X 6092   0.907   6.008   9.294 -0.0073  0.3124 -2.0927
   70SLPC  H16Y 6093   0.749   6.078   9.308 -2.2179 -0.9494 -1.1902
   70SLPC  C317 6094   0.837   6.047   9.099 -0.3936 -0.3428 -0.0105
   70SLPC  H17X 6095   0.741   6.067   9.048  0.8539 -1.1736 -2.8577
   70SLPC  H17Y 6096   0.884   5.964   9.043  2.2928  1.5368 -0.7163
   70SLPC  C318 6097   0.926   6.174   9.089 -0.4567 -0.4199  0.6283
   70SLPC  H18X 6098   1.031   6.162   9.125 -1.2171  1.0336  3.6092
   70SLPC  H18Y 6099   0.893   6.261   9.149  0.6307  0.1882  0.3909
   70SLPC  H18Z 6100   0.931   6.207   8.983 -0.8661  0.0655  0.7599
   71SLPC     N 6101   2.903   2.118  10.901 -0.0926  0.6664  0.2377
   71SLPC   C13 6102   2.921   2.263  10.891  0.3202  0.2000 -0.4828
   71SLPC  H13A 6103   2.954   2.306  10.984 -0.6765  0.3936 -0.2138
   71SLPC  H13B 6104   2.992   2.293  10.815 -0.2712  3.3135  0.0628
   71SLPC  H13C 6105   2.830   2.310  10.859  0.1962  0.4305  0.1937
   71SLPC   C14 6106   2.812   2.082  10.791 -0.2739 -0.6295  0.1420
   71SLPC  H14A 6107   2.799   1.975  10.781  1.3142 -0.7605 -0.8837
   71SLPC  H14B 6108   2.714   2.126  10.805 -0.4269 -1.1221  0.6627
   71SLPC  H14C 6109   2.853   2.121  10.699  0.1579  2.0341  1.3614
   71SLPC   C15 6110   2.845   2.082  11.033 -0.1737 -0.0332  0.3081
   71SLPC  H15A 6111   2.908   2.108  11.117 -1.6778 -1.4863  1.9607
   71SLPC  H15B 6112   2.759   2.145  11.049  0.9102  1.9154 -1.1902
   71SLPC  H15C 6113   2.813   1.979  11.030 -0.0869 -0.0376 -0.9045
   71SLPC   C12 6114   3.031   2.047  10.881 -0.1729 -0.4043 -0.4367
   71SLPC  H12A 6115   3.068   2.059  10.780 -1.3667 -1.5734 -1.0502
   71SLPC  H12B 6116   3.012   1.940  10.876 -0.3383 -0.3018 -3.0398
   71SLPC   C11 6117   3.151   2.076  10.974  0.1519 -0.1090 -0.5054
   71SLPC  H11A 6118   3.228   1.997  10.963  1.5981  1.4828 -2.8684
   71SLPC  H11B 6119   3.121   2.071  11.080  0.0382  2.1205 -0.3881
   71SLPC     P 6120   3.274   2.262  10.827 -0.2659 -0.2131  0.3140
   71SLPC   O13 6121   3.218   2.396  10.792 -0.0293 -0.0848  0.8726
   71SLPC   O14 6122   3.420   2.246  10.849  0.7218 -0.0735  0.0981
   71SLPC   O12 6123   3.204   2.211  10.952  0.1464 -0.2378 -0.1308
   71SLPC   O11 6124   3.224   2.165  10.710  0.4557 -0.2900  0.0708
   71SLPC    C1 6125   3.297   2.070  10.638  0.4655 -0.4372  0.0406
   71SLPC    HA 6126   3.348   2.003  10.710 -0.5145 -1.2142  0.0238
   71SLPC    HB 6127   3.225   1.995  10.600  1.1331 -1.4872  0.7929
   71SLPC    C2 6128   3.377   2.131  10.519  0.3319 -0.1278 -0.5473
   71SLPC    HS 6129   3.415   2.230  10.552 -1.7017  0.6648 -0.4916
   71SLPC   O21 6130   3.278   2.149  10.410  0.2457 -0.5387 -0.2972
   71SLPC   C21 6131   3.306   2.247  10.330  0.9364  0.1087 -0.5442
   71SLPC   O22 6132   3.405   2.317  10.340 -0.6089  0.0954  0.4121
   71SLPC   C22 6133   3.198   2.257  10.218  0.5870 -0.3594  0.2288
   71SLPC   H2R 6134   3.124   2.176  10.236  0.2208  0.5939  3.6741
   71SLPC   H2S 6135   3.148   2.355  10.234 -0.7416 -1.1098  0.8146
   71SLPC    C3 6136   3.482   2.024  10.472  0.7120 -0.3117 -0.3780
   71SLPC    HX 6137   3.424   1.931  10.458 -1.8037  1.0510  0.4477
   71SLPC    HY 6138   3.566   2.004  10.543  0.2323 -2.6126 -0.3756
   71SLPC   O31 6139   3.545   2.050  10.347  0.2536  0.3213  0.0494
   71SLPC   C31 6140   3.656   2.119  10.339  0.4093 -0.7587  0.2538
   71SLPC   O32 6141   3.700   2.185  10.430 -0.0016  0.2793  0.1266
   71SLPC   C32 6142   3.698   2.129  10.188  0.5634 -0.3617 -0.0449
   71SLPC   H2X 6143   3.653   2.220  10.143  1.2185 -1.2467 -2.7042
   71SLPC   H2Y 6144   3.649   2.046  10.132 -0.6080  1.0356 -1.1751
   71SLPC   C23 6145   3.258   2.257  10.075 -0.0881  0.7830 -0.2897
   71SLPC   H3R 6146   3.342   2.329  10.077  0.4762  0.1327 -0.5673
   71SLPC   H3S 6147   3.177   2.293  10.007  0.7335 -1.4042 -2.5654
   71SLPC   C24 6148   3.305   2.127  10.020  0.5834  0.0445  0.4750
   71SLPC   H4R 6149   3.224   2.052  10.009  1.1822 -0.6664  0.8180
   71SLPC   H4S 6150   3.379   2.084  10.091 -0.3682 -0.5268  1.1518
   71SLPC   C25 6151   3.388   2.142   9.890  0.7331  0.5366  0.5010
   71SLPC   H5R 6152   3.480   2.201   9.910  2.0829 -1.3589  0.1499
   71SLPC   H5S 6153   3.320   2.191   9.818 -0.9330  0.4892  1.9755
   71SLPC   C26 6154   3.441   2.014   9.828 -0.7785  1.0490  0.1518
   71SLPC   H6R 6155   3.349   1.953   9.813 -0.7974  1.4109 -1.3587
   71SLPC   H6S 6156   3.518   1.968   9.893 -0.9069  1.3135  0.4963
   71SLPC   C27 6157   3.511   2.015   9.685 -0.2846 -0.5894 -0.0509
   71SLPC   H7R 6158   3.574   1.924   9.684 -1.8330 -1.7318  1.3271
   71SLPC   H7S 6159   3.569   2.110   9.679  2.0912 -1.9367  0.2418
   71SLPC   C28 6160   3.409   2.037   9.571  0.0986  0.2078 -0.2725
   71SLPC   H8R 6161   3.458   2.068   9.476 -0.4034 -1.7772 -1.2325
   71SLPC   H8S 6162   3.356   2.130   9.599  0.5393 -0.0266  1.4212
   71SLPC   C29 6163   3.309   1.921   9.537  0.1268 -0.5392  0.1179
   71SLPC   H9R 6164   3.317   1.838   9.608 -0.5839 -0.1518  0.6578
   71SLPC  C210 6165   3.248   1.897   9.428 -0.0811  0.3405  0.6232
   71SLPC  H10R 6166   3.181   1.810   9.415  1.1030 -0.3529 -1.4274
   71SLPC  C211 6167   3.254   1.980   9.306 -0.1565  0.0800  0.5004
   71SLPC  H11R 6168   3.305   2.079   9.313 -1.0212  0.5446  0.3370
   71SLPC  H11S 6169   3.146   1.994   9.285  0.2637 -0.7388 -2.7222
   71SLPC  C212 6170   3.327   1.904   9.196  1.0360  0.2413 -1.2556
   71SLPC  H12R 6171   3.432   1.893   9.228  0.6467  0.2040  0.0546
   71SLPC  C213 6172   3.274   1.877   9.075 -0.1274 -0.1626  0.0247
   71SLPC  H13R 6173   3.336   1.811   9.012  1.6370  0.6620  0.8348
   71SLPC  C214 6174   3.136   1.911   9.030 -0.1399  0.8675 -0.3759
   71SLPC  H14R 6175   3.135   2.021   9.020  1.2719  0.9306 -0.1423
   71SLPC  H14S 6176   3.069   1.880   9.113  0.3951 -2.4564 -1.0198
   71SLPC  C215 6177   3.092   1.830   8.903 -0.3738  0.5501  0.0342
   71SLPC  H15R 6178   3.129   1.726   8.888 -0.2892  0.4092  1.1669
   71SLPC  H15S 6179   3.119   1.885   8.811  0.0021 -0.3670 -0.4153
   71SLPC  C216 6180   2.942   1.816   8.885 -0.3593  0.1792 -0.4234
   71SLPC  H16R 6181   2.902   1.917   8.864  1.3179  0.9047 -0.3439
   71SLPC  H16S 6182   2.898   1.789   8.984  0.0476 -0.7014 -0.4726
   71SLPC  C217 6183   2.909   1.716   8.777 -0.8244  0.1849 -0.4447
   71SLPC  H17R 6184   2.943   1.610   8.787  0.7185  0.6513 -0.5748
   71SLPC  H17S 6185   2.982   1.743   8.698  0.0502  0.2696  0.3776
   71SLPC  C218 6186   2.768   1.716   8.715 -1.2970  0.3481  0.1587
   71SLPC  H18R 6187   2.757   1.634   8.641 -1.2753  0.9115 -0.4691
   71SLPC  H18S 6188   2.762   1.810   8.657 -1.1675  0.7749  0.8344
   71SLPC  H18T 6189   2.697   1.720   8.800  1.0863  0.4514  2.2620
   71SLPC   C33 6190   3.851   2.133  10.184  0.7014  0.4748 -0.4859
   71SLPC   H3X 6191   3.883   2.027  10.199 -0.1108  0.1042 -1.2056
   71SLPC   H3Y 6192   3.893   2.198  10.263  0.1189 -0.1204  0.3388
   71SLPC   C34 6193   3.902   2.178  10.048 -0.3204  0.7269  0.5982
   71SLPC   H4X 6194   4.012   2.178  10.056 -0.0498  0.0542 -2.1279
   71SLPC   H4Y 6195   3.872   2.284  10.036  0.0461  0.9514  1.5716
   71SLPC   C35 6196   3.857   2.085   9.930  0.0878  0.6721 -0.0473
   71SLPC   H5X 6197   3.748   2.063   9.932  0.1563 -0.1781 -2.3757
   71SLPC   H5Y 6198   3.917   1.995   9.952  2.1027  2.1352  0.7249
   71SLPC   C36 6199   3.901   2.118   9.783  0.0394  0.1507  0.1311
   71SLPC   H6X 6200   4.010   2.137   9.779 -0.0154  0.4930  0.2309
   71SLPC   H6Y 6201   3.850   2.208   9.742  1.7897  0.5507 -1.2377
   71SLPC   C37 6202   3.878   2.000   9.683 -0.2664 -0.0399 -0.3719
   71SLPC   H7X 6203   3.787   1.940   9.705 -0.2331 -0.4302 -1.2332
   71SLPC   H7Y 6204   3.968   1.934   9.691 -0.7634 -0.7802 -0.7231
   71SLPC   C38 6205   3.870   2.036   9.540 -0.4556 -0.2121 -0.1435
   71SLPC   H8X 6206   3.962   2.085   9.500 -1.1247  0.0896 -1.3771
   71SLPC   H8Y 6207   3.783   2.102   9.523  0.9546  1.7264 -0.2381
   71SLPC   C39 6208   3.846   1.925   9.439  0.2095  0.5198  0.8914
   71SLPC   H9X 6209   3.770   1.856   9.482  2.4215 -2.0692  0.9470
   71SLPC   H9Y 6210   3.939   1.868   9.421 -0.5393  0.1446 -2.4718
   71SLPC  C310 6211   3.796   1.979   9.297  0.2306 -0.2749  0.4806
   71SLPC  H10X 6212   3.868   2.058   9.267 -1.4168  0.4935 -1.6540
   71SLPC  H10Y 6213   3.693   2.019   9.309 -0.3085 -1.3144 -0.4925
   71SLPC  C311 6214   3.803   1.878   9.189 -0.5561  0.7242  0.0402
   71SLPC  H11X 6215   3.753   1.782   9.210  0.2122 -0.5505 -3.2962
   71SLPC  H11Y 6216   3.912   1.861   9.175 -0.3935  2.4032 -1.0668
   71SLPC  C312 6217   3.743   1.936   9.057 -0.4238 -0.5210  0.3842
   71SLPC  H12X 6218   3.796   2.031   9.035  1.0242 -1.6126 -1.1193
   71SLPC  H12Y 6219   3.636   1.949   9.085 -0.3058 -0.2309  0.7054
   71SLPC  C313 6220   3.733   1.846   8.935  1.0925  0.3363  0.2219
   71SLPC  H13X 6221   3.673   1.889   8.852 -1.7001 -1.1134  1.3520
   71SLPC  H13Y 6222   3.665   1.762   8.961 -1.3254  2.2874  0.6327
   71SLPC  C314 6223   3.868   1.799   8.889 -0.4429 -0.4911  0.2536
   71SLPC  H14X 6224   3.914   1.728   8.961  0.3891 -0.3835 -0.1558
   71SLPC  H14Y 6225   3.942   1.881   8.875  0.0155 -0.7943  0.8223
   71SLPC  C315 6226   3.856   1.724   8.756 -0.3411 -0.6321  0.2677
   71SLPC  H15X 6227   3.812   1.791   8.680 -0.0242 -0.1451  0.5103
   71SLPC  H15Y 6228   3.784   1.639   8.753  2.2230 -2.9060 -1.3019
   71SLPC  C316 6229   3.994   1.679   8.705  0.3760  0.8910  0.0126
   71SLPC  H16X 6230   4.039   1.598   8.766  2.1002  0.8836 -1.1856
   71SLPC  H16Y 6231   4.079   1.750   8.711  0.4349  0.7325  1.3992
   71SLPC  C317 6232   3.995   1.622   8.565  0.0780 -0.3434 -0.1009
   71SLPC  H17X 6233   3.936   1.528   8.558 -2.2357  0.9616  0.9452
   71SLPC  H17Y 6234   4.101   1.592   8.552  0.6416  0.8487  1.3656
   71SLPC  C318 6235   3.956   1.709   8.449 -0.0576 -0.2100 -0.0608
   71SLPC  H18X 6236   4.033   1.783   8.417  0.3372 -0.7242 -0.3292
   71SLPC  H18Y 6237   3.864   1.767   8.469 -0.3860  0.0100 -2.0520
   71SLPC  H18Z 6238   3.942   1.637   8.366  0.5445 -0.3313 -0.0667
   72SLPC     N 6239   5.588   1.906  11.043 -0.1001 -0.3412  0.6468
   72SLPC   C13 6240   5.724   1.943  11.001  0.5357 -0.6034 -1.1198
   72SLPC  H13A 6241   5.758   1.880  10.920  1.3311 -1.5721 -0.0623
   72SLPC  H13B 6242   5.717   2.046  10.971 -1.6368 -0.7722 -1.3425
   72SLPC  H13C 6243   5.802   1.936  11.075 -0.0863  0.7358 -0.3166
   72SLPC   C14 6244   5.535   2.004  11.138  0.4930 -0.4145 -0.5284
   72SLPC  H14A 6245   5.440   1.968  11.173 -0.5330  0.7928 -1.9524
   72SLPC  H14B 6246   5.597   2.031  11.222 -1.5008  0.9552  0.5769
   72SLPC  H14C 6247   5.514   2.097  11.087 -2.8521 -0.7635 -0.0215
   72SLPC   C15 6248   5.581   1.782  11.127 -0.5328  0.1784  0.5805
   72SLPC  H15A 6249   5.486   1.736  11.151 -0.1580 -0.3959  0.9887
   72SLPC  H15B 6250   5.634   1.697  11.086 -1.2208 -0.9945  2.0221
   72SLPC  H15C 6251   5.638   1.804  11.217 -0.6872  4.1450 -0.1089
   72SLPC   C12 6252   5.497   1.892  10.923 -0.0937 -0.2635  1.6228
   72SLPC  H12A 6253   5.397   1.858  10.947 -0.8555  0.5548 -0.1697
   72SLPC  H12B 6254   5.545   1.818  10.861  1.0673  1.6777  0.0932
   72SLPC   C11 6255   5.469   2.022  10.840  0.1523  0.1151  0.2287
   72SLPC  H11A 6256   5.422   1.986  10.746  0.3755 -0.6693  0.4090
   72SLPC  H11B 6257   5.560   2.072  10.802  0.0917  0.5997  0.6971
   72SLPC     P 6258   5.239   2.109  10.935  0.4338 -0.1141 -0.2779
   72SLPC   O13 6259   5.212   1.984  11.005  0.1362  0.3531 -0.4933
   72SLPC   O14 6260   5.193   2.228  11.008 -0.4128 -0.4129  0.1966
   72SLPC   O12 6261   5.392   2.118  10.908 -0.1449 -0.4440  0.2565
   72SLPC   O11 6262   5.178   2.111  10.788 -0.4679 -0.4253 -0.3093
   72SLPC    C1 6263   5.215   2.226  10.707  0.0765 -0.0380  0.3137
   72SLPC    HA 6264   5.160   2.318  10.736  1.3149  0.1249  2.3966
   72SLPC    HB 6265   5.322   2.253  10.707 -0.0507  0.4863  0.8229
   72SLPC    C2 6266   5.169   2.189  10.563 -0.2156  0.1655  0.0090
   72SLPC    HS 6267   5.060   2.182  10.580  0.1778 -1.3910  2.2468
   72SLPC   O21 6268   5.229   2.058  10.538 -0.1224  0.3445  0.7096
   72SLPC   C21 6269   5.144   1.967  10.499  0.4516  0.2696 -1.0260
   72SLPC   O22 6270   5.028   1.982  10.475 -0.0552 -0.6107  0.5395
   72SLPC   C22 6271   5.212   1.826  10.495  0.0551 -0.2967 -0.3824
   72SLPC   H2R 6272   5.228   1.785  10.597 -0.6559  3.1271  1.2503
   72SLPC   H2S 6273   5.158   1.763  10.422 -0.2375  1.5168 -1.8171
   72SLPC    C3 6274   5.197   2.284  10.446 -0.1973  0.3956 -0.0372
   72SLPC    HX 6275   5.308   2.283  10.434  0.0313  1.7935  1.6610
   72SLPC    HY 6276   5.171   2.388  10.473 -1.4860  0.1085 -0.0949
   72SLPC   O31 6277   5.136   2.237  10.321 -0.3778  0.4211 -0.4819
   72SLPC   C31 6278   5.010   2.277  10.302  0.7296 -0.5155  0.3408
   72SLPC   O32 6279   4.943   2.343  10.377 -0.7059 -0.3614 -0.0677
   72SLPC   C32 6280   4.946   2.234  10.172  0.0629 -0.4524 -0.1085
   72SLPC   H2X 6281   4.980   2.310  10.098 -0.9926  1.2721  1.1151
   72SLPC   H2Y 6282   4.836   2.230  10.183 -0.1090 -0.6196 -1.6154
   72SLPC   C23 6283   5.354   1.839  10.437 -0.3458  0.2541 -0.2607
   72SLPC   H3R 6284   5.400   1.737  10.443  2.3535  1.4524  1.3721
   72SLPC   H3S 6285   5.413   1.909  10.500 -0.7746 -1.3655  2.0954
   72SLPC   C24 6286   5.342   1.867  10.281 -0.6869  0.0226 -0.0517
   72SLPC   H4R 6287   5.442   1.887  10.238 -0.4400  1.1647  0.9842
   72SLPC   H4S 6288   5.287   1.964  10.270 -2.5853 -1.1179 -1.2987
   72SLPC   C25 6289   5.262   1.763  10.196  0.1236 -0.0453 -0.1040
   72SLPC   H5R 6290   5.158   1.783  10.228  1.0259 -0.3952  3.4513
   72SLPC   H5S 6291   5.289   1.661  10.229  2.1743  0.1248 -1.0569
   72SLPC   C26 6292   5.280   1.773  10.044  0.0486 -0.2600  0.3881
   72SLPC   H6R 6293   5.388   1.782  10.022 -0.5254  0.6874 -2.3198
   72SLPC   H6S 6294   5.242   1.872  10.012 -1.4616 -0.6703  0.8194
   72SLPC   C27 6295   5.213   1.662   9.954 -0.4192 -0.6418  0.9145
   72SLPC   H7R 6296   5.104   1.646   9.966 -0.5170 -0.4098  0.3528
   72SLPC   H7S 6297   5.266   1.565   9.968 -0.8228 -0.7114  2.1452
   72SLPC   C28 6298   5.235   1.706   9.809  0.3827 -0.6099 -0.1890
   72SLPC   H8R 6299   5.343   1.710   9.782  0.7192  1.8422  1.2003
   72SLPC   H8S 6300   5.199   1.811   9.808 -0.2775 -0.8332 -0.9435
   72SLPC   C29 6301   5.164   1.626   9.712 -0.1107 -0.2611 -0.0311
   72SLPC   H9R 6302   5.100   1.542   9.744  0.4236 -0.0304  1.7770
   72SLPC  C210 6303   5.186   1.636   9.576  0.1088 -0.6527 -0.5804
   72SLPC  H10R 6304   5.131   1.573   9.505  0.8062  0.1285 -1.8512
   72SLPC  C211 6305   5.272   1.735   9.512 -0.5670  0.0702  0.0002
   72SLPC  H11R 6306   5.361   1.750   9.575 -0.3834 -1.0379  0.0229
   72SLPC  H11S 6307   5.223   1.831   9.485  0.2019  0.3778 -0.3247
   72SLPC  C212 6308   5.320   1.681   9.381 -0.0241 -0.3006 -0.4773
   72SLPC  H12R 6309   5.428   1.662   9.383  0.1022  0.4483 -0.0386
   72SLPC  C213 6310   5.259   1.672   9.259  0.1473 -0.0785  0.1387
   72SLPC  H13R 6311   5.329   1.650   9.177  3.5146  1.2927  2.4042
   72SLPC  C214 6312   5.116   1.699   9.216 -0.4449 -0.2495  0.2292
   72SLPC  H14R 6313   5.124   1.759   9.123  2.2843 -0.8600 -0.0015
   72SLPC  H14S 6314   5.059   1.759   9.290 -0.3823 -2.5928  2.2975
   72SLPC  C215 6315   5.040   1.569   9.186  0.1202  0.0519 -0.2943
   72SLPC  H15R 6316   4.931   1.593   9.188  0.5880  2.4512  2.1802
   72SLPC  H15S 6317   5.051   1.485   9.258 -1.6911  0.6860  0.7938
   72SLPC  C216 6318   5.055   1.514   9.043  0.1414 -0.2487  0.0774
   72SLPC  H16R 6319   5.163   1.487   9.046  1.2214  3.5368  1.0306
   72SLPC  H16S 6320   5.035   1.595   8.970  1.5173 -1.5113 -1.8154
   72SLPC  C217 6321   4.962   1.399   9.014  0.4622  1.0036 -1.1916
   72SLPC  H17R 6322   4.866   1.443   8.980 -0.2202 -1.2515 -2.3471
   72SLPC  H17S 6323   4.952   1.351   9.113  0.8683  0.2581 -1.5018
   72SLPC  C218 6324   5.004   1.291   8.912  0.2546 -0.6943 -0.0634
   72SLPC  H18R 6325   5.111   1.267   8.929  0.4423 -1.4498 -2.0648
   72SLPC  H18S 6326   4.994   1.318   8.805  0.8828  1.4261  0.3636
   72SLPC  H18T 6327   4.949   1.196   8.929 -2.0762  0.6408  0.2907
   72SLPC   C33 6328   5.002   2.089  10.134  0.4991 -0.0057  0.1739
   72SLPC   H3X 6329   4.984   2.034  10.228 -1.1612  0.5846  0.2293
   72SLPC   H3Y 6330   5.111   2.073  10.115  0.7953 -1.0917  2.4667
   72SLPC   C34 6331   4.932   2.022  10.014  0.5743 -0.1093  0.6533
   72SLPC   H4X 6332   4.823   2.028  10.033 -0.1315 -0.5723 -2.6631
   72SLPC   H4Y 6333   4.948   1.912  10.015 -0.1306 -0.3242 -2.3343
   72SLPC   C35 6334   4.967   2.074   9.876 -0.5892  0.3224 -0.4293
   72SLPC   H5X 6335   5.075   2.059   9.855 -0.4381  1.4781 -0.5173
   72SLPC   H5Y 6336   4.954   2.184   9.872 -1.7284  0.2746  1.1303
   72SLPC   C36 6337   4.888   1.991   9.771 -0.3763 -0.3159  0.1707
   72SLPC   H6X 6338   4.779   2.013   9.759 -0.0963 -0.1010 -2.7465
   72SLPC   H6Y 6339   4.899   1.883   9.792 -1.1648 -0.7338 -1.3602
   72SLPC   C37 6340   4.935   2.015   9.623  0.1719 -0.2432  1.1223
   72SLPC   H7X 6341   4.970   1.918   9.584 -2.2108 -0.5332 -0.5430
   72SLPC   H7Y 6342   5.023   2.082   9.625 -1.1712  1.6166  1.0604
   72SLPC   C38 6343   4.824   2.070   9.525 -0.2079  0.1413  0.1148
   72SLPC   H8X 6344   4.856   2.119   9.431 -0.9562  1.6444  0.6126
   72SLPC   H8Y 6345   4.782   2.156   9.581 -0.2181 -0.6726  1.4021
   72SLPC   C39 6346   4.716   1.968   9.495  0.4809 -0.0353 -0.1190
   72SLPC   H9X 6347   4.642   2.026   9.437 -0.6597 -0.4670  0.8499
   72SLPC   H9Y 6348   4.668   1.935   9.590  4.5193  1.4599  2.7463
   72SLPC  C310 6349   4.763   1.851   9.414 -0.9550 -1.1707 -0.2218
   72SLPC  H10X 6350   4.836   1.805   9.484 -0.6060 -1.2395 -0.6262
   72SLPC  H10Y 6351   4.810   1.883   9.318 -1.2570 -0.4200 -0.1234
   72SLPC  C311 6352   4.642   1.758   9.411 -0.2655  0.7611 -0.0623
   72SLPC  H11X 6353   4.546   1.814   9.408  0.0624  1.4940  1.8042
   72SLPC  H11Y 6354   4.631   1.696   9.502 -0.4410  1.3948  0.3603
   72SLPC  C312 6355   4.649   1.649   9.301  0.0180 -0.5935 -1.1476
   72SLPC  H12X 6356   4.577   1.568   9.325 -0.8210  0.7780  1.3435
   72SLPC  H12Y 6357   4.751   1.608   9.312  0.7770  1.4634  0.1835
   72SLPC  C313 6358   4.632   1.718   9.165 -0.3139 -0.1101  0.5628
   72SLPC  H13X 6359   4.722   1.779   9.142 -1.2717  0.9300 -0.5361
   72SLPC  H13Y 6360   4.546   1.787   9.172 -0.5890 -0.5721  2.5060
   72SLPC  C314 6361   4.606   1.624   9.039  0.7808  0.4367 -0.4708
   72SLPC  H14X 6362   4.519   1.559   9.060 -0.5988  1.2863 -3.0504
   72SLPC  H14Y 6363   4.694   1.559   9.024  0.7744  0.3993 -0.3437
   72SLPC  C315 6364   4.582   1.713   8.903  0.2022  1.0396 -0.8531
   72SLPC  H15X 6365   4.495   1.781   8.916 -0.8629 -0.1278 -1.6371
   72SLPC  H15Y 6366   4.554   1.649   8.816 -0.8276 -3.2410  2.3137
   72SLPC  C316 6367   4.701   1.803   8.877 -0.5079  0.5600 -0.3078
   72SLPC  H16X 6368   4.795   1.761   8.919 -1.0766  2.9729  3.9441
   72SLPC  H16Y 6369   4.673   1.890   8.940 -0.5355 -1.3099  2.4240
   72SLPC  C317 6370   4.703   1.856   8.731  0.2744 -1.0037 -0.1926
   72SLPC  H17X 6371   4.757   1.952   8.724 -0.9407 -0.2540  0.4809
   72SLPC  H17Y 6372   4.601   1.885   8.698  1.8386  1.6047 -3.2600
   72SLPC  C318 6373   4.754   1.759   8.628  0.3200 -0.3852  0.4042
   72SLPC  H18X 6374   4.864   1.749   8.624  0.5228  1.7676 -0.4211
   72SLPC  H18Y 6375   4.725   1.783   8.524 -1.3606 -2.2382  0.3650
   72SLPC  H18Z 6376   4.709   1.658   8.643  2.0778 -1.5304 -1.5467
   73SLPC     N 6377   4.219   6.532  11.313  0.0879  0.5098  0.0638
   73SLPC   C13 6378   4.111   6.591  11.389  0.2103 -0.8312 -0.3965
   73SLPC  H13A 6379   4.026   6.524  11.402 -1.0750  0.8008 -0.0510
   73SLPC  H13B 6380   4.135   6.622  11.489  0.2501 -1.5339 -0.1847
   73SLPC  H13C 6381   4.074   6.681  11.342  1.9730  0.0255 -0.2180
   73SLPC   C14 6382   4.152   6.454  11.200 -0.2138 -0.0332  1.0677
   73SLPC  H14A 6383   4.086   6.385  11.250 -2.1870  1.5878  0.8525
   73SLPC  H14B 6384   4.100   6.524  11.137 -0.3109 -1.1222 -0.1068
   73SLPC  H14C 6385   4.221   6.386  11.152 -0.2848  0.7386 -0.1889
   73SLPC   C15 6386   4.288   6.428  11.400 -0.1927 -0.0124  0.2768
   73SLPC  H15A 6387   4.350   6.478  11.473  1.0437 -1.1023  0.0014
   73SLPC  H15B 6388   4.212   6.394  11.469  1.0398 -0.9513  1.2173
   73SLPC  H15C 6389   4.340   6.355  11.341  0.1466  0.8819 -0.5659
   73SLPC   C12 6390   4.319   6.636  11.269  0.5215  0.0476  0.4383
   73SLPC  H12A 6391   4.402   6.579  11.231 -0.8544 -2.7372  1.3192
   73SLPC  H12B 6392   4.367   6.694  11.346  0.2949  2.5336 -1.1981
   73SLPC   C11 6393   4.254   6.728  11.161 -0.2124  0.0800 -0.3229
   73SLPC  H11A 6394   4.224   6.661  11.078  0.2100 -1.8950  1.0318
   73SLPC  H11B 6395   4.337   6.794  11.128 -0.4546  1.4340  1.5894
   73SLPC     P 6396   4.060   6.887  11.103  0.0218  0.2771 -0.3153
   73SLPC   O13 6397   3.915   6.895  11.139 -0.4998  0.1302  0.0675
   73SLPC   O14 6398   4.134   7.014  11.099  0.0713 -0.5207 -0.7514
   73SLPC   O12 6399   4.142   6.799  11.201 -0.2524  0.4512 -0.3775
   73SLPC   O11 6400   4.073   6.836  10.950 -0.4345  0.6819 -0.3159
   73SLPC    C1 6401   3.980   6.733  10.904  0.0280 -0.0202  0.6445
   73SLPC    HA 6402   4.030   6.635  10.886 -1.2047 -0.7718  1.0761
   73SLPC    HB 6403   3.909   6.705  10.986 -2.4245 -1.3029 -1.7503
   73SLPC    C2 6404   3.905   6.784  10.778 -0.1778 -0.5712  0.0679
   73SLPC    HS 6405   3.817   6.718  10.763 -0.8967  0.7632 -2.0564
   73SLPC   O21 6406   3.993   6.787  10.663 -0.0388 -0.0862 -0.1795
   73SLPC   C21 6407   4.022   6.671  10.611 -0.0996 -0.5260  0.0747
   73SLPC   O22 6408   3.968   6.565  10.633 -0.1789 -0.6892 -0.4004
   73SLPC   C22 6409   4.124   6.693  10.496  0.5648 -0.5150  0.1235
   73SLPC   H2R 6410   4.094   6.783  10.439 -1.3300 -0.6896  0.7659
   73SLPC   H2S 6411   4.215   6.719  10.554  0.3637  0.3401  0.0719
   73SLPC    C3 6412   3.838   6.923  10.788  0.6110  0.8677  0.1272
   73SLPC    HX 6413   3.905   7.004  10.823  0.4314  0.4156  1.6100
   73SLPC    HY 6414   3.764   6.913  10.871  2.0697  0.8426  1.4676
   73SLPC   O31 6415   3.777   6.956  10.661  0.2100  0.3065  0.0188
   73SLPC   C31 6416   3.707   7.062  10.660 -0.0893  0.1300  0.7923
   73SLPC   O32 6417   3.694   7.141  10.753  0.5178 -0.0624  0.1795
   73SLPC   C32 6418   3.635   7.065  10.530  0.4299  0.3674  0.3664
   73SLPC   H2X 6419   3.540   7.008  10.536  1.1823 -0.9852 -0.0520
   73SLPC   H2Y 6420   3.701   7.021  10.451  0.7035  1.2469  0.0980
   73SLPC   C23 6421   4.144   6.567  10.404 -0.2585 -0.0121 -0.5327
   73SLPC   H3R 6422   4.179   6.482  10.467  1.1695  0.8754 -0.0838
   73SLPC   H3S 6423   4.237   6.588  10.347  1.3859 -2.4983  1.0269
   73SLPC   C24 6424   4.036   6.538  10.298 -0.5378 -0.6566 -0.2635
   73SLPC   H4R 6425   4.020   6.627  10.233 -2.0584 -0.0347  0.9066
   73SLPC   H4S 6426   3.937   6.515  10.342 -1.2657 -0.7256 -1.8514
   73SLPC   C25 6427   4.075   6.416  10.210  0.2144 -0.7182 -0.3314
   73SLPC   H5R 6428   3.990   6.390  10.144 -0.6934  1.0560  0.0922
   73SLPC   H5S 6429   4.106   6.337  10.283 -0.9913 -1.1141 -0.2230
   73SLPC   C26 6430   4.189   6.448  10.099  0.0139  0.3883  0.5454
   73SLPC   H6R 6431   4.279   6.467  10.161  0.8705 -1.7881  0.0912
   73SLPC   H6S 6432   4.170   6.545  10.049  1.2015  0.3912  0.0740
   73SLPC   C27 6433   4.213   6.337   9.992 -0.8223  0.7903  0.2715
   73SLPC   H7R 6434   4.122   6.288   9.952  0.7114 -1.3219 -0.7928
   73SLPC   H7S 6435   4.272   6.258  10.043 -0.6666  0.0018 -1.0736
   73SLPC   C28 6436   4.303   6.379   9.866  0.0945 -0.4739  0.4299
   73SLPC   H8R 6437   4.378   6.452   9.903  0.3553 -0.1704 -0.6730
   73SLPC   H8S 6438   4.231   6.427   9.796  0.1513 -2.1520 -0.8329
   73SLPC   C29 6439   4.372   6.261   9.806 -0.3276  0.0100  0.5439
   73SLPC   H9R 6440   4.457   6.213   9.856 -2.0185 -2.4644  1.2279
   73SLPC  C210 6441   4.332   6.197   9.696 -0.5303 -0.6799 -0.0594
   73SLPC  H10R 6442   4.382   6.105   9.661 -0.0066  0.5629 -2.8265
   73SLPC  C211 6443   4.217   6.222   9.606 -0.4744  0.3339  0.0376
   73SLPC  H11R 6444   4.248   6.201   9.501  1.1816 -1.1295  0.7550
   73SLPC  H11S 6445   4.201   6.332   9.604  1.8954  0.7304 -0.8836
   73SLPC  C212 6446   4.093   6.150   9.640  0.1808 -0.1307  0.2633
   73SLPC  H12R 6447   4.062   6.158   9.745 -0.9843 -1.0062  0.0059
   73SLPC  C213 6448   4.000   6.093   9.565  0.8863 -0.0937  0.3694
   73SLPC  H13R 6449   3.913   6.051   9.618  0.4577  0.3839  0.0522
   73SLPC  C214 6450   3.997   6.083   9.409 -0.1996  0.0348  0.0804
   73SLPC  H14R 6451   3.994   5.976   9.378  1.0028  0.1819 -0.6255
   73SLPC  H14S 6452   4.089   6.122   9.360  1.0578 -2.4227  0.3357
   73SLPC  C215 6453   3.868   6.120   9.339  0.5319 -0.0083  0.6969
   73SLPC  H15R 6454   3.856   6.230   9.343 -3.1839 -0.2580  0.4367
   73SLPC  H15S 6455   3.779   6.071   9.385 -0.6402  0.5143 -0.9167
   73SLPC  C216 6456   3.877   6.089   9.192  0.6405  0.1887  0.5308
   73SLPC  H16R 6457   3.889   5.981   9.167 -0.2515  0.4415 -1.1023
   73SLPC  H16S 6458   3.973   6.131   9.154  2.4722 -2.0393  2.4172
   73SLPC  C217 6459   3.764   6.134   9.100  0.4554 -0.0170  0.0260
   73SLPC  H17R 6460   3.747   6.243   9.112 -1.5828 -0.2847 -0.0909
   73SLPC  H17S 6461   3.664   6.099   9.134  1.2159 -2.3751  0.0547
   73SLPC  C218 6462   3.785   6.094   8.952  0.1028 -0.3042 -0.3136
   73SLPC  H18R 6463   3.741   5.998   8.919  2.2304 -0.4861 -2.9519
   73SLPC  H18S 6464   3.894   6.094   8.932  0.2945  0.9847  0.6183
   73SLPC  H18T 6465   3.752   6.176   8.883 -2.0463 -0.4273  0.4977
   73SLPC   C33 6466   3.598   7.211  10.496 -0.1531  0.0742  0.3344
   73SLPC   H3X 6467   3.681   7.270  10.453 -1.7107  0.9743 -1.6063
   73SLPC   H3Y 6468   3.552   7.269  10.579  0.0435  1.9745 -0.8402
   73SLPC   C34 6469   3.478   7.214  10.395 -0.3365 -0.1436  0.2405
   73SLPC   H4X 6470   3.431   7.313  10.416  3.6431  2.5947 -2.3393
   73SLPC   H4Y 6471   3.405   7.140  10.434 -1.6266  1.3929  0.8435
   73SLPC   C35 6472   3.507   7.181  10.246  0.0310 -0.5489  0.3532
   73SLPC   H5X 6473   3.409   7.174  10.195 -0.8531  1.3913  1.6730
   73SLPC   H5Y 6474   3.564   7.086  10.252  0.5179 -0.4188 -1.5804
   73SLPC   C36 6475   3.603   7.269  10.168 -0.5927  0.4584 -0.0585
   73SLPC   H6X 6476   3.709   7.251  10.197 -1.1306 -0.6641  1.3005
   73SLPC   H6Y 6477   3.585   7.378  10.183  2.1161  1.0902 -0.7504
   73SLPC   C37 6478   3.604   7.252  10.016 -0.9243 -1.1159 -0.3426
   73SLPC   H7X 6479   3.682   7.323   9.982 -0.6048 -0.8854  0.8521
   73SLPC   H7Y 6480   3.502   7.287   9.986 -1.1794 -1.0329  0.5959
   73SLPC   C38 6481   3.629   7.110   9.970 -0.5413  0.5422  0.5985
   73SLPC   H8X 6482   3.539   7.050   9.996 -0.6163 -0.4037 -1.6281
   73SLPC   H8Y 6483   3.722   7.067  10.012  1.0101 -0.3891 -3.3490
   73SLPC   C39 6484   3.659   7.087   9.823 -0.2035 -0.7397  0.0882
   73SLPC   H9X 6485   3.700   6.984   9.819 -1.0325 -1.1069  0.6530
   73SLPC   H9Y 6486   3.732   7.167   9.796 -1.9828 -0.0170 -2.9909
   73SLPC  C310 6487   3.525   7.100   9.734  0.3504  0.1093 -0.0426
   73SLPC  H10X 6488   3.458   7.182   9.768 -0.5548 -0.4970 -0.3286
   73SLPC  H10Y 6489   3.472   7.003   9.747  1.8955 -0.9842 -1.4459
   73SLPC  C311 6490   3.537   7.127   9.587 -0.0648  0.3173 -0.3007
   73SLPC  H11X 6491   3.600   7.219   9.576 -1.0509  1.1440  0.6925
   73SLPC  H11Y 6492   3.443   7.153   9.534 -0.3700 -0.6795 -0.2622
   73SLPC  C312 6493   3.589   7.019   9.501  0.1625 -0.1256  0.0248
   73SLPC  H12X 6494   3.533   6.930   9.537 -1.0033  2.1535  4.6138
   73SLPC  H12Y 6495   3.698   7.001   9.514  0.0080  0.7940  3.4074
   73SLPC  C313 6496   3.593   7.051   9.351 -0.1088  0.7940  0.0434
   73SLPC  H13X 6497   3.639   7.149   9.325 -0.0861  1.1276  1.2961
   73SLPC  H13Y 6498   3.493   7.087   9.320  0.3621  0.8722 -1.4939
   73SLPC  C314 6499   3.638   6.934   9.257 -0.0558 -0.2537 -0.2965
   73SLPC  H14X 6500   3.558   6.858   9.268 -0.3169  0.2866  2.2585
   73SLPC  H14Y 6501   3.731   6.890   9.299  0.2290  3.2027  3.3535
   73SLPC  C315 6502   3.648   6.976   9.109 -0.1412 -0.4119  0.2393
   73SLPC  H15X 6503   3.677   6.879   9.062 -0.2451 -0.6336  0.6368
   73SLPC  H15Y 6504   3.742   7.032   9.087 -0.8030  0.8672  0.5949
   73SLPC  C316 6505   3.532   7.047   9.044 -0.0710 -0.6465 -0.1680
   73SLPC  H16X 6506   3.530   7.153   9.077 -1.2185 -0.9874  0.9607
   73SLPC  H16Y 6507   3.433   7.006   9.075 -0.5093 -0.4593 -1.2694
   73SLPC  C317 6508   3.537   7.046   8.895 -0.4580  0.2463 -0.1234
   73SLPC  H17X 6509   3.456   7.107   8.849  0.9263  1.0990 -1.5461
   73SLPC  H17Y 6510   3.527   6.948   8.845  1.2004  0.4514 -0.9276
   73SLPC  C318 6511   3.670   7.097   8.829 -0.0362  0.2926 -0.6261
   73SLPC  H18X 6512   3.690   7.196   8.876  1.2985 -0.1670 -0.1883
   73SLPC  H18Y 6513   3.662   7.106   8.719  2.3269  0.3904 -0.8313
   73SLPC  H18Z 6514   3.750   7.024   8.854 -1.1939 -0.4110  1.2117
   74SLPC     N 6515   5.888   5.221  10.980  0.1455 -0.4373  0.4216
   74SLPC   C13 6516   6.005   5.250  11.073  0.1372  0.1416  0.3243
   74SLPC  H13A 6517   6.055   5.339  11.039 -1.4548  1.3381  0.9825
   74SLPC  H13B 6518   5.971   5.249  11.175  2.3465 -0.8141  1.1113
   74SLPC  H13C 6519   6.064   5.161  11.081  0.2207  0.3898  3.6554
   74SLPC   C14 6520   5.792   5.339  10.988 -0.1126 -0.2075  0.0078
   74SLPC  H14A 6521   5.734   5.344  11.079 -4.4131 -2.0023 -2.3643
   74SLPC  H14B 6522   5.852   5.429  10.978 -0.1537 -0.1086  0.6004
   74SLPC  H14C 6523   5.722   5.340  10.906 -2.0272 -0.8970  1.5623
   74SLPC   C15 6524   5.805   5.104  11.024 -0.5116  0.4069  0.0065
   74SLPC  H15A 6525   5.716   5.104  10.962  0.8146 -0.1070 -2.0222
   74SLPC  H15B 6526   5.859   5.010  11.023 -1.1266 -0.0815  3.4142
   74SLPC  H15C 6527   5.781   5.121  11.127  1.1828 -0.7171  0.6281
   74SLPC   C12 6528   5.941   5.203  10.839 -0.4844 -0.2021 -0.6596
   74SLPC  H12A 6529   6.010   5.120  10.836  0.5714  0.5980  0.4946
   74SLPC  H12B 6530   5.996   5.295  10.823 -0.9143 -0.0454 -1.2899
   74SLPC   C11 6531   5.842   5.181  10.724  0.2570  0.2301  0.5178
   74SLPC  H11A 6532   5.898   5.177  10.628  2.4112 -0.4294  1.7370
   74SLPC  H11B 6533   5.782   5.274  10.719  1.2232  0.8439 -2.8839
   74SLPC     P 6534   5.819   4.925  10.730 -0.0813  0.0355 -0.2979
   74SLPC   O13 6535   5.948   4.933  10.801  0.2336 -0.0406 -0.0268
   74SLPC   O14 6536   5.726   4.820  10.779 -0.0126  0.1636  0.1111
   74SLPC   O12 6537   5.754   5.065  10.737  0.4372 -0.1024  0.7864
   74SLPC   O11 6538   5.841   4.910  10.570  0.0382  0.7466  0.1909
   74SLPC    C1 6539   5.763   4.972  10.467 -0.2105 -0.1715 -0.2731
   74SLPC    HA 6540   5.672   5.023  10.504  0.4924  0.6476  0.3647
   74SLPC    HB 6541   5.838   5.047  10.433  2.8712 -2.4218  1.0100
   74SLPC    C2 6542   5.717   4.886  10.357  0.2106 -0.7276 -0.3780
   74SLPC    HS 6543   5.798   4.814  10.331  0.0839 -0.9873 -0.0544
   74SLPC   O21 6544   5.690   4.978  10.245 -0.1944  0.1170 -0.4127
   74SLPC   C21 6545   5.712   4.925  10.123  0.2386 -0.1548 -0.1932
   74SLPC   O22 6546   5.756   4.815  10.101 -0.0497  0.5266 -0.0887
   74SLPC   C22 6547   5.680   5.036  10.023  0.1290 -0.4480  0.8108
   74SLPC   H2R 6548   5.600   5.103  10.060  0.8872  2.9055 -2.9960
   74SLPC   H2S 6549   5.770   5.099  10.006  0.6653 -1.3738  0.1030
   74SLPC    C3 6550   5.583   4.802  10.398 -1.2499 -0.3959 -0.5216
   74SLPC    HX 6551   5.507   4.878  10.427 -0.8761 -0.6716  1.2695
   74SLPC    HY 6552   5.618   4.741  10.483 -1.1411  1.6373  0.9629
   74SLPC   O31 6553   5.540   4.718  10.295 -0.3361 -0.3300  0.1200
   74SLPC   C31 6554   5.480   4.602  10.334 -0.1205 -0.2934 -0.3996
   74SLPC   O32 6555   5.450   4.579  10.453  0.8435  0.1459 -0.5151
   74SLPC   C32 6556   5.450   4.501  10.226 -0.0607 -0.7596  0.0848
   74SLPC   H2X 6557   5.356   4.447  10.252  0.0417 -1.7216 -1.3923
   74SLPC   H2Y 6558   5.525   4.420  10.220 -0.1365 -0.8985  0.9735
   74SLPC   C23 6559   5.632   4.978   9.890  0.0768  0.5227 -0.2875
   74SLPC   H3R 6560   5.573   5.061   9.846  1.4061  0.5292 -2.1876
   74SLPC   H3S 6561   5.572   4.885   9.897  1.8863 -0.6348  0.6436
   74SLPC   C24 6562   5.751   4.961   9.807 -0.3012 -0.2079 -0.3139
   74SLPC   H4R 6563   5.814   4.877   9.845 -0.7167 -2.2293 -3.7382
   74SLPC   H4S 6564   5.814   5.053   9.809  1.5675 -1.3897  2.4683
   74SLPC   C25 6565   5.713   4.938   9.658 -0.3546  0.9699  0.1550
   74SLPC   H5R 6566   5.675   4.836   9.635  0.5792  1.0539 -2.0406
   74SLPC   H5S 6567   5.805   4.940   9.595  0.1760 -2.2099  0.6615
   74SLPC   C26 6568   5.625   5.045   9.598  0.3310  0.1745  0.4045
   74SLPC   H6R 6569   5.659   5.140   9.644  1.5877  0.3848 -0.8758
   74SLPC   H6S 6570   5.521   5.029   9.635  0.2306  0.4543  0.2452
   74SLPC   C27 6571   5.615   5.058   9.445 -0.1952 -0.1550 -0.6793
   74SLPC   H7R 6572   5.507   5.044   9.421  0.4223 -2.0758 -2.8202
   74SLPC   H7S 6573   5.669   4.972   9.399  0.8583 -0.1571  0.4954
   74SLPC   C28 6574   5.662   5.189   9.384 -0.1728  0.3563  0.5992
   74SLPC   H8R 6575   5.611   5.271   9.440 -0.8736  1.3026 -1.3205
   74SLPC   H8S 6576   5.633   5.190   9.277 -0.7915  0.9442  0.7610
   74SLPC   C29 6577   5.810   5.200   9.393 -0.5920 -0.7427 -0.0151
   74SLPC   H9R 6578   5.861   5.132   9.463 -0.0964 -0.4597 -0.0935
   74SLPC  C210 6579   5.882   5.272   9.305 -0.0746  0.9813  0.7278
   74SLPC  H10R 6580   5.989   5.287   9.326 -0.1328  1.3874  0.7431
   74SLPC  C211 6581   5.824   5.363   9.195  0.3187 -0.0534 -0.0665
   74SLPC  H11R 6582   5.718   5.339   9.176  0.1276  1.7813 -1.4941
   74SLPC  H11S 6583   5.884   5.338   9.104  0.8172 -1.1181  0.5274
   74SLPC  C212 6584   5.829   5.510   9.242 -0.0706  0.1253  0.0009
   74SLPC  H12R 6585   5.799   5.525   9.347  0.3165  2.5014 -0.1890
   74SLPC  C213 6586   5.858   5.616   9.161 -0.3237  0.1792 -0.0431
   74SLPC  H13R 6587   5.837   5.715   9.203 -0.3281  0.6564 -1.1377
   74SLPC  C214 6588   5.900   5.599   9.014  0.1460 -1.0571  0.0694
   74SLPC  H14R 6589   5.889   5.492   8.984 -1.2846 -0.7040 -0.8002
   74SLPC  H14S 6590   6.004   5.636   9.009  0.1086 -0.7761  1.1924
   74SLPC  C215 6591   5.810   5.691   8.924  0.1398 -0.1395  0.0437
   74SLPC  H15R 6592   5.826   5.795   8.960  0.6254 -1.0443  2.6869
   74SLPC  H15S 6593   5.704   5.662   8.940 -0.3300  0.2376 -2.1226
   74SLPC  C216 6594   5.852   5.677   8.773  0.2664 -0.3111 -0.1297
   74SLPC  H16R 6595   5.953   5.722   8.763  0.0029 -0.1321 -3.2283
   74SLPC  H16S 6596   5.798   5.750   8.709  2.2791  0.2298 -1.2974
   74SLPC  C217 6597   5.834   5.542   8.703 -0.7016 -0.7319 -0.2825
   74SLPC  H17R 6598   5.726   5.515   8.705 -0.7259 -0.9592 -2.4953
   74SLPC  H17S 6599   5.889   5.471   8.769 -2.0834 -1.3049  0.3007
   74SLPC  C218 6600   5.890   5.539   8.560 -0.0792  0.4303 -1.0882
   74SLPC  H18R 6601   5.997   5.569   8.557 -0.2656  1.4054  0.4634
   74SLPC  H18S 6602   5.834   5.614   8.500 -1.3651  1.1428  0.8731
   74SLPC  H18T 6603   5.889   5.439   8.511  0.5567  0.6167 -1.4836
   74SLPC   C33 6604   5.432   4.558  10.089  0.0131  0.4180 -0.4567
   74SLPC   H3X 6605   5.533   4.593  10.059  1.4900 -1.1336  2.3431
   74SLPC   H3Y 6606   5.367   4.648  10.096 -2.4862 -1.2800 -0.4683
   74SLPC   C34 6607   5.359   4.473   9.984  0.0412 -0.2199  0.5900
   74SLPC   H4X 6608   5.259   4.443  10.020 -0.7037  1.6774  0.2089
   74SLPC   H4Y 6609   5.418   4.379   9.976 -1.7144 -1.5173  1.9875
   74SLPC   C35 6610   5.342   4.529   9.846  0.8283  0.6531 -0.3569
   74SLPC   H5X 6611   5.266   4.609   9.860  0.5951  0.3798 -0.0405
   74SLPC   H5Y 6612   5.295   4.444   9.792 -1.1953  1.3215  0.2450
   74SLPC   C36 6613   5.466   4.591   9.788 -0.4357 -0.3548 -0.7328
   74SLPC   H6X 6614   5.556   4.526   9.785  0.5083  0.9267 -1.0567
   74SLPC   H6Y 6615   5.480   4.678   9.856 -0.3064 -1.5010  0.7642
   74SLPC   C37 6616   5.435   4.639   9.641  0.1234 -0.4438 -1.0626
   74SLPC   H7X 6617   5.499   4.722   9.603  1.3469 -1.6600 -1.7658
   74SLPC   H7Y 6618   5.328   4.669   9.642 -0.5915 -2.6486 -2.8576
   74SLPC   C38 6619   5.467   4.529   9.536  0.4943  0.5730  0.5878
   74SLPC   H8X 6620   5.419   4.444   9.588  0.3107 -0.0418 -0.5345
   74SLPC   H8Y 6621   5.575   4.511   9.516  0.2971 -1.5864  1.2754
   74SLPC   C39 6622   5.414   4.563   9.401  0.3097  0.2027  0.7572
   74SLPC   H9X 6623   5.456   4.656   9.357 -1.2023  0.5874  0.0660
   74SLPC   H9Y 6624   5.305   4.584   9.402  0.1430 -0.2837 -1.7739
   74SLPC  C310 6625   5.442   4.449   9.305 -0.6425  0.7463 -0.0641
   74SLPC  H10X 6626   5.370   4.369   9.332 -2.1709  1.5546 -1.5212
   74SLPC  H10Y 6627   5.540   4.399   9.315 -1.2102 -0.8527 -1.9256
   74SLPC  C311 6628   5.414   4.480   9.161  0.3099 -0.2098 -0.3104
   74SLPC  H11X 6629   5.499   4.551   9.148  0.0342  0.1560 -0.1584
   74SLPC  H11Y 6630   5.322   4.540   9.141 -0.3403 -1.8522 -2.5951
   74SLPC  C312 6631   5.439   4.357   9.072 -0.3949  0.1812 -0.4741
   74SLPC  H12X 6632   5.341   4.306   9.067 -0.7428  0.7067  0.5483
   74SLPC  H12Y 6633   5.498   4.274   9.116 -1.2738 -0.0825  0.2312
   74SLPC  C313 6634   5.486   4.381   8.927 -0.0368 -0.9599  0.0021
   74SLPC  H13X 6635   5.588   4.425   8.930 -1.5632  2.8603  1.8487
   74SLPC  H13Y 6636   5.423   4.459   8.878  1.9137 -0.4444 -1.8536
   74SLPC  C314 6637   5.483   4.253   8.835 -0.1857 -0.1534 -0.2654
   74SLPC  H14X 6638   5.562   4.182   8.871  0.1185 -0.2394 -1.0940
   74SLPC  H14Y 6639   5.505   4.288   8.732 -2.2928  0.1033 -0.6742
   74SLPC  C315 6640   5.347   4.191   8.834  0.4134  0.2360 -0.2783
   74SLPC  H15X 6641   5.267   4.267   8.819  0.8859  0.6654 -0.6815
   74SLPC  H15Y 6642   5.329   4.133   8.927  1.0676  1.5299  0.7053
   74SLPC  C316 6643   5.316   4.098   8.714 -0.0530 -0.2063  0.1560
   74SLPC  H16X 6644   5.380   4.008   8.729 -0.4093 -0.6014 -0.6197
   74SLPC  H16Y 6645   5.357   4.144   8.622 -1.2198  0.8551  0.1313
   74SLPC  C317 6646   5.168   4.055   8.693 -0.5063 -0.0050  0.2950
   74SLPC  H17X 6647   5.109   4.141   8.653  2.2189  1.1908 -1.5081
   74SLPC  H17Y 6648   5.115   4.018   8.783 -0.9377  0.2011  0.1304
   74SLPC  C318 6649   5.147   3.949   8.588 -0.5668  0.2287 -0.7596
   74SLPC  H18X 6650   5.044   3.908   8.600 -1.2558  1.6622 -1.5127
   74SLPC  H18Y 6651   5.212   3.862   8.612 -0.5474  0.2548 -0.7176
   74SLPC  H18Z 6652   5.172   3.990   8.488  1.6616  0.6404 -0.0778
   75SLPC     N 6653   4.493   2.747   6.580  0.0566 -0.0912 -0.1150
   75SLPC   C13 6654   4.603   2.803   6.644 -0.2024 -0.6497 -0.4332
   75SLPC  H13A 6655   4.565   2.877   6.713  1.2790 -0.4289  0.2071
   75SLPC  H13B 6656   4.666   2.730   6.694 -0.2883 -0.1208  0.4759
   75SLPC  H13C 6657   4.673   2.856   6.581  0.6997 -0.7150  0.4725
   75SLPC   C14 6658   4.528   2.674   6.451 -0.1896 -0.1249 -0.5565
   75SLPC  H14A 6659   4.563   2.742   6.375 -1.4685 -2.0875 -3.0336
   75SLPC  H14B 6660   4.608   2.602   6.459  0.2844  0.2895 -1.4544
   75SLPC  H14C 6661   4.443   2.628   6.403 -1.1524  1.5951 -0.5898
   75SLPC   C15 6662   4.397   2.859   6.550 -0.0570  1.0605 -0.3147
   75SLPC  H15A 6663   4.368   2.924   6.631  0.2500 -0.7684  1.3645
   75SLPC  H15B 6664   4.443   2.923   6.476  1.4868  1.9013  1.3116
   75SLPC  H15C 6665   4.303   2.821   6.510  0.5798 -3.2794  1.6740
   75SLPC   C12 6666   4.422   2.644   6.675 -0.1693  0.0164  0.0300
   75SLPC  H12A 6667   4.477   2.554   6.696 -1.0461 -0.0280  2.5265
   75SLPC  H12B 6668   4.342   2.595   6.622 -1.2417 -0.8712  2.2958
   75SLPC   C11 6669   4.351   2.684   6.796 -0.8562 -0.5016  0.7380
   75SLPC  H11A 6670   4.277   2.765   6.777  1.2784  1.1067 -1.2288
   75SLPC  H11B 6671   4.429   2.734   6.857 -0.2688  1.4676 -1.4814
   75SLPC     P 6672   4.181   2.480   6.806  0.5408  0.3306 -0.3159
   75SLPC   O13 6673   4.216   2.400   6.693 -0.6932  1.1131  0.2114
   75SLPC   O14 6674   4.117   2.415   6.921 -0.0598  0.1291  0.4854
   75SLPC   O12 6675   4.311   2.556   6.855 -0.3120  0.1097 -0.0248
   75SLPC   O11 6676   4.093   2.596   6.744 -0.3028  0.1304 -0.1281
   75SLPC    C1 6677   3.979   2.645   6.825  0.3807 -0.3083  0.2194
   75SLPC    HA 6678   3.908   2.698   6.757 -0.2789 -2.8977 -1.2434
   75SLPC    HB 6679   3.923   2.565   6.877 -0.2941 -0.9715 -1.4496
   75SLPC    C2 6680   4.026   2.754   6.932 -0.5265 -0.0950  0.0667
   75SLPC    HS 6681   4.080   2.841   6.887  0.1980  0.4446  1.8931
   75SLPC   O21 6682   4.107   2.689   7.038  0.3364 -0.3233 -0.0279
   75SLPC   C21 6683   4.201   2.773   7.092 -0.0645  0.8180 -0.2649
   75SLPC   O22 6684   4.218   2.892   7.072  0.0233  0.2194  0.3995
   75SLPC   C22 6685   4.294   2.681   7.176 -0.1172 -0.3002 -0.6268
   75SLPC   H2R 6686   4.237   2.598   7.224  0.9243 -1.5917 -1.5604
   75SLPC   H2S 6687   4.360   2.623   7.108 -0.2497 -3.4339  1.6695
   75SLPC    C3 6688   3.895   2.799   6.998  0.1866 -0.1504 -0.0619
   75SLPC    HX 6689   3.854   2.720   7.065 -1.6765  1.3983  0.7192
   75SLPC    HY 6690   3.822   2.818   6.917  1.1371 -0.5955 -1.0507
   75SLPC   O31 6691   3.913   2.906   7.092 -0.4988  0.5354  0.1884
   75SLPC   C31 6692   3.928   3.025   7.027 -0.2574 -0.7128  0.1184
   75SLPC   O32 6693   3.909   3.047   6.907  0.1655 -0.1609 -0.4507
   75SLPC   C32 6694   3.951   3.138   7.130  0.3459  0.1879 -0.1583
   75SLPC   H2X 6695   3.920   3.227   7.070 -0.3223 -0.1186 -0.2771
   75SLPC   H2Y 6696   4.060   3.148   7.148  0.0870 -0.0779  1.7002
   75SLPC   C23 6697   4.367   2.749   7.290  0.3919  0.2367  0.1242
   75SLPC   H3R 6698   4.400   2.845   7.247 -0.5823  0.8489  0.7139
   75SLPC   H3S 6699   4.460   2.693   7.313 -1.0548 -2.9241 -1.1462
   75SLPC   C24 6700   4.289   2.753   7.424  0.4768 -0.4230  0.2349
   75SLPC   H4R 6701   4.270   2.647   7.449  0.3205 -0.4708 -0.0784
   75SLPC   H4S 6702   4.188   2.797   7.408 -0.3265 -2.8347 -1.9211
   75SLPC   C25 6703   4.368   2.834   7.531 -0.6362  0.2654  0.2793
   75SLPC   H5R 6704   4.375   2.944   7.512 -1.3967  0.5143  1.3272
   75SLPC   H5S 6705   4.468   2.786   7.523 -0.7483  0.2300 -0.9466
   75SLPC   C26 6706   4.317   2.811   7.672  0.6639  0.0699  0.1332
   75SLPC   H6R 6707   4.286   2.710   7.705  0.7413  0.0264  0.0779
   75SLPC   H6S 6708   4.212   2.845   7.667 -0.8384 -3.9510  1.2718
   75SLPC   C27 6709   4.398   2.893   7.779 -0.4589  0.2082 -0.3165
   75SLPC   H7R 6710   4.376   3.002   7.767  1.3725  0.6226 -0.2732
   75SLPC   H7S 6711   4.505   2.877   7.753 -0.8195 -2.2242 -0.5129
   75SLPC   C28 6712   4.363   2.865   7.927  0.0421 -0.2045  0.2941
   75SLPC   H8R 6713   4.252   2.862   7.930 -0.0257  0.9998 -0.3665
   75SLPC   H8S 6714   4.393   2.951   7.991  0.5847 -1.4920  1.8473
   75SLPC   C29 6715   4.432   2.739   7.971 -0.0022 -0.0512  0.4922
   75SLPC   H9R 6716   4.391   2.644   7.933  0.9129 -0.0888 -0.4410
   75SLPC  C210 6717   4.540   2.724   8.045 -0.3335  0.3540 -0.1427
   75SLPC  H10R 6718   4.579   2.623   8.065 -1.6376 -0.1087  0.2076
   75SLPC  C211 6719   4.606   2.837   8.103 -0.3060 -0.1677 -0.6610
   75SLPC  H11R 6720   4.537   2.887   8.174 -0.7973  0.6404 -1.6705
   75SLPC  H11S 6721   4.634   2.907   8.021  0.6906  1.6533  1.1639
   75SLPC  C212 6722   4.738   2.810   8.175 -0.6438  0.4712  0.7290
   75SLPC  H12R 6723   4.828   2.835   8.118  0.1899  0.5250  2.0318
   75SLPC  C213 6724   4.753   2.765   8.302  0.7676  0.2576 -0.6246
   75SLPC  H13R 6725   4.855   2.746   8.339 -0.0414 -0.5968  1.3051
   75SLPC  C214 6726   4.638   2.743   8.405  0.0798  0.9729 -0.4715
   75SLPC  H14R 6727   4.555   2.807   8.369 -1.3180 -0.5485 -0.1046
   75SLPC  H14S 6728   4.648   2.782   8.509 -1.1626 -0.9527  0.4405
   75SLPC  C215 6729   4.570   2.602   8.423  0.2517  1.2837 -0.8347
   75SLPC  H15R 6730   4.555   2.575   8.317 -1.3831 -0.0060 -0.3208
   75SLPC  H15S 6731   4.464   2.620   8.453  0.2219  0.0022 -0.1119
   75SLPC  C216 6732   4.659   2.490   8.487  0.6950  0.3285 -0.0274
   75SLPC  H16R 6733   4.746   2.464   8.423  0.5453 -1.4160  0.4528
   75SLPC  H16S 6734   4.606   2.393   8.486  1.5571 -0.2246  2.6444
   75SLPC  C217 6735   4.714   2.519   8.630 -0.1134 -0.0118  0.4358
   75SLPC  H17R 6736   4.687   2.432   8.695  0.0683  0.0204  0.5550
   75SLPC  H17S 6737   4.654   2.606   8.663  0.2495  1.3465 -2.1645
   75SLPC  C218 6738   4.866   2.539   8.634  0.0999 -0.1173  0.1720
   75SLPC  H18R 6739   4.894   2.630   8.577 -0.3649 -0.3021 -0.3544
   75SLPC  H18S 6740   4.914   2.450   8.587 -0.0167 -0.1526  0.1176
   75SLPC  H18T 6741   4.900   2.546   8.740  3.1620 -0.6331 -0.6897
   75SLPC   C33 6742   3.875   3.130   7.266  0.1179 -1.2354 -0.3557
   75SLPC   H3X 6743   3.863   3.231   7.310  0.1352 -2.1229  1.8425
   75SLPC   H3Y 6744   3.771   3.099   7.244  0.8321 -2.1781 -2.7978
   75SLPC   C34 6745   3.941   3.039   7.369  0.8723  1.1053 -0.4451
   75SLPC   H4X 6746   4.048   3.065   7.386  1.0010  1.2725 -1.4415
   75SLPC   H4Y 6747   3.936   2.933   7.337  0.6274  1.2627 -0.9250
   75SLPC   C35 6748   3.872   3.061   7.507 -0.2194 -0.0023 -0.1493
   75SLPC   H5X 6749   3.766   3.030   7.496 -0.9150  2.3551 -0.6135
   75SLPC   H5Y 6750   3.874   3.170   7.527  1.5736 -0.0948  0.3355
   75SLPC   C36 6751   3.945   2.992   7.629 -0.6682 -0.5433  0.2907
   75SLPC   H6X 6752   4.052   3.018   7.617 -0.3908 -1.7312  0.1010
   75SLPC   H6Y 6753   3.937   2.882   7.618  2.3515 -1.0671  2.1412
   75SLPC   C37 6754   3.890   3.040   7.757  0.0668  0.2765  0.4133
   75SLPC   H7X 6755   3.786   3.006   7.776 -0.0715  0.6836  0.4014
   75SLPC   H7Y 6756   3.886   3.151   7.758  1.9052  0.4236 -1.2504
   75SLPC   C38 6757   3.983   2.996   7.874 -0.2866 -0.0048  0.1486
   75SLPC   H8X 6758   4.083   3.045   7.870  0.5271 -1.4450  1.3481
   75SLPC   H8Y 6759   4.006   2.888   7.862  2.0307  0.6133 -1.6052
   75SLPC   C39 6760   3.912   3.037   8.000  0.2551  0.0180 -0.2289
   75SLPC   H9X 6761   3.813   2.990   7.984 -0.5792  1.3857  0.7152
   75SLPC   H9Y 6762   3.903   3.148   7.996 -1.8206 -0.1491 -2.1541
   75SLPC  C310 6763   3.957   2.984   8.139 -0.6358  0.1554  0.6024
   75SLPC  H10X 6764   3.973   2.875   8.120  0.2395  0.6049 -1.6685
   75SLPC  H10Y 6765   3.877   2.993   8.215 -2.8275  2.2874 -1.7534
   75SLPC  C311 6766   4.096   3.035   8.185 -0.2822 -0.2467 -0.6004
   75SLPC  H11X 6767   4.082   3.144   8.196 -5.9168 -0.6845 -0.4110
   75SLPC  H11Y 6768   4.183   3.013   8.120  1.4200  1.8271  0.8414
   75SLPC  C312 6769   4.122   2.982   8.331  0.2534 -0.4459 -0.1463
   75SLPC  H12X 6770   4.123   2.871   8.339 -0.4526 -0.5366 -1.1972
   75SLPC  H12Y 6771   4.039   3.021   8.393  0.6237  0.3639 -0.1402
   75SLPC  C313 6772   4.252   3.040   8.388  0.1465  0.5093  0.0523
   75SLPC  H13X 6773   4.252   3.151   8.399  0.2852  0.6153 -0.9069
   75SLPC  H13Y 6774   4.327   3.014   8.310  1.8503 -2.0589  2.3885
   75SLPC  C314 6775   4.294   2.972   8.524  0.4432 -0.0735 -0.4081
   75SLPC  H14X 6776   4.300   2.862   8.511  0.6881 -0.1338  0.1803
   75SLPC  H14Y 6777   4.205   2.979   8.590 -1.3132  2.1216 -2.7995
   75SLPC  C315 6778   4.428   3.018   8.572  0.3428 -0.6306  0.2820
   75SLPC  H15X 6779   4.425   3.127   8.593 -1.3726 -0.9426  1.9344
   75SLPC  H15Y 6780   4.504   2.993   8.495 -0.9365 -2.2125 -0.4995
   75SLPC  C316 6781   4.451   2.941   8.706 -0.0320 -0.2290  0.2166
   75SLPC  H16X 6782   4.558   2.957   8.734 -0.5846  0.7833  1.9469
   75SLPC  H16Y 6783   4.452   2.834   8.678 -2.3291 -0.0248 -0.8820
   75SLPC  C317 6784   4.365   2.952   8.827 -0.5693 -0.4520  0.0360
   75SLPC  H17X 6785   4.397   2.881   8.906 -2.3118  0.2223  1.4468
   75SLPC  H17Y 6786   4.264   2.914   8.797  0.2046 -2.1601 -0.5205
   75SLPC  C318 6787   4.365   3.091   8.889  0.1551 -0.0276 -0.2057
   75SLPC  H18X 6788   4.303   3.100   8.981  1.5174  0.6254  0.6729
   75SLPC  H18Y 6789   4.325   3.163   8.815 -0.8767 -1.1001 -0.7336
   75SLPC  H18Z 6790   4.469   3.123   8.912  1.0888 -3.5501  1.2720
   76SLPC     N 6791   0.096   5.249   6.151  0.4788  0.0730  0.4572
   76SLPC   C13 6792  -0.052   5.265   6.129  0.3890  0.2123  0.6711
   76SLPC  H13A 6793  -0.072   5.270   6.023 -0.9832  2.3623  0.9609
   76SLPC  H13B 6794  -0.099   5.173   6.159 -0.5388  0.4198 -0.0708
   76SLPC  H13C 6795  -0.089   5.348   6.189  0.9848 -0.2214  1.6625
   76SLPC   C14 6796   0.172   5.360   6.091  0.4825 -0.7732 -0.3264
   76SLPC  H14A 6797   0.145   5.452   6.141  1.5031  0.2978 -1.6776
   76SLPC  H14B 6798   0.275   5.331   6.101 -0.1593 -2.4450  2.4790
   76SLPC  H14C 6799   0.153   5.373   5.986 -0.0596 -1.0687 -0.2728
   76SLPC   C15 6800   0.135   5.124   6.083  0.6129 -0.3393  0.4456
   76SLPC  H15A 6801   0.240   5.103   6.070  0.2124 -2.6692  0.6028
   76SLPC  H15B 6802   0.107   5.042   6.147  1.7497 -0.1400  1.2220
   76SLPC  H15C 6803   0.102   5.118   5.980  0.1747  1.2020  0.4611
   76SLPC   C12 6804   0.129   5.251   6.299  0.1292  0.2026 -0.3410
   76SLPC  H12A 6805   0.094   5.344   6.342  1.7117  0.5502  0.2801
   76SLPC  H12B 6806   0.236   5.249   6.312  0.0613  1.1207  0.4717
   76SLPC   C11 6807   0.077   5.135   6.392  0.1794  0.4411 -0.0899
   76SLPC  H11A 6808  -0.033   5.136   6.378  0.1672 -2.1047 -0.6428
   76SLPC  H11B 6809   0.086   5.165   6.499 -0.9227  0.8630 -0.1077
   76SLPC     P 6810   0.286   4.979   6.393  0.1298  0.1333  0.2332
   76SLPC   O13 6811   0.349   4.882   6.300  0.3305  0.5365 -0.0750
   76SLPC   O14 6812   0.363   5.103   6.411  0.2140  0.2775 -0.3282
   76SLPC   O12 6813   0.135   5.011   6.354  0.3608 -0.1908 -0.1558
   76SLPC   O11 6814   0.283   4.902   6.529 -0.5452 -0.1528 -0.5032
   76SLPC    C1 6815   0.347   4.945   6.651  0.0019 -0.1719  0.2479
   76SLPC    HA 6816   0.427   5.020   6.632 -2.0247  2.0844  0.1678
   76SLPC    HB 6817   0.268   4.995   6.711  0.4311 -1.3766  1.8825
   76SLPC    C2 6818   0.404   4.819   6.724 -0.5465 -0.4115  0.5001
   76SLPC    HS 6819   0.321   4.751   6.752 -1.6017  0.7961  0.4185
   76SLPC   O21 6820   0.476   4.868   6.840 -0.4032  0.4856 -0.1770
   76SLPC   C21 6821   0.489   4.780   6.946 -0.0330 -0.5625  0.1301
   76SLPC   O22 6822   0.421   4.683   6.952  0.4054 -0.0999  0.0918
   76SLPC   C22 6823   0.594   4.820   7.048  0.3886 -0.5704 -0.5293
   76SLPC   H2R 6824   0.686   4.816   6.987  0.2658 -1.4734 -0.6734
   76SLPC   H2S 6825   0.564   4.922   7.080  3.1876  0.0970  0.1922
   76SLPC    C3 6826   0.498   4.741   6.634 -0.3039  0.2559 -0.2084
   76SLPC    HX 6827   0.591   4.799   6.614  0.2935 -0.3850  0.6359
   76SLPC    HY 6828   0.455   4.735   6.532 -1.0465  3.2188 -0.1557
   76SLPC   O31 6829   0.514   4.603   6.676  0.4666 -0.7837 -0.1278
   76SLPC   C31 6830   0.640   4.566   6.706 -0.1461 -0.0416  0.1680
   76SLPC   O32 6831   0.733   4.640   6.727  0.3344 -0.4896 -0.2951
   76SLPC   C32 6832   0.655   4.412   6.704 -0.1034  0.4774  0.7782
   76SLPC   H2X 6833   0.764   4.393   6.719  0.2169  2.2721  0.9091
   76SLPC   H2Y 6834   0.619   4.382   6.603  0.8534 -0.6487  0.7479
   76SLPC   C23 6835   0.611   4.734   7.173 -0.4107  0.1027  0.8797
   76SLPC   H3R 6836   0.687   4.782   7.238 -1.1848 -0.5537  2.3200
   76SLPC   H3S 6837   0.663   4.641   7.142  1.7752  0.7641  2.3674
   76SLPC   C24 6838   0.493   4.706   7.271  0.1145  0.1105  0.0544
   76SLPC   H4R 6839   0.408   4.666   7.212 -0.3104  1.3983 -0.2407
   76SLPC   H4S 6840   0.461   4.803   7.315  2.7881  0.6086  1.0987
   76SLPC   C25 6841   0.531   4.618   7.393  0.1215 -0.4338  0.4710
   76SLPC   H5R 6842   0.641   4.619   7.401 -0.0037 -1.5997  3.4282
   76SLPC   H5S 6843   0.495   4.516   7.366  0.2230 -0.3851  0.1503
   76SLPC   C26 6844   0.462   4.658   7.520 -0.1689 -0.0195 -0.1290
   76SLPC   H6R 6845   0.356   4.625   7.526 -0.8165  1.5841 -1.8447
   76SLPC   H6S 6846   0.468   4.769   7.527  3.0356 -0.1523  0.4654
   76SLPC   C27 6847   0.525   4.606   7.653 -0.0404  0.2169  0.4600
   76SLPC   H7R 6848   0.636   4.618   7.649  0.0485 -0.7736 -0.5009
   76SLPC   H7S 6849   0.520   4.495   7.643  3.1200  0.0976 -1.2359
   76SLPC   C28 6850   0.451   4.660   7.773  0.2339  0.2722  0.2882
   76SLPC   H8R 6851   0.385   4.746   7.749 -0.5099  1.1507  4.6821
   76SLPC   H8S 6852   0.380   4.584   7.810  0.3982  0.5522  1.2043
   76SLPC   C29 6853   0.531   4.704   7.897  0.0500 -0.8303 -0.3095
   76SLPC   H9R 6854   0.562   4.809   7.908  1.8095 -1.2866 -0.5674
   76SLPC  C210 6855   0.560   4.622   8.004 -0.3840  0.5086  0.0396
   76SLPC  H10R 6856   0.640   4.656   8.072  1.4534 -0.2363 -1.6636
   76SLPC  C211 6857   0.508   4.485   8.031  0.2350 -0.1272 -0.0764
   76SLPC  H11R 6858   0.593   4.432   8.078 -0.5423 -1.4086 -0.0513
   76SLPC  H11S 6859   0.494   4.431   7.934 -0.3560  1.1615 -0.7331
   76SLPC  C212 6860   0.383   4.486   8.115  0.2782 -0.0885 -0.2478
   76SLPC  H12R 6861   0.296   4.537   8.070  0.5292  0.5264 -0.0502
   76SLPC  C213 6862   0.370   4.428   8.237  0.2309  0.3945  0.2076
   76SLPC  H13R 6863   0.275   4.434   8.291  0.8639  0.0399  1.3857
   76SLPC  C214 6864   0.481   4.352   8.316  0.4144  0.1954 -0.0729
   76SLPC  H14R 6865   0.565   4.425   8.318  0.7117 -0.0886 -1.3131
   76SLPC  H14S 6866   0.511   4.268   8.249 -1.0972  0.5516 -1.2481
   76SLPC  C215 6867   0.447   4.312   8.460 -0.1434 -0.3042 -0.1417
   76SLPC  H15R 6868   0.419   4.401   8.521  2.1061 -0.2475  0.9270
   76SLPC  H15S 6869   0.538   4.282   8.518  0.6982  3.0652  0.4923
   76SLPC  C216 6870   0.348   4.200   8.467  0.6707 -0.6427  0.4328
   76SLPC  H16R 6871   0.403   4.107   8.437  0.0395 -0.8042 -0.2446
   76SLPC  H16S 6872   0.270   4.218   8.390 -1.9803 -1.2564  2.8046
   76SLPC  C217 6873   0.278   4.175   8.596 -0.5735  0.2184 -0.6812
   76SLPC  H17R 6874   0.192   4.243   8.613 -0.9004 -0.4264  0.3689
   76SLPC  H17S 6875   0.349   4.189   8.681 -0.7569  0.3809 -0.5529
   76SLPC  C218 6876   0.234   4.027   8.614 -0.3163  0.1469  0.0990
   76SLPC  H18R 6877   0.169   4.009   8.525 -0.4992 -0.6456  0.3800
   76SLPC  H18S 6878   0.173   4.018   8.707  1.0233  1.9050  1.2234
   76SLPC  H18T 6879   0.317   3.953   8.614  1.3219  1.8330 -2.4259
   76SLPC   C33 6880   0.570   4.347   6.810 -0.2230  0.4386 -0.0963
   76SLPC   H3X 6881   0.551   4.240   6.787 -0.5144  0.3587  0.4964
   76SLPC   H3Y 6882   0.467   4.387   6.813 -0.0006  1.1354 -1.1469
   76SLPC   C34 6883   0.650   4.352   6.944 -0.7807 -0.6105 -0.0378
   76SLPC   H4X 6884   0.672   4.454   6.982  0.2068 -0.5125 -0.8184
   76SLPC   H4Y 6885   0.750   4.303   6.936 -1.1743 -1.2989 -0.9124
   76SLPC   C35 6886   0.561   4.284   7.058  0.1109 -0.7296  0.7906
   76SLPC   H5X 6887   0.544   4.182   7.018  2.7535 -0.9941  0.1472
   76SLPC   H5Y 6888   0.469   4.345   7.069  0.2342 -0.6169  1.2484
   76SLPC   C36 6889   0.647   4.291   7.186  0.2917 -0.9121 -0.2724
   76SLPC   H6X 6890   0.663   4.397   7.215 -0.6296 -0.8306 -0.0592
   76SLPC   H6Y 6891   0.744   4.239   7.174  1.0086 -0.6244  3.0639
   76SLPC   C37 6892   0.583   4.234   7.314  0.2683 -0.1382  0.1899
   76SLPC   H7X 6893   0.568   4.125   7.300  0.0847 -0.1727  0.6483
   76SLPC   H7Y 6894   0.484   4.281   7.329  1.3763  2.8960 -1.0817
   76SLPC   C38 6895   0.666   4.248   7.438 -0.1592  0.4495 -0.0373
   76SLPC   H8X 6896   0.690   4.352   7.466 -1.8121  0.7445  0.4099
   76SLPC   H8Y 6897   0.757   4.193   7.408 -1.5212 -1.0254 -1.6962
   76SLPC   C39 6898   0.588   4.186   7.557  0.0009 -0.6973  0.3209
   76SLPC   H9X 6899   0.555   4.083   7.534 -0.9618 -0.2968 -0.1327
   76SLPC   H9Y 6900   0.492   4.241   7.569  0.1035 -0.3955 -0.2173
   76SLPC  C310 6901   0.666   4.200   7.691 -0.5135  0.0906 -0.3245
   76SLPC  H10X 6902   0.694   4.305   7.716 -0.7902  0.2683 -0.7358
   76SLPC  H10Y 6903   0.753   4.138   7.662  0.1990  1.2160 -0.6704
   76SLPC  C311 6904   0.590   4.138   7.807 -0.0993  0.0930 -0.4496
   76SLPC  H11X 6905   0.567   4.031   7.785  0.4463 -0.1441  0.0921
   76SLPC  H11Y 6906   0.496   4.194   7.821  0.5356  1.3442 -1.0059
   76SLPC  C312 6907   0.669   4.128   7.936 -0.7863 -0.1182  0.1226
   76SLPC  H12X 6908   0.689   4.226   7.983 -1.2594  0.3501 -0.6197
   76SLPC  H12Y 6909   0.768   4.081   7.921 -1.0849 -0.5700 -0.5044
   76SLPC  C313 6910   0.602   4.043   8.041  0.0510  0.4382  0.4933
   76SLPC  H13X 6911   0.594   3.939   8.003 -1.9287  0.6121  0.3339
   76SLPC  H13Y 6912   0.497   4.077   8.054  0.3088  1.3075  0.3406
   76SLPC  C314 6913   0.676   4.051   8.170 -0.4933 -0.3000  0.3379
   76SLPC  H14X 6914   0.680   4.157   8.204 -2.6455  0.0389 -0.2847
   76SLPC  H14Y 6915   0.780   4.013   8.168 -0.3343  0.1415 -0.4186
   76SLPC  C315 6916   0.601   3.977   8.277 -0.1080 -0.4545  0.3585
   76SLPC  H15X 6917   0.593   3.872   8.242 -0.9795  0.4445 -2.3481
   76SLPC  H15Y 6918   0.499   4.020   8.283  0.0477 -0.1905  1.3224
   76SLPC  C316 6919   0.646   3.982   8.422  0.3286 -0.3474  0.8469
   76SLPC  H16X 6920   0.576   3.950   8.503 -1.0075 -0.5708 -0.3614
   76SLPC  H16Y 6921   0.659   4.092   8.433 -2.5433  0.1817 -0.0668
   76SLPC  C317 6922   0.783   3.929   8.446 -0.5018 -0.4025  0.7902
   76SLPC  H17X 6923   0.860   3.997   8.402  0.3099 -1.0273  1.2185
   76SLPC  H17Y 6924   0.778   3.830   8.396  0.4284  0.5385 -1.3051
   76SLPC  C318 6925   0.827   3.913   8.586 -0.0894  0.2020 -0.0602
   76SLPC  H18X 6926   0.918   3.850   8.593 -1.6481 -2.2293 -0.6163
   76SLPC  H18Y 6927   0.743   3.871   8.645 -0.6398 -0.3764 -1.2293
   76SLPC  H18Z 6928   0.849   4.010   8.636  1.1745 -0.6087  1.0234
   77SLPC     N 6929   2.771   3.947   6.305 -0.4990  0.8223 -0.2004
   77SLPC   C13 6930   2.760   3.805   6.259  0.6728 -0.1868 -0.1623
   77SLPC  H13A 6931   2.841   3.791   6.189  2.3725 -0.7393  1.8129
   77SLPC  H13B 6932   2.762   3.725   6.331  0.7423  1.4245  1.7028
   77SLPC  H13C 6933   2.670   3.797   6.199  0.3720 -2.1850  0.4851
   77SLPC   C14 6934   2.663   3.977   6.402  0.4871  0.1263  0.2890
   77SLPC  H14A 6935   2.568   3.951   6.357 -0.3436  2.1730  0.7621
   77SLPC  H14B 6936   2.680   3.914   6.488  1.4479 -2.9763 -1.9758
   77SLPC  H14C 6937   2.662   4.081   6.431 -0.0011  0.7964 -1.9203
   77SLPC   C15 6938   2.763   4.037   6.185  0.5340  0.6127  0.4163
   77SLPC  H15A 6939   2.836   4.022   6.107 -0.5498  1.0885 -0.7172
   77SLPC  H15B 6940   2.669   4.031   6.132 -0.0774  1.0531  1.4189
   77SLPC  H15C 6941   2.771   4.138   6.221 -0.4641  1.3023 -1.2047
   77SLPC   C12 6942   2.901   3.969   6.377  0.5559  0.4202 -0.5449
   77SLPC  H12A 6943   2.912   4.070   6.413  1.6109 -0.5048  1.8931
   77SLPC  H12B 6944   2.973   3.958   6.298  0.6530  1.8136 -0.6766
   77SLPC   C11 6945   2.934   3.880   6.503 -0.0469  0.1441  0.2861
   77SLPC  H11A 6946   3.045   3.886   6.511 -0.0830  2.6126 -0.3673
   77SLPC  H11B 6947   2.906   3.776   6.474  1.7664 -0.3194  0.0546
   77SLPC     P 6948   2.907   4.045   6.695 -0.4109 -0.1010  0.1660
   77SLPC   O13 6949   2.971   3.991   6.813 -0.8600 -0.1043  0.4835
   77SLPC   O14 6950   2.975   4.142   6.604 -0.4568  0.2397  0.1544
   77SLPC   O12 6951   2.859   3.924   6.613  0.5801 -0.0825  0.1008
   77SLPC   O11 6952   2.776   4.114   6.733  0.2121  0.1075  0.3371
   77SLPC    C1 6953   2.653   4.050   6.768  0.1862 -0.3795  0.1666
   77SLPC    HA 6954   2.573   4.091   6.703  0.1255  0.5818  0.8251
   77SLPC    HB 6955   2.664   3.942   6.743 -0.1855 -0.0310 -1.6855
   77SLPC    C2 6956   2.621   4.075   6.919  0.1759  0.0783 -0.2261
   77SLPC    HS 6957   2.596   4.182   6.935 -0.0584  0.0231 -0.2261
   77SLPC   O21 6958   2.729   4.032   6.999  0.0547 -0.1832 -0.6398
   77SLPC   C21 6959   2.809   4.123   7.058 -0.1461  0.5725  0.3362
   77SLPC   O22 6960   2.807   4.240   7.045  0.8471 -0.4044  0.3598
   77SLPC   C22 6961   2.903   4.044   7.153  0.2460 -0.4375  0.2870
   77SLPC   H2R 6962   2.846   3.965   7.207 -0.5121  0.7955  1.3585
   77SLPC   H2S 6963   2.961   3.979   7.084 -1.6371 -1.9326  0.0271
   77SLPC    C3 6964   2.494   3.999   6.968  0.0704 -0.2451 -0.7283
   77SLPC    HX 6965   2.536   3.898   6.988 -0.1181 -0.0456  0.7413
   77SLPC    HY 6966   2.431   3.988   6.877 -1.4707  2.5040 -0.0921
   77SLPC   O31 6967   2.433   4.061   7.084  0.4580  0.7216  0.5923
   77SLPC   C31 6968   2.367   4.170   7.062  0.1227 -0.4373 -0.1776
   77SLPC   O32 6969   2.358   4.220   6.953 -0.4047 -0.1324 -0.2121
   77SLPC   C32 6970   2.298   4.213   7.190  0.0237  0.0628  0.2920
   77SLPC   H2X 6971   2.253   4.129   7.247 -1.7581  0.6024 -0.2447
   77SLPC   H2Y 6972   2.213   4.280   7.166  1.6308  1.8809 -0.6512
   77SLPC   C23 6973   2.982   4.136   7.249 -0.3411 -0.2692 -0.0338
   77SLPC   H3R 6974   2.918   4.217   7.288 -1.3492 -0.4312 -1.2945
   77SLPC   H3S 6975   3.066   4.182   7.193  0.3713  1.1433  2.0720
   77SLPC   C24 6976   3.043   4.062   7.362  0.1603  0.1605  0.3915
   77SLPC   H4R 6977   3.152   4.045   7.350  0.2741  1.2016 -0.1798
   77SLPC   H4S 6978   3.000   3.960   7.353 -1.3882  0.8866 -0.9634
   77SLPC   C25 6979   3.014   4.117   7.499  0.4157 -0.0428 -0.5973
   77SLPC   H5R 6980   2.905   4.102   7.518  0.0216  1.8935 -1.0798
   77SLPC   H5S 6981   3.054   4.218   7.520 -1.9806  1.3998 -2.4741
   77SLPC   C26 6982   3.068   4.031   7.617 -0.2674  0.3620 -0.2431
   77SLPC   H6R 6983   3.175   4.011   7.595 -0.6019 -0.9571 -0.7468
   77SLPC   H6S 6984   3.011   3.936   7.623  0.2663 -0.0005 -0.7926
   77SLPC   C27 6985   3.054   4.107   7.749  0.5759 -0.3251 -0.4000
   77SLPC   H7R 6986   2.956   4.160   7.750  2.3630  3.4895  2.9187
   77SLPC   H7S 6987   3.130   4.188   7.756  0.4048  0.0796 -2.5429
   77SLPC   C28 6988   3.073   4.032   7.886 -0.3356  0.1112  0.2175
   77SLPC   H8R 6989   3.180   4.009   7.903 -0.4017 -0.6336 -0.3487
   77SLPC   H8S 6990   3.016   3.938   7.898  1.4822 -0.8520  1.9579
   77SLPC   C29 6991   3.029   4.133   7.994 -0.1101  0.6796 -0.5923
   77SLPC   H9R 6992   2.951   4.205   7.963  0.5509  0.9756 -1.6187
   77SLPC  C210 6993   3.080   4.138   8.119 -0.1412 -0.3855 -0.1970
   77SLPC  H10R 6994   3.030   4.216   8.178  0.5078 -0.7252  0.8211
   77SLPC  C211 6995   3.186   4.060   8.195 -0.2372 -0.1167 -0.1551
   77SLPC  H11R 6996   3.289   4.096   8.174  0.0561 -1.0422 -0.3722
   77SLPC  H11S 6997   3.174   3.957   8.154  0.2772 -0.4865  0.6016
   77SLPC  C212 6998   3.156   4.030   8.345  0.1611 -0.0774 -0.4326
   77SLPC  H12R 6999   3.229   4.075   8.414 -0.6021 -1.7729  1.5898
   77SLPC  C213 7000   3.065   3.940   8.400  0.5161 -0.3605 -0.1193
   77SLPC  H13R 7001   3.068   3.922   8.509 -1.4888 -1.7046 -0.2272
   77SLPC  C214 7002   2.972   3.845   8.324 -0.7036  0.2149  0.0566
   77SLPC  H14R 7003   2.990   3.738   8.348 -0.5508  0.0778 -0.6540
   77SLPC  H14S 7004   2.988   3.857   8.215 -2.1948  1.1306 -0.0942
   77SLPC  C215 7005   2.823   3.860   8.335  0.3110  0.1009 -0.0523
   77SLPC  H15R 7006   2.780   3.777   8.275 -3.7060  1.0689  1.1333
   77SLPC  H15S 7007   2.795   3.956   8.286 -0.6091  0.3617  0.9356
   77SLPC  C216 7008   2.774   3.870   8.478 -0.1301 -0.5309  0.0341
   77SLPC  H16R 7009   2.820   3.960   8.525  1.5035 -0.2129 -2.0087
   77SLPC  H16S 7010   2.807   3.778   8.530  2.4819  0.5477  0.4459
   77SLPC  C217 7011   2.622   3.894   8.486  0.1115  0.4256 -0.4234
   77SLPC  H17R 7012   2.584   3.876   8.589 -0.9291  1.1673 -0.6621
   77SLPC  H17S 7013   2.563   3.820   8.429  1.5963  0.3438 -1.9391
   77SLPC  C218 7014   2.582   4.033   8.447 -0.1871 -0.0180 -0.2409
   77SLPC  H18R 7015   2.627   4.057   8.349 -0.2791 -1.0175 -0.5452
   77SLPC  H18S 7016   2.589   4.100   8.536  1.6068  0.4785 -0.7212
   77SLPC  H18T 7017   2.473   4.024   8.426 -0.5858  1.2247  1.0650
   77SLPC   C33 7018   2.397   4.288   7.279 -0.2206 -0.7989 -0.0861
   77SLPC   H3X 7019   2.350   4.359   7.351 -1.0122 -2.5994  1.2491
   77SLPC   H3Y 7020   2.462   4.347   7.211 -1.2265  2.2725  1.4372
   77SLPC   C34 7021   2.498   4.201   7.356 -0.1610 -0.3730 -0.7667
   77SLPC   H4X 7022   2.554   4.138   7.284 -0.5874 -1.2974 -0.3017
   77SLPC   H4Y 7023   2.450   4.128   7.424  0.1472  1.3423  1.4097
   77SLPC   C35 7024   2.600   4.279   7.436 -0.3734  0.5669 -0.2348
   77SLPC   H5X 7025   2.648   4.357   7.373 -0.2777 -0.0503 -0.9514
   77SLPC   H5Y 7026   2.689   4.213   7.440  0.5374  1.4431 -3.3161
   77SLPC   C36 7027   2.555   4.327   7.569 -0.1214 -0.8487  0.3435
   77SLPC   H6X 7028   2.488   4.255   7.620  0.4745 -0.5729  1.5378
   77SLPC   H6Y 7029   2.491   4.415   7.549  0.8427 -0.2091 -0.0122
   77SLPC   C37 7030   2.663   4.381   7.660 -0.2697 -0.3365 -0.6729
   77SLPC   H7X 7031   2.723   4.466   7.620  1.5590 -1.3763 -0.2682
   77SLPC   H7Y 7032   2.742   4.303   7.672  1.2336  1.2079 -0.0394
   77SLPC   C38 7033   2.605   4.418   7.791 -0.1772 -0.5809  0.6505
   77SLPC   H8X 7034   2.555   4.327   7.832  0.1783 -1.4963 -0.8813
   77SLPC   H8Y 7035   2.524   4.492   7.779 -0.7634 -0.8900  2.4538
   77SLPC   C39 7036   2.700   4.473   7.903 -0.7894  0.3990  0.0463
   77SLPC   H9X 7037   2.747   4.567   7.866  0.1440 -0.0534  0.0750
   77SLPC   H9Y 7038   2.778   4.397   7.920 -0.4408  0.6639 -0.3524
   77SLPC  C310 7039   2.622   4.510   8.029  0.2196 -0.6955 -0.2779
   77SLPC  H10X 7040   2.537   4.445   8.058 -1.5149  1.6442  0.1909
   77SLPC  H10Y 7041   2.570   4.603   8.000  1.0378 -0.4941 -1.1683
   77SLPC  C311 7042   2.713   4.542   8.149  0.1032  0.1478 -1.0086
   77SLPC  H11X 7043   2.648   4.577   8.232  0.0183 -0.5269 -0.7857
   77SLPC  H11Y 7044   2.801   4.607   8.129  1.0612 -1.1493 -1.1056
   77SLPC  C312 7045   2.773   4.421   8.221  0.6874 -0.7467  0.4501
   77SLPC  H12X 7046   2.837   4.368   8.147 -1.0354 -1.4959 -0.5794
   77SLPC  H12Y 7047   2.689   4.352   8.245  0.8295 -1.6443 -1.4177
   77SLPC  C313 7048   2.869   4.454   8.337  0.7412 -0.2443  0.2103
   77SLPC  H13X 7049   2.820   4.525   8.406 -2.6545 -1.0715 -1.1721
   77SLPC  H13Y 7050   2.966   4.498   8.305 -0.1209  1.3463 -0.3195
   77SLPC  C314 7051   2.909   4.326   8.409  0.0471  0.3677  0.4994
   77SLPC  H14X 7052   2.981   4.272   8.344 -2.0941 -2.1206 -0.0037
   77SLPC  H14Y 7053   2.821   4.259   8.418 -0.1204  0.0880 -2.2438
   77SLPC  C315 7054   2.969   4.343   8.550  0.0104 -0.2952 -0.3071
   77SLPC  H15X 7055   2.913   4.427   8.596 -2.5255 -0.6723 -2.5379
   77SLPC  H15Y 7056   3.074   4.381   8.543 -0.3438  0.6115 -0.8555
   77SLPC  C316 7057   2.962   4.230   8.651 -0.3787  0.1248 -0.8603
   77SLPC  H16X 7058   2.993   4.140   8.594 -0.7851 -0.6157  0.0761
   77SLPC  H16Y 7059   2.859   4.211   8.688 -0.1322  0.3838 -0.0198
   77SLPC  C317 7060   3.073   4.247   8.757 -0.7706 -0.0912  0.1745
   77SLPC  H17X 7061   3.053   4.335   8.822  1.4335 -1.4316  2.8688
   77SLPC  H17Y 7062   3.170   4.272   8.711  1.3388 -1.2228  3.6550
   77SLPC  C318 7063   3.086   4.134   8.853 -0.0025 -0.2577  0.1440
   77SLPC  H18X 7064   2.997   4.117   8.918 -0.2265  0.4378  0.0236
   77SLPC  H18Y 7065   3.175   4.148   8.918  0.5746  1.9269 -1.0257
   77SLPC  H18Z 7066   3.087   4.045   8.787 -1.1798 -1.8063  2.0833
   78SLPC     N 7067   3.392   3.284   6.474 -0.2511  0.7318 -0.2476
   78SLPC   C13 7068   3.514   3.371   6.458  0.5269  0.2145  0.3251
   78SLPC  H13A 7069   3.514   3.464   6.513  3.2305 -0.9906  2.5778
   78SLPC  H13B 7070   3.603   3.323   6.495 -0.5868  0.2212  3.2853
   78SLPC  H13C 7071   3.525   3.393   6.353  1.7494  1.0994  0.6259
   78SLPC   C14 7072   3.400   3.227   6.615  0.5503  0.0772  0.2962
   78SLPC  H14A 7073   3.369   3.298   6.691 -2.2278  0.1201 -0.7371
   78SLPC  H14B 7074   3.323   3.152   6.622 -1.0947  1.4338 -1.8762
   78SLPC  H14C 7075   3.502   3.207   6.642  0.9111  0.3124 -0.8392
   78SLPC   C15 7076   3.391   3.176   6.375 -0.2267  0.5522  0.5088
   78SLPC  H15A 7077   3.457   3.090   6.385 -1.3799 -0.5935 -1.1847
   78SLPC  H15B 7078   3.294   3.130   6.369 -1.1925  2.4608  0.8600
   78SLPC  H15C 7079   3.398   3.215   6.275 -3.8570  0.8952  0.2818
   78SLPC   C12 7080   3.262   3.364   6.444 -1.2042 -0.3087 -1.0333
   78SLPC  H12A 7081   3.270   3.400   6.342 -0.1798  0.2087 -0.7829
   78SLPC  H12B 7082   3.271   3.457   6.498  0.2003 -1.2113  0.3645
   78SLPC   C11 7083   3.125   3.295   6.480 -0.9970  0.2636  0.5408
   78SLPC  H11A 7084   3.043   3.368   6.464 -0.8122  0.7129  1.5437
   78SLPC  H11B 7085   3.126   3.285   6.590 -0.5070  2.5576  0.7998
   78SLPC     P 7086   2.965   3.146   6.310 -0.3633  0.0161  0.2318
   78SLPC   O13 7087   2.913   3.266   6.257  0.0311  0.3790 -0.4146
   78SLPC   O14 7088   2.985   3.034   6.214 -0.1263  0.0981 -0.0094
   78SLPC   O12 7089   3.094   3.173   6.402  0.1857 -0.5203 -0.0078
   78SLPC   O11 7090   2.868   3.080   6.411  0.2969 -0.1121 -0.1260
   78SLPC    C1 7091   2.803   3.148   6.513 -0.5718 -0.2979  0.0450
   78SLPC    HA 7092   2.815   3.258   6.504  0.0724 -0.5192 -2.4990
   78SLPC    HB 7093   2.695   3.121   6.511 -0.5673 -0.6616  2.0301
   78SLPC    C2 7094   2.842   3.103   6.657  0.3445 -0.1556 -0.4102
   78SLPC    HS 7095   2.952   3.118   6.669  1.0000  0.2964 -5.0446
   78SLPC   O21 7096   2.806   2.966   6.678 -0.1853  0.7867 -0.3959
   78SLPC   C21 7097   2.883   2.893   6.753 -0.3978  0.4216  0.0902
   78SLPC   O22 7098   2.993   2.920   6.799  0.3707 -0.4394 -0.3994
   78SLPC   C22 7099   2.831   2.742   6.752  0.3998  0.4911 -0.4064
   78SLPC   H2R 7100   2.730   2.741   6.706  0.3458  0.9921 -0.3052
   78SLPC   H2S 7101   2.897   2.685   6.684 -0.0609 -0.7787  0.1696
   78SLPC    C3 7102   2.777   3.198   6.766 -0.2636  0.0735  0.1488
   78SLPC    HX 7103   2.666   3.197   6.754 -0.4075  1.2321  1.2226
   78SLPC    HY 7104   2.802   3.300   6.730  1.0624  0.3331  1.7301
   78SLPC   O31 7105   2.811   3.162   6.897 -0.3671 -0.3415  0.2389
   78SLPC   C31 7106   2.933   3.187   6.946  0.3256  0.0456  0.3052
   78SLPC   O32 7107   3.013   3.267   6.901  0.6890 -0.0673  0.6439
   78SLPC   C32 7108   2.961   3.091   7.059 -0.0208  0.5917  0.7633
   78SLPC   H2X 7109   2.960   2.989   7.016  1.6394  1.1793 -0.8029
   78SLPC   H2Y 7110   2.878   3.107   7.131 -1.5014 -1.5708 -0.3367
   78SLPC   C23 7111   2.835   2.666   6.885  0.0038 -0.9576 -0.4315
   78SLPC   H3R 7112   2.936   2.670   6.932  0.2486  1.4852 -1.0657
   78SLPC   H3S 7113   2.821   2.556   6.872  0.6433 -0.8246 -2.7601
   78SLPC   C24 7114   2.735   2.735   6.978 -0.7974  0.3909  0.0211
   78SLPC   H4R 7115   2.636   2.747   6.929 -1.3012 -1.1745  0.6071
   78SLPC   H4S 7116   2.780   2.831   7.011  2.0171 -0.2170 -1.6821
   78SLPC   C25 7117   2.698   2.655   7.102  0.1279 -0.4810 -0.5976
   78SLPC   H5R 7118   2.664   2.554   7.070 -1.3997  0.2780 -1.4589
   78SLPC   H5S 7119   2.612   2.705   7.150 -1.4673 -4.0258  0.5829
   78SLPC   C26 7120   2.809   2.639   7.205 -0.0328 -0.0877 -0.3086
   78SLPC   H6R 7121   2.860   2.737   7.219  3.0051 -1.5383 -0.3499
   78SLPC   H6S 7122   2.883   2.576   7.152 -0.6232  1.8430 -3.6819
   78SLPC   C27 7123   2.769   2.589   7.336  0.3934  0.6227 -0.1351
   78SLPC   H7R 7124   2.709   2.499   7.310  2.0988 -1.0835  1.5025
   78SLPC   H7S 7125   2.690   2.654   7.380 -2.1423 -2.5718  0.4121
   78SLPC   C28 7126   2.875   2.547   7.427  0.4758  0.4816 -0.5025
   78SLPC   H8R 7127   2.935   2.463   7.386 -0.5276  0.3020 -1.6342
   78SLPC   H8S 7128   2.816   2.509   7.513  0.4067  2.3938  0.3561
   78SLPC   C29 7129   2.976   2.652   7.458 -0.5281 -0.4807  0.1797
   78SLPC   H9R 7130   3.033   2.696   7.375  0.2710  1.5554  1.6997
   78SLPC  C210 7131   3.000   2.701   7.583 -0.1693  0.2787 -0.4536
   78SLPC  H10R 7132   3.076   2.778   7.600 -1.8251  1.7792  0.6554
   78SLPC  C211 7133   2.940   2.673   7.717  0.2055  0.0972  0.4147
   78SLPC  H11R 7134   2.829   2.667   7.718  0.1488 -0.1040  3.7026
   78SLPC  H11S 7135   2.948   2.764   7.780 -0.2302 -0.1546  0.8424
   78SLPC  C212 7136   3.001   2.550   7.783 -0.0851  0.1331  0.2296
   78SLPC  H12R 7137   3.050   2.476   7.718 -1.1337  1.0654 -1.6930
   78SLPC  C213 7138   2.985   2.525   7.914 -0.4943 -0.1777 -0.2355
   78SLPC  H13R 7139   3.036   2.437   7.955  1.1211  0.3179 -1.0687
   78SLPC  C214 7140   2.915   2.612   8.021 -0.5150  0.3656  0.3247
   78SLPC  H14R 7141   2.845   2.544   8.075  1.7035 -0.6991  2.0374
   78SLPC  H14S 7142   2.854   2.687   7.966 -2.0578 -1.6425 -0.8670
   78SLPC  C215 7143   3.011   2.689   8.121  0.6241  0.6483 -0.7702
   78SLPC  H15R 7144   2.963   2.759   8.192  0.3810 -0.6975  0.4287
   78SLPC  H15S 7145   3.086   2.753   8.068 -0.1855  0.9122 -1.6189
   78SLPC  C216 7146   3.094   2.586   8.203  0.6692 -0.3587 -0.1794
   78SLPC  H16R 7147   3.166   2.643   8.266  0.2093  1.0928 -0.9189
   78SLPC  H16S 7148   3.150   2.521   8.133 -0.1007 -0.9405 -0.2742
   78SLPC  C217 7149   3.004   2.490   8.287  0.0899 -0.1078 -0.2472
   78SLPC  H17R 7150   2.983   2.399   8.228  0.6775 -0.2417 -0.2525
   78SLPC  H17S 7151   2.906   2.540   8.302 -0.4419 -1.1121 -0.3382
   78SLPC  C218 7152   3.060   2.439   8.424  0.2796 -0.1151  0.5625
   78SLPC  H18R 7153   3.166   2.409   8.406  0.0792  0.9339 -3.2625
   78SLPC  H18S 7154   3.007   2.344   8.447 -2.6008  0.8119 -1.7073
   78SLPC  H18T 7155   3.055   2.514   8.506 -0.5468 -0.1763  0.5770
   78SLPC   C33 7156   3.091   3.116   7.133  0.3567  0.5681  0.0497
   78SLPC   H3X 7157   3.095   3.218   7.177 -0.0625  0.2478  0.8490
   78SLPC   H3Y 7158   3.173   3.101   7.060 -0.4436 -0.5134 -0.6507
   78SLPC   C34 7159   3.127   3.020   7.246  0.7978 -0.2100 -0.4867
   78SLPC   H4X 7160   3.222   3.051   7.293 -0.6310  1.5968  1.3704
   78SLPC   H4Y 7161   3.138   2.915   7.211  0.3833 -0.3846 -0.1000
   78SLPC   C35 7162   3.021   3.009   7.357  0.5786  0.0671  0.4124
   78SLPC   H5X 7163   3.063   2.933   7.427 -0.1637 -0.0169  0.7852
   78SLPC   H5Y 7164   2.924   2.972   7.317 -0.5826  0.7809  2.4205
   78SLPC   C36 7165   2.986   3.141   7.422  0.3805 -0.6560 -0.1479
   78SLPC   H6X 7166   2.942   3.211   7.347  1.5781 -1.0380 -1.2378
   78SLPC   H6Y 7167   3.084   3.182   7.457  0.0276 -0.8540  1.1050
   78SLPC   C37 7168   2.899   3.122   7.546 -0.1032  0.9205  0.5352
   78SLPC   H7X 7169   2.830   3.037   7.529  0.9895  0.3708 -1.6359
   78SLPC   H7Y 7170   2.850   3.221   7.555  1.7282  1.7261  2.3714
   78SLPC   C38 7171   2.966   3.091   7.676  0.5416  0.2961 -0.1283
   78SLPC   H8X 7172   3.044   3.166   7.700  0.7990 -0.3693  1.2055
   78SLPC   H8Y 7173   3.017   2.993   7.681  1.6298  0.8875  0.6415
   78SLPC   C39 7174   2.871   3.091   7.805  0.5655  0.7974  0.6492
   78SLPC   H9X 7175   2.787   3.026   7.771  0.3354  0.4558  1.8362
   78SLPC   H9Y 7176   2.833   3.193   7.828 -0.7228  0.1804  1.4112
   78SLPC  C310 7177   2.918   3.031   7.936 -0.5054 -0.3233  0.8249
   78SLPC  H10X 7178   2.960   2.930   7.916 -2.9651 -1.1976 -0.3576
   78SLPC  H10Y 7179   2.830   3.012   8.001 -0.2090 -1.3482  0.9506
   78SLPC  C311 7180   3.013   3.130   8.008 -0.3351 -0.3365 -0.4827
   78SLPC  H11X 7181   2.953   3.224   8.012 -0.4659 -0.3252 -2.0114
   78SLPC  H11Y 7182   3.094   3.158   7.938 -1.4059  1.6740 -0.9908
   78SLPC  C312 7183   3.059   3.090   8.147 -0.5194  0.4261 -0.4486
   78SLPC  H12X 7184   3.137   3.155   8.192 -1.4549  1.2935 -0.0116
   78SLPC  H12Y 7185   3.112   2.994   8.136 -0.6106  0.1726  1.1030
   78SLPC  C313 7186   2.953   3.059   8.246  0.7994 -0.0060 -0.0635
   78SLPC  H13X 7187   2.883   2.980   8.213  2.6263 -1.7103 -0.0394
   78SLPC  H13Y 7188   2.885   3.146   8.239 -0.6141 -1.1715 -1.4096
   78SLPC  C314 7189   3.012   3.034   8.380 -0.3763 -0.0639 -0.5623
   78SLPC  H14X 7190   3.114   3.071   8.402  0.6467 -1.2300 -2.9938
   78SLPC  H14Y 7191   3.010   2.923   8.378 -1.2495 -0.0825  0.6592
   78SLPC  C315 7192   2.922   3.075   8.497 -0.4601  0.2025  0.2450
   78SLPC  H15X 7193   2.939   3.183   8.517  0.0149  0.3957 -1.1059
   78SLPC  H15Y 7194   2.965   3.019   8.583 -0.8673  0.2023  0.4503
   78SLPC  C316 7195   2.776   3.041   8.478  0.7095 -0.0610 -0.1331
   78SLPC  H16X 7196   2.764   2.931   8.468  1.2739 -0.2151  0.7791
   78SLPC  H16Y 7197   2.736   3.088   8.386  1.1390  0.2424 -0.1735
   78SLPC  C317 7198   2.696   3.067   8.611  0.0715 -0.3641 -0.1497
   78SLPC  H17X 7199   2.694   3.176   8.634  0.2679 -0.7126  1.6601
   78SLPC  H17Y 7200   2.748   3.028   8.701 -1.1139  4.5929  3.0956
   78SLPC  C318 7201   2.547   3.011   8.616  0.4017 -0.0543 -0.4439
   78SLPC  H18X 7202   2.508   3.037   8.717 -1.0066  2.7884 -1.5926
   78SLPC  H18Y 7203   2.542   2.901   8.608 -1.2037  0.0721 -1.5890
   78SLPC  H18Z 7204   2.478   3.060   8.544 -1.1743 -0.2206  0.8954
   79SLPC     N 7205   2.517   5.939   6.369  0.3542  0.5490 -0.5317
   79SLPC   C13 7206   2.468   5.833   6.461  0.6884 -0.4509 -0.1464
   79SLPC  H13A 7207   2.389   5.881   6.515  1.7039  3.1831 -1.5358
   79SLPC  H13B 7208   2.435   5.742   6.412  2.4663 -0.9303 -0.5406
   79SLPC  H13C 7209   2.553   5.804   6.521  2.6577 -0.5665 -2.7498
   79SLPC   C14 7210   2.417   5.982   6.267 -0.6130 -0.1626 -0.5155
   79SLPC  H14A 7211   2.452   6.070   6.215 -2.7021 -0.3959 -2.4927
   79SLPC  H14B 7212   2.409   5.903   6.194  1.4145 -1.6597  0.7854
   79SLPC  H14C 7213   2.323   5.993   6.320  0.3415 -2.5136  1.8718
   79SLPC   C15 7214   2.629   5.876   6.289 -0.1540  0.1845  1.4245
   79SLPC  H15A 7215   2.595   5.783   6.245  1.1207  1.0758 -1.7485
   79SLPC  H15B 7216   2.669   5.931   6.205  2.6048 -0.6812  2.0613
   79SLPC  H15C 7217   2.716   5.856   6.350 -0.3092 -1.9827  1.0165
   79SLPC   C12 7218   2.571   6.055   6.447  0.1870  0.2869 -0.3491
   79SLPC  H12A 7219   2.587   6.131   6.372 -0.5138  0.7272 -0.0561
   79SLPC  H12B 7220   2.669   6.032   6.487 -0.2892  0.6036  1.0565
   79SLPC   C11 7221   2.496   6.118   6.566 -0.2041 -0.4813 -0.4108
   79SLPC  H11A 7222   2.565   6.199   6.599  0.4855 -1.2052 -0.0504
   79SLPC  H11B 7223   2.495   6.036   6.641 -1.7244 -0.6746 -0.6129
   79SLPC     P 7224   2.242   6.115   6.596  0.0326 -0.2088  0.2363
   79SLPC   O13 7225   2.159   6.033   6.504  0.3292 -0.1367 -1.0550
   79SLPC   O14 7226   2.275   6.058   6.733 -0.6859 -0.4158  0.0155
   79SLPC   O12 7227   2.371   6.171   6.531 -0.4033  0.3199  0.2941
   79SLPC   O11 7228   2.156   6.253   6.611 -0.5731 -0.1156  0.0900
   79SLPC    C1 7229   2.217   6.370   6.677  0.2444  0.2722  0.3047
   79SLPC    HA 7230   2.320   6.354   6.718  0.4575 -0.0493 -0.3392
   79SLPC    HB 7231   2.231   6.454   6.605  0.2868 -0.3991 -0.4860
   79SLPC    C2 7232   2.124   6.417   6.795 -0.0791 -0.4652  0.1271
   79SLPC    HS 7233   2.162   6.514   6.836 -1.1651 -0.6401  1.6325
   79SLPC   O21 7234   2.105   6.318   6.903  0.2941  0.3206 -0.4664
   79SLPC   C21 7235   2.214   6.289   6.964  0.2362 -0.0203  0.2935
   79SLPC   O22 7236   2.316   6.359   6.962  0.2761 -0.5643 -0.3216
   79SLPC   C22 7237   2.193   6.158   7.042 -0.4695 -0.2200 -0.5088
   79SLPC   H2R 7238   2.155   6.086   6.966  0.6118 -1.1949 -0.1569
   79SLPC   H2S 7239   2.289   6.128   7.090  0.0641 -0.3458 -1.6264
   79SLPC    C3 7240   1.986   6.456   6.741  0.2630  0.5330  0.2955
   79SLPC    HX 7241   1.947   6.364   6.692  0.0862  1.2339 -0.9190
   79SLPC    HY 7242   1.998   6.533   6.662 -0.3858  3.1807  2.6240
   79SLPC   O31 7243   1.895   6.492   6.843  0.1336 -0.4773 -0.2091
   79SLPC   C31 7244   1.881   6.620   6.864  0.0106  0.5349  0.1745
   79SLPC   O32 7245   1.924   6.711   6.790 -0.0404  0.3782  0.5245
   79SLPC   C32 7246   1.788   6.645   6.987 -0.0924  0.7052 -0.5681
   79SLPC   H2X 7247   1.741   6.546   7.008 -0.7161  1.5629  2.4645
   79SLPC   H2Y 7248   1.712   6.724   6.968 -1.2608 -0.2376  0.0191
   79SLPC   C23 7249   2.077   6.167   7.155 -0.9617 -0.5434  0.4436
   79SLPC   H3R 7250   2.075   6.065   7.201 -2.6143 -1.0061 -0.5862
   79SLPC   H3S 7251   1.981   6.166   7.099  0.3406 -1.5063 -1.9271
   79SLPC   C24 7252   2.095   6.275   7.264  0.8172 -0.3737 -0.6125
   79SLPC   H4R 7253   2.103   6.371   7.209  1.7526 -0.5451 -0.7877
   79SLPC   H4S 7254   2.189   6.248   7.317  0.2985  0.1970  0.6510
   79SLPC   C25 7255   1.977   6.271   7.364 -0.2320  0.5118  0.1132
   79SLPC   H5R 7256   1.964   6.170   7.411  0.3028  0.9155  1.1636
   79SLPC   H5S 7257   1.891   6.298   7.300 -1.5580 -1.4280  0.9556
   79SLPC   C26 7258   1.973   6.374   7.475  0.1152  0.7890  0.5312
   79SLPC   H6R 7259   1.868   6.373   7.510 -0.3172  0.1689 -0.7155
   79SLPC   H6S 7260   1.984   6.479   7.439 -0.8225  0.2172 -1.6081
   79SLPC   C27 7261   2.068   6.348   7.591 -0.5941  0.7419  0.0482
   79SLPC   H7R 7262   2.169   6.375   7.555 -0.3862  0.9905  0.8193
   79SLPC   H7S 7263   2.085   6.243   7.623  4.6508  1.4099  0.2240
   79SLPC   C28 7264   2.042   6.433   7.716  0.0025 -0.4261 -0.0163
   79SLPC   H8R 7265   2.056   6.537   7.677  2.9071 -1.1628 -1.2337
   79SLPC   H8S 7266   2.131   6.416   7.780 -1.7353  0.4278  2.8166
   79SLPC   C29 7267   1.912   6.409   7.790  0.4673  0.2603 -0.2545
   79SLPC   H9R 7268   1.827   6.390   7.723  0.3949 -1.7026  0.3200
   79SLPC  C210 7269   1.895   6.389   7.925 -0.0598  0.0397  0.0612
   79SLPC  H10R 7270   1.804   6.355   7.975  1.0752 -4.0662 -0.3556
   79SLPC  C211 7271   2.012   6.379   8.015  0.0739 -0.5231  0.2620
   79SLPC  H11R 7272   2.083   6.306   7.971 -1.1258 -0.4974 -1.8551
   79SLPC  H11S 7273   1.980   6.321   8.105  2.6505 -1.3085  0.7528
   79SLPC  C212 7274   2.081   6.510   8.048  0.3522 -1.1183 -0.0699
   79SLPC  H12R 7275   2.081   6.592   7.974 -0.9563 -2.6245 -1.8457
   79SLPC  C213 7276   2.128   6.534   8.171 -0.0146  0.1952 -0.8312
   79SLPC  H13R 7277   2.177   6.632   8.181  1.8031 -0.6296 -1.3228
   79SLPC  C214 7278   2.116   6.451   8.298  0.1156 -0.3119 -0.3828
   79SLPC  H14R 7279   2.212   6.475   8.349 -0.3875  1.4350 -0.1985
   79SLPC  H14S 7280   2.112   6.341   8.281 -0.9051 -0.2109 -0.9033
   79SLPC  C215 7281   2.000   6.498   8.402 -1.2440  0.3957 -0.5323
   79SLPC  H15R 7282   2.016   6.592   8.459 -1.7118  0.0825  0.1288
   79SLPC  H15S 7283   1.996   6.414   8.474 -2.7850  2.1291  1.5258
   79SLPC  C216 7284   1.859   6.490   8.344 -0.0906 -0.4246 -0.4896
   79SLPC  H16R 7285   1.832   6.387   8.310  1.3768 -0.7155 -0.8200
   79SLPC  H16S 7286   1.855   6.557   8.256  0.5600  0.1707 -0.0729
   79SLPC  C217 7287   1.755   6.526   8.454  0.1817 -0.1178 -0.5139
   79SLPC  H17R 7288   1.778   6.630   8.487  0.0116 -0.6524  1.4398
   79SLPC  H17S 7289   1.775   6.470   8.549  0.6718  1.5100  0.3809
   79SLPC  C218 7290   1.609   6.534   8.405  0.3993  1.3113 -0.7686
   79SLPC  H18R 7291   1.596   6.597   8.315  0.4414  1.6972 -0.5068
   79SLPC  H18S 7292   1.536   6.566   8.483 -0.8545 -3.9863  0.6489
   79SLPC  H18T 7293   1.568   6.433   8.384 -0.7378  1.6563 -0.2801
   79SLPC   C33 7294   1.865   6.679   7.112 -0.2945 -0.5729  0.6481
   79SLPC   H3X 7295   1.959   6.724   7.074 -0.7337 -0.9221 -0.9003
   79SLPC   H3Y 7296   1.880   6.585   7.169 -0.6423  0.0246  1.7567
   79SLPC   C34 7297   1.801   6.788   7.194  0.5950  0.0469  0.0418
   79SLPC   H4X 7298   1.693   6.765   7.201  0.7872 -1.1565 -0.6741
   79SLPC   H4Y 7299   1.799   6.887   7.145 -0.4129  0.7040  1.3386
   79SLPC   C35 7300   1.870   6.795   7.332 -0.5227  0.0473  0.1263
   79SLPC   H5X 7301   1.957   6.863   7.328 -0.6300  0.1898  0.2029
   79SLPC   H5Y 7302   1.904   6.692   7.355 -0.1189  0.0427 -0.4744
   79SLPC   C36 7303   1.771   6.845   7.441  0.5142 -0.2003  0.8884
   79SLPC   H6X 7304   1.682   6.779   7.449  0.1454 -0.0606 -1.4156
   79SLPC   H6Y 7305   1.738   6.950   7.426 -1.1271 -0.7726  0.3272
   79SLPC   C37 7306   1.844   6.838   7.578  0.0814 -0.2496 -0.5860
   79SLPC   H7X 7307   1.921   6.917   7.589 -0.2045  0.4738 -3.0464
   79SLPC   H7Y 7308   1.904   6.745   7.581  0.3174 -0.3148 -3.6014
   79SLPC   C38 7309   1.734   6.858   7.686  0.0440 -0.1213  0.4878
   79SLPC   H8X 7310   1.666   6.771   7.681  0.4887 -0.4655  0.3152
   79SLPC   H8Y 7311   1.682   6.952   7.656  1.2383  0.2525 -0.5340
   79SLPC   C39 7312   1.799   6.859   7.831 -0.0212 -1.2387  0.9779
   79SLPC   H9X 7313   1.872   6.940   7.851 -2.2378  0.6822  1.8608
   79SLPC   H9Y 7314   1.852   6.762   7.834  0.2366 -1.1550 -0.1279
   79SLPC  C310 7315   1.692   6.878   7.939  0.5055 -0.6756 -0.3963
   79SLPC  H10X 7316   1.611   6.802   7.936  1.2742 -1.5567  0.4650
   79SLPC  H10Y 7317   1.648   6.980   7.930  4.0889  1.1406  0.8637
   79SLPC  C311 7318   1.746   6.873   8.083 -0.1994  0.9664 -0.4632
   79SLPC  H11X 7319   1.809   6.782   8.080  1.7398  1.9524  3.5827
   79SLPC  H11Y 7320   1.667   6.849   8.157 -0.4839 -0.3801 -1.1654
   79SLPC  C312 7321   1.827   6.994   8.126 -0.1673 -0.3126  0.5145
   79SLPC  H12X 7322   1.758   7.080   8.113 -2.1332 -1.9972 -0.8412
   79SLPC  H12Y 7323   1.919   7.021   8.069 -0.8342  1.0497  0.0568
   79SLPC  C313 7324   1.867   7.008   8.278 -0.0549 -0.2823  0.1510
   79SLPC  H13X 7325   1.904   7.110   8.301 -1.8342  0.0873  1.5646
   79SLPC  H13Y 7326   1.940   6.930   8.308 -1.4460 -1.8887 -0.5057
   79SLPC  C314 7327   1.750   6.992   8.363 -0.2660  0.4703  0.3667
   79SLPC  H14X 7328   1.739   6.883   8.382  0.0452  0.6022  1.3459
   79SLPC  H14Y 7329   1.656   7.025   8.314 -1.0239 -0.2330  1.3158
   79SLPC  C315 7330   1.754   7.070   8.498  0.9138  0.4565  0.5876
   79SLPC  H15X 7331   1.733   7.173   8.461 -1.3314 -0.1076  0.1622
   79SLPC  H15Y 7332   1.849   7.064   8.556  1.3135 -1.1324 -0.2061
   79SLPC  C316 7333   1.636   7.032   8.591 -0.3881 -0.1843  0.3991
   79SLPC  H16X 7334   1.547   7.039   8.526  0.2004  1.3775 -0.2891
   79SLPC  H16Y 7335   1.625   7.103   8.676  1.0035  0.5408  0.0153
   79SLPC  C317 7336   1.658   6.889   8.640 -0.0982 -0.7724  0.4888
   79SLPC  H17X 7337   1.651   6.807   8.565 -1.5024 -0.3241  0.0863
   79SLPC  H17Y 7338   1.574   6.876   8.712 -1.6396  0.7871 -0.9238
   79SLPC  C318 7339   1.788   6.859   8.714 -0.5338 -0.1456 -0.5242
   79SLPC  H18X 7340   1.882   6.882   8.659 -0.7672 -1.4799 -1.5318
   79SLPC  H18Y 7341   1.796   6.751   8.737 -2.5763  0.1454  1.9890
   79SLPC  H18Z 7342   1.793   6.921   8.806 -1.1732 -1.0394  0.1261
   80SLPC     N 7343   3.688   5.194   6.188  0.2832  0.0723 -0.2870
   80SLPC   C13 7344   3.808   5.100   6.170  0.5255  0.2914  0.2166
   80SLPC  H13A 7345   3.899   5.151   6.195  1.3849 -0.0919 -1.9468
   80SLPC  H13B 7346   3.807   5.014   6.236  1.8080  1.9744  2.5607
   80SLPC  H13C 7347   3.812   5.073   6.066  1.4141  1.5655 -0.0988
   80SLPC   C14 7348   3.561   5.131   6.141  0.0839 -0.6188 -0.0241
   80SLPC  H14A 7349   3.533   5.046   6.201  1.3683 -0.9127  0.1822
   80SLPC  H14B 7350   3.480   5.202   6.146  0.8787  0.4165 -1.0833
   80SLPC  H14C 7351   3.580   5.114   6.036  0.2745  0.3678 -0.1616
   80SLPC   C15 7352   3.712   5.320   6.112  0.1533 -0.6739 -0.0390
   80SLPC  H15A 7353   3.635   5.391   6.139  1.1081 -0.3087  1.8470
   80SLPC  H15B 7354   3.809   5.365   6.124 -0.8276  1.3465  0.8949
   80SLPC  H15C 7355   3.708   5.307   6.005  2.9399  0.7355 -0.4095
   80SLPC   C12 7356   3.675   5.214   6.338 -0.8736  0.0992  0.4338
   80SLPC  H12A 7357   3.615   5.135   6.381 -1.9925  1.7991  2.1826
   80SLPC  H12B 7358   3.623   5.308   6.353  3.3961  2.4204  2.4360
   80SLPC   C11 7359   3.800   5.234   6.424 -0.5337  0.2016  0.0735
   80SLPC  H11A 7360   3.854   5.137   6.418 -1.4217 -0.2623 -0.7170
   80SLPC  H11B 7361   3.774   5.252   6.530  0.4227 -0.3165  0.4097
   80SLPC     P 7362   4.031   5.358   6.366  0.1556 -0.5713  0.3825
   80SLPC   O13 7363   4.077   5.231   6.307 -0.0109  0.3629  0.1733
   80SLPC   O14 7364   4.058   5.483   6.290 -0.0997 -0.2670  0.2909
   80SLPC   O12 7365   3.873   5.349   6.386  0.6019  0.7646  0.0861
   80SLPC   O11 7366   4.091   5.365   6.511  0.0341 -0.0206  0.2090
   80SLPC    C1 7367   4.071   5.472   6.594 -0.1740  0.0890 -0.6176
   80SLPC    HA 7368   4.169   5.525   6.593  0.7041 -1.4786 -0.3342
   80SLPC    HB 7369   4.001   5.547   6.552  0.6107  0.8525 -0.5877
   80SLPC    C2 7370   4.025   5.441   6.737  0.4139 -0.2917 -0.6972
   80SLPC    HS 7371   4.111   5.383   6.778 -0.9229 -0.5699  1.9111
   80SLPC   O21 7372   3.909   5.352   6.746  0.2347  0.0468 -0.2938
   80SLPC   C21 7373   3.910   5.286   6.862  0.3489 -0.0976 -0.3615
   80SLPC   O22 7374   4.002   5.277   6.940 -0.2827  0.0368 -0.4390
   80SLPC   C22 7375   3.773   5.223   6.877  0.0170 -0.4413 -0.3451
   80SLPC   H2R 7376   3.708   5.313   6.875  1.7047  0.8424 -2.6051
   80SLPC   H2S 7377   3.758   5.163   6.785 -1.0086 -1.7892  0.6708
   80SLPC    C3 7378   4.003   5.573   6.819  0.1406  0.0151  0.5433
   80SLPC    HX 7379   3.915   5.612   6.763 -0.0578 -2.3150 -0.8801
   80SLPC    HY 7380   4.083   5.649   6.805 -0.1193 -0.0138 -1.4641
   80SLPC   O31 7381   3.963   5.546   6.955 -0.7340 -0.1190  0.1403
   80SLPC   C31 7382   3.925   5.653   7.025  0.4733  0.3758  0.1089
   80SLPC   O32 7383   3.941   5.768   6.993 -0.5679  0.2194  0.0246
   80SLPC   C32 7384   3.853   5.601   7.151 -1.0409 -0.4175  0.0085
   80SLPC   H2X 7385   3.930   5.551   7.213 -1.3682 -0.8510  0.0694
   80SLPC   H2Y 7386   3.775   5.529   7.120 -0.7527 -0.3795 -0.8101
   80SLPC   C23 7387   3.745   5.128   6.998  0.1122  0.0917  0.3654
   80SLPC   H3R 7388   3.815   5.042   7.006  1.5410  1.3709  2.8443
   80SLPC   H3S 7389   3.642   5.089   6.989  0.0567  0.5077 -1.0685
   80SLPC   C24 7390   3.756   5.204   7.132  0.7706  0.1375  0.8416
   80SLPC   H4R 7391   3.670   5.274   7.124 -0.3235 -1.3983 -2.4534
   80SLPC   H4S 7392   3.855   5.250   7.154  1.0579 -1.0290  2.1487
   80SLPC   C25 7393   3.739   5.108   7.243 -0.0870  0.4639 -0.3019
   80SLPC   H5R 7394   3.818   5.031   7.253 -1.9069 -1.2488  2.1041
   80SLPC   H5S 7395   3.648   5.049   7.222  0.3793  0.4031 -2.3041
   80SLPC   C26 7396   3.718   5.167   7.386 -0.0757 -0.0529 -0.4433
   80SLPC   H6R 7397   3.623   5.223   7.401  0.9862  1.7892 -0.2321
   80SLPC   H6S 7398   3.811   5.221   7.412 -0.7881  1.7926 -1.5026
   80SLPC   C27 7399   3.712   5.039   7.492 -0.1171  0.5336  0.2263
   80SLPC   H7R 7400   3.802   4.976   7.472 -1.8849 -1.5259 -1.7597
   80SLPC   H7S 7401   3.630   4.971   7.461  0.9977 -0.9987  0.5207
   80SLPC   C28 7402   3.708   5.067   7.645 -0.6295  0.2873  0.6156
   80SLPC   H8R 7403   3.802   5.121   7.671 -0.1895 -0.7455  1.2586
   80SLPC   H8S 7404   3.696   4.969   7.696 -0.2212  0.7973  1.7219
   80SLPC   C29 7405   3.580   5.142   7.661 -0.4792  0.2502  0.6391
   80SLPC   H9R 7406   3.510   5.138   7.576  0.0521 -0.0302  0.2094
   80SLPC  C210 7407   3.555   5.219   7.766  0.5422 -0.3568  0.2607
   80SLPC  H10R 7408   3.453   5.260   7.774  0.5441 -0.0467 -1.1648
   80SLPC  C211 7409   3.651   5.234   7.882 -0.6330  0.5967  0.1010
   80SLPC  H11R 7410   3.626   5.326   7.939  1.2388  0.6264  0.9486
   80SLPC  H11S 7411   3.750   5.248   7.833 -0.3311 -0.4880  0.3590
   80SLPC  C212 7412   3.656   5.117   7.979  0.3117 -0.1952  0.6437
   80SLPC  H12R 7413   3.591   5.031   7.958  0.6997  0.0776 -1.9478
   80SLPC  C213 7414   3.742   5.098   8.081 -0.5054  0.1372 -0.3105
   80SLPC  H13R 7415   3.721   5.011   8.144 -2.4149  0.7221 -0.0627
   80SLPC  C214 7416   3.839   5.199   8.139 -0.1131  0.3655 -0.5025
   80SLPC  H14R 7417   3.871   5.271   8.061  1.2162  0.8643  0.4684
   80SLPC  H14S 7418   3.936   5.153   8.166  0.8164  2.3759 -0.2687
   80SLPC  C215 7419   3.786   5.285   8.257  0.9275  0.2677 -0.3601
   80SLPC  H15R 7420   3.693   5.338   8.228 -1.2627 -3.7433 -1.4001
   80SLPC  H15S 7421   3.865   5.356   8.290 -0.3419  2.2748 -1.4832
   80SLPC  C216 7422   3.744   5.195   8.382  0.4931 -0.1040  0.4530
   80SLPC  H16R 7423   3.660   5.134   8.343  0.7571  0.9984 -2.0520
   80SLPC  H16S 7424   3.697   5.258   8.460 -0.5120  1.4627 -1.3311
   80SLPC  C217 7425   3.844   5.094   8.435  0.8191  0.0623  0.0634
   80SLPC  H17R 7426   3.885   5.027   8.357 -0.7612 -3.6418  2.1511
   80SLPC  H17S 7427   3.788   5.022   8.499  2.5293 -0.4158  1.1107
   80SLPC  C218 7428   3.948   5.148   8.532 -0.4461  0.2478 -0.2820
   80SLPC  H18R 7429   3.909   5.150   8.635 -1.0291 -0.2885 -0.4858
   80SLPC  H18S 7430   3.983   5.251   8.509 -0.4597 -0.0311 -1.6424
   80SLPC  H18T 7431   4.040   5.086   8.522 -0.3032  0.5355 -0.7748
   80SLPC   C33 7432   3.816   5.727   7.230  0.5468 -0.1708 -0.5971
   80SLPC   H3X 7433   3.758   5.805   7.176  0.5651  0.4696  0.2710
   80SLPC   H3Y 7434   3.907   5.783   7.262  0.3291 -0.4251  0.5062
   80SLPC   C34 7435   3.735   5.691   7.358 -0.4364  0.2852  0.6904
   80SLPC   H4X 7436   3.631   5.682   7.319 -0.6871 -1.7548  1.6910
   80SLPC   H4Y 7437   3.736   5.775   7.431 -0.9195  0.3738  0.6000
   80SLPC   C35 7438   3.779   5.564   7.437  0.4990  0.6160  0.0386
   80SLPC   H5X 7439   3.886   5.579   7.462  0.8172 -0.7518 -0.3949
   80SLPC   H5Y 7440   3.760   5.478   7.367 -4.6770 -0.9980  2.8608
   80SLPC   C36 7441   3.689   5.537   7.559 -0.1342  0.3638 -0.3004
   80SLPC   H6X 7442   3.690   5.434   7.600  0.3352  1.0688  1.5647
   80SLPC   H6Y 7443   3.583   5.559   7.534 -0.0709 -1.0702 -2.0118
   80SLPC   C37 7444   3.732   5.641   7.673 -0.3550 -0.2206  0.0927
   80SLPC   H7X 7445   3.718   5.749   7.650  2.0219  0.2873  0.8155
   80SLPC   H7Y 7446   3.841   5.628   7.687 -0.5890 -2.3700  0.2804
   80SLPC   C38 7447   3.646   5.618   7.803 -0.2805  0.8625 -0.2212
   80SLPC   H8X 7448   3.628   5.509   7.815  0.5273  0.9771  2.6647
   80SLPC   H8Y 7449   3.551   5.670   7.780 -0.2491  0.3990 -1.5248
   80SLPC   C39 7450   3.722   5.673   7.921  0.3292 -0.2361  0.6591
   80SLPC   H9X 7451   3.761   5.774   7.897  0.2473 -0.1948  0.6980
   80SLPC   H9Y 7452   3.809   5.606   7.936 -0.1727 -0.3598  3.4602
   80SLPC  C310 7453   3.644   5.672   8.058  0.2776  0.0881 -0.1810
   80SLPC  H10X 7454   3.604   5.569   8.075  1.9287 -0.2800  1.8865
   80SLPC  H10Y 7455   3.555   5.737   8.043 -0.9677 -1.8190 -1.5207
   80SLPC  C311 7456   3.719   5.728   8.181 -0.0064  0.5643  0.6014
   80SLPC  H11X 7457   3.768   5.826   8.166  2.1357 -0.7769 -1.9278
   80SLPC  H11Y 7458   3.792   5.652   8.218  0.6482  0.5757 -0.6335
   80SLPC  C312 7459   3.616   5.740   8.293  0.3088 -0.0694 -0.4271
   80SLPC  H12X 7460   3.581   5.635   8.303  3.2192 -1.3980 -2.5830
   80SLPC  H12Y 7461   3.538   5.814   8.266  0.1697 -0.2424 -0.5000
   80SLPC  C313 7462   3.684   5.751   8.429 -0.2967  0.0195 -0.9123
   80SLPC  H13X 7463   3.771   5.681   8.424 -1.7411 -2.1409  1.7598
   80SLPC  H13Y 7464   3.607   5.714   8.499 -0.5806  0.4310 -1.0075
   80SLPC  C314 7465   3.743   5.885   8.472  0.2410  0.3759  0.2581
   80SLPC  H14X 7466   3.810   5.938   8.402  1.2352 -1.0573  0.0830
   80SLPC  H14Y 7467   3.787   5.864   8.572 -0.0138  0.7947  0.4619
   80SLPC  C315 7468   3.627   5.984   8.509  0.2613 -0.3842 -0.0406
   80SLPC  H15X 7469   3.571   5.939   8.593 -2.7283  1.5371 -0.8304
   80SLPC  H15Y 7470   3.551   5.996   8.429  2.5895  1.6636 -2.1253
   80SLPC  C316 7471   3.688   6.122   8.549  0.7192 -0.2167  0.3373
   80SLPC  H16X 7472   3.753   6.147   8.463 -1.0685  1.0319 -0.7101
   80SLPC  H16Y 7473   3.743   6.130   8.645  1.0432  2.7271  0.0083
   80SLPC  C317 7474   3.582   6.231   8.555 -0.6308 -0.0884  0.0728
   80SLPC  H17X 7475   3.514   6.214   8.469 -0.2140  1.3089 -0.5644
   80SLPC  H17Y 7476   3.632   6.329   8.537 -0.8851  0.0217 -0.0325
   80SLPC  C318 7477   3.503   6.242   8.689 -0.8032  0.0972 -0.1063
   80SLPC  H18X 7478   3.431   6.326   8.681 -3.2494 -1.6806  1.5350
   80SLPC  H18Y 7479   3.580   6.256   8.767 -2.0706  1.5189  0.9354
   80SLPC  H18Z 7480   3.442   6.151   8.710  0.7476 -0.8081  0.6292
   81SAPS     N 7481   4.939   4.623  11.299  0.2271  0.0651 -0.1299
   81SAPS   HN1 7482   5.020   4.645  11.361  0.4325  0.0770 -0.4008
   81SAPS   HN2 7483   4.861   4.581  11.354  0.4112  0.4364  0.4182
   81SAPS   HN3 7484   4.981   4.549  11.239  0.4706  1.5176 -1.8324
   81SAPS   C12 7485   4.899   4.736  11.218  0.3485  0.6477 -0.1304
   81SAPS  H12A 7486   4.810   4.713  11.162  1.6082 -1.6710 -1.2907
   81SAPS   C13 7487   4.865   4.857  11.302 -0.7147 -0.0960  0.1634
   81SAPS  O13A 7488   4.843   4.844  11.427  0.0262 -0.7555 -0.0508
   81SAPS  O13B 7489   4.856   4.970  11.252  1.0598  0.3615 -0.2871
   81SAPS   C11 7490   5.009   4.784  11.115  0.8372 -0.4796  0.2856
   81SAPS  H11A 7491   5.076   4.855  11.167 -1.1705  0.9006  1.0961
   81SAPS  H11B 7492   4.956   4.850  11.042  3.2353  0.9932 -0.2205
   81SAPS     P 7493   5.203   4.695  10.961  0.2864 -0.4287 -0.1322
   81SAPS   O13 7494   5.238   4.837  10.958 -0.0453 -0.3087  0.0587
   81SAPS   O14 7495   5.310   4.610  11.008 -0.6705  0.3743 -0.2125
   81SAPS   O12 7496   5.075   4.674  11.050 -0.0309  0.8311  0.0146
   81SAPS   O11 7497   5.165   4.652  10.818  0.6968 -0.2916 -0.0037
   81SAPS    C1 7498   5.036   4.679  10.748 -0.5062 -0.4902  0.3574
   81SAPS    HA 7499   4.983   4.584  10.724 -0.2105 -1.3915  2.9817
   81SAPS    HB 7500   4.972   4.752  10.801 -1.1966 -0.4860 -0.4595
   81SAPS    C2 7501   5.060   4.752  10.613 -0.0507  0.7902  0.1932
   81SAPS    HS 7502   5.122   4.686  10.549  2.2316  1.5354  1.5174
   81SAPS   O21 7503   5.123   4.878  10.637 -0.4712 -0.5335 -0.4808
   81SAPS   C21 7504   5.256   4.874  10.631  0.8058 -0.2082  0.2305
   81SAPS   O22 7505   5.318   4.776  10.608 -0.3091 -0.0661 -0.1687
   81SAPS   C22 7506   5.308   5.018  10.653 -0.4499  0.1504  0.4118
   81SAPS   H2R 7507   5.283   5.050  10.756 -1.1517  4.5627 -0.9155
   81SAPS   H2S 7508   5.418   5.016  10.637 -0.1454  2.5453  1.7048
   81SAPS    C3 7509   4.918   4.771  10.534 -0.3453  0.2004 -0.1027
   81SAPS    HX 7510   4.853   4.842  10.590 -0.2606 -1.5704  2.4343
   81SAPS    HY 7511   4.876   4.671  10.511 -1.7978  1.1527 -1.7946
   81SAPS   O31 7512   4.938   4.836  10.404  0.3118 -0.0967  0.2684
   81SAPS   C31 7513   5.021   4.786  10.316  0.4040 -0.1146 -0.2568
   81SAPS   O32 7514   5.082   4.685  10.321  0.0671  0.2498 -0.3612
   81SAPS   C32 7515   5.014   4.879  10.188  0.3110  0.4850 -0.5543
   81SAPS   H2X 7516   5.015   4.980  10.233 -1.2131  1.0879 -1.7962
   81SAPS   H2Y 7517   4.913   4.866  10.143  0.5810 -1.3639 -0.7263
   81SAPS   C23 7518   5.236   5.116  10.559 -0.0408  0.6980  0.1622
   81SAPS   H3R 7519   5.129   5.124  10.590  0.0033  4.1329 -0.1431
   81SAPS   H3S 7520   5.233   5.087  10.452 -1.7155  1.1023  0.0749
   81SAPS   C24 7521   5.305   5.251  10.564 -0.4565  0.3406  1.0087
   81SAPS   H4R 7522   5.304   5.299  10.665 -0.0379  1.1065  0.6622
   81SAPS   H4S 7523   5.243   5.318  10.501  1.5617  2.5600  1.1912
   81SAPS   C25 7524   5.447   5.241  10.510  0.1544  0.6904  0.9677
   81SAPS   H5R 7525   5.516   5.210  10.589 -0.3494 -0.3691  1.0132
   81SAPS   C26 7526   5.489   5.282  10.391  0.3938 -0.4993  0.7595
   81SAPS   H6R 7527   5.598   5.281  10.379  0.5280  0.8973  1.6060
   81SAPS   C27 7528   5.417   5.353  10.282  0.5456  0.5963 -0.0909
   81SAPS   H7R 7529   5.479   5.434  10.239 -1.8935  0.7749 -3.6982
   81SAPS   H7S 7530   5.323   5.387  10.331 -0.2414 -1.1677 -0.2929
   81SAPS   C28 7531   5.374   5.262  10.167 -0.5803  0.0973 -0.0968
   81SAPS   H8R 7532   5.336   5.165  10.203 -0.8385  0.0978 -0.3623
   81SAPS   C29 7533   5.365   5.285  10.032 -0.6195  0.6738 -0.2859
   81SAPS   H9R 7534   5.333   5.195   9.977 -1.2184 -0.7269  2.2115
   81SAPS  C210 7535   5.407   5.412   9.960 -0.2024  0.7286  0.1040
   81SAPS  H10R 7536   5.487   5.460  10.020  0.6946 -0.9356  0.2981
   81SAPS  H10S 7537   5.321   5.482   9.953 -0.8589 -0.2005 -1.8920
   81SAPS  C211 7538   5.466   5.387   9.823 -0.4603  0.2992  0.4140
   81SAPS  H11R 7539   5.567   5.344   9.820  0.4705  2.4395 -0.7068
   81SAPS  C212 7540   5.403   5.397   9.701 -0.0519 -0.0695 -0.7281
   81SAPS  H12R 7541   5.456   5.354   9.614 -1.4090 -1.7886 -0.7531
   81SAPS  C213 7542   5.259   5.436   9.667 -0.8405  0.7843 -0.5955
   81SAPS  H13R 7543   5.198   5.414   9.757  1.5647 -2.0511  0.4982
   81SAPS  H13S 7544   5.206   5.356   9.611  1.2539 -1.3717  0.3334
   81SAPS  C214 7545   5.242   5.565   9.597 -1.0440 -0.2032 -0.5137
   81SAPS  H14R 7546   5.191   5.643   9.655  1.0086  0.7223  0.1399
   81SAPS  C215 7547   5.286   5.591   9.469 -0.1634 -0.1120  0.5913
   81SAPS  H15R 7548   5.286   5.698   9.444  1.3638  0.6503  3.4773
   81SAPS  C216 7549   5.355   5.488   9.378 -0.4231 -0.3569 -1.0561
   81SAPS  H16R 7550   5.381   5.396   9.434  1.7024 -0.5365 -2.2356
   81SAPS  H16S 7551   5.456   5.526   9.353 -0.2400 -0.3209 -0.2682
   81SAPS  C217 7552   5.270   5.460   9.251  0.1816 -0.1421  0.6409
   81SAPS  H17R 7553   5.238   5.556   9.206 -2.7142 -1.9452 -1.4940
   81SAPS  H17S 7554   5.185   5.396   9.285  1.1164 -1.7950  0.0043
   81SAPS  C218 7555   5.349   5.392   9.145 -0.3506  0.5167  0.0452
   81SAPS  H18R 7556   5.285   5.345   9.067  0.3647 -2.6836  1.2543
   81SAPS  H18S 7557   5.409   5.305   9.179 -1.5831 -0.6115 -0.5994
   81SAPS  C219 7558   5.442   5.483   9.063 -0.1663  0.0059  0.1482
   81SAPS  H19R 7559   5.502   5.424   8.990  1.1496  1.5914 -0.1159
   81SAPS  H19S 7560   5.511   5.543   9.126 -1.1415  1.8314 -0.4750
   81SAPS  C220 7561   5.368   5.579   8.969 -0.4713 -0.4271 -0.1348
   81SAPS  H20R 7562   5.314   5.656   9.027 -0.3897  0.8092 -1.6394
   81SAPS  H20S 7563   5.303   5.523   8.899  0.6632 -0.7681 -0.9422
   81SAPS  H20T 7564   5.448   5.624   8.906 -0.4341 -0.8026 -0.3623
   81SAPS   C33 7565   5.131   4.860  10.093 -0.3542  0.0161 -0.3806
   81SAPS   H3X 7566   5.126   4.757  10.052 -2.7020 -0.1425  0.1953
   81SAPS   H3Y 7567   5.234   4.864  10.135 -1.0456 -0.3965  1.4467
   81SAPS   C34 7568   5.119   4.966   9.987  0.7033  0.3231 -0.6264
   81SAPS   H4X 7569   5.123   5.070  10.027  0.6294 -0.4110  1.4071
   81SAPS   H4Y 7570   5.017   4.957   9.944  0.1974  1.3701  0.3015
   81SAPS   C35 7571   5.220   4.950   9.863  0.2416  0.0567  0.5934
   81SAPS   H5X 7572   5.210   4.841   9.844  0.9496 -0.6607  3.7498
   81SAPS   H5Y 7573   5.323   4.966   9.901  0.0787 -0.1940  1.1558
   81SAPS   C36 7574   5.196   5.034   9.737 -0.4989  0.2122  0.1689
   81SAPS   H6X 7575   5.284   5.037   9.669 -1.8668  2.0205 -1.6279
   81SAPS   H6Y 7576   5.191   5.140   9.768 -0.7774  0.0014  0.8590
   81SAPS   C37 7577   5.072   4.997   9.662  0.0318  0.0706 -0.8594
   81SAPS   H7X 7578   4.986   5.012   9.732 -0.3777 -0.2785 -1.2857
   81SAPS   H7Y 7579   5.071   4.891   9.631  0.9142 -0.1389 -0.2346
   81SAPS   C38 7580   5.057   5.092   9.540  0.2665  0.2320  0.1175
   81SAPS   H8X 7581   5.075   5.193   9.581  1.1518 -0.6090  1.8895
   81SAPS   H8Y 7582   4.951   5.081   9.509 -0.4468  0.9940  2.1708
   81SAPS   C39 7583   5.157   5.074   9.422 -0.6475 -0.1397 -0.5533
   81SAPS   H9X 7584   5.260   5.098   9.456 -1.1595  0.8465  0.3747
   81SAPS   H9Y 7585   5.126   5.151   9.348  1.6834  1.4837  0.0363
   81SAPS  C310 7586   5.155   4.932   9.369  0.5768  0.3147  1.0084
   81SAPS  H10X 7587   5.049   4.902   9.384  1.0213 -1.2321  1.2601
   81SAPS  H10Y 7588   5.222   4.854   9.411 -0.8656 -1.8981 -0.6030
   81SAPS  C311 7589   5.195   4.933   9.222  0.2241 -0.2665 -0.6090
   81SAPS  H11X 7590   5.118   4.995   9.172  1.6453  0.9862 -1.3113
   81SAPS  H11Y 7591   5.180   4.828   9.188  0.3400 -1.0959  1.7197
   81SAPS  C312 7592   5.336   4.981   9.193  0.2404  0.0807 -0.6027
   81SAPS  H12X 7593   5.401   4.906   9.244 -0.5595  1.0027  1.9200
   81SAPS  H12Y 7594   5.358   5.078   9.243 -0.6838 -0.0956  0.1797
   81SAPS  C313 7595   5.367   4.995   9.040  0.0401 -0.1731  0.0791
   81SAPS  H13X 7596   5.293   5.047   8.976  1.0455  2.1150  0.6718
   81SAPS  H13Y 7597   5.365   4.888   9.008 -3.3910 -0.3121  0.3935
   81SAPS  C314 7598   5.516   5.041   9.009  0.4519 -0.0437 -0.2819
   81SAPS  H14X 7599   5.579   4.982   9.080 -0.0246  0.3939  0.5258
   81SAPS  H14Y 7600   5.545   5.147   9.028  1.0508 -0.0593 -1.0612
   81SAPS  C315 7601   5.556   5.016   8.861 -0.1993  0.4741  0.1807
   81SAPS  H15X 7602   5.491   5.061   8.783  1.7589 -1.0238 -2.4868
   81SAPS  H15Y 7603   5.541   4.908   8.842  0.7413  0.1543  1.1478
   81SAPS  C316 7604   5.705   5.043   8.840 -0.1996 -0.0250 -0.3537
   81SAPS  H16X 7605   5.736   5.006   8.740  1.9793  1.5761 -0.3443
   81SAPS  H16Y 7606   5.773   4.989   8.909  3.3729  2.8193 -1.3198
   81SAPS  C317 7607   5.747   5.189   8.856  0.0348 -0.2668 -0.4688
   81SAPS  H17X 7608   5.733   5.217   8.962 -2.7015 -0.4185 -0.7295
   81SAPS  H17Y 7609   5.681   5.248   8.788 -1.5047 -1.2833  0.0991
   81SAPS  C318 7610   5.893   5.198   8.807 -0.3127 -0.7804 -0.5149
   81SAPS  H18X 7611   5.953   5.111   8.842 -0.1338  0.0578  1.3495
   81SAPS  H18Y 7612   5.943   5.289   8.846 -1.6663 -0.1391 -0.2257
   81SAPS  H18Z 7613   5.887   5.208   8.696  2.5497 -0.5757 -0.7226
   82SAPS     N 7614   3.846   5.732  11.407  0.3266 -0.0142  0.1459
   82SAPS   HN1 7615   3.869   5.749  11.507 -0.3916  1.8585  0.0316
   82SAPS   HN2 7616   3.942   5.739  11.369 -0.4298 -1.3977 -2.1811
   82SAPS   HN3 7617   3.793   5.819  11.387  0.2865 -0.0657  0.0295
   82SAPS   C12 7618   3.776   5.612  11.362 -0.1378 -0.4414  0.5621
   82SAPS  H12A 7619   3.858   5.543  11.349  0.8858  0.9013 -0.3812
   82SAPS   C13 7620   3.669   5.556  11.457  0.5729 -0.4104  0.1315
   82SAPS  O13A 7621   3.632   5.609  11.567  0.3779  0.4116 -1.1049
   82SAPS  O13B 7622   3.630   5.441  11.425  0.1958  0.1344  0.0666
   82SAPS   C11 7623   3.708   5.639  11.230 -0.1097 -0.0587  0.1310
   82SAPS  H11A 7624   3.625   5.710  11.247  0.8375  0.7637  1.5777
   82SAPS  H11B 7625   3.664   5.542  11.201 -0.5391  0.0371  0.4459
   82SAPS     P 7626   3.891   5.630  11.032 -0.3573 -0.5188 -0.7716
   82SAPS   O13 7627   3.906   5.735  10.931 -0.4095  0.4232 -0.3608
   82SAPS   O14 7628   4.012   5.572  11.099  0.1656  0.3051 -0.2319
   82SAPS   O12 7629   3.797   5.699  11.139 -0.0685  0.7733  0.0320
   82SAPS   O11 7630   3.802   5.517  10.975 -0.6373  0.6592 -0.5073
   82SAPS    C1 7631   3.668   5.512  10.935  1.2439  0.4472 -0.2419
   82SAPS    HA 7632   3.611   5.434  10.989  1.3065 -1.6830 -3.0390
   82SAPS    HB 7633   3.622   5.611  10.957  0.3060  0.0639 -0.4402
   82SAPS    C2 7634   3.635   5.471  10.785 -0.4333  0.6897  0.7846
   82SAPS    HS 7635   3.685   5.374  10.764 -0.1583  1.0479 -0.3271
   82SAPS   O21 7636   3.676   5.572  10.685  0.0246 -0.2309 -0.9837
   82SAPS   C21 7637   3.807   5.561  10.638 -0.0010  0.2064 -0.4251
   82SAPS   O22 7638   3.878   5.470  10.670  0.2066  0.8858 -0.6524
   82SAPS   C22 7639   3.841   5.664  10.525 -0.0364 -0.0357  0.2652
   82SAPS   H2R 7640   3.741   5.708  10.505 -1.1837 -2.1303  1.0711
   82SAPS   H2S 7641   3.906   5.738  10.576 -0.3582  0.2297  0.2909
   82SAPS    C3 7642   3.485   5.438  10.753 -0.3184  0.0203  0.1959
   82SAPS    HX 7643   3.421   5.525  10.780 -0.1419 -0.0253  0.7801
   82SAPS    HY 7644   3.460   5.356  10.824  2.9721 -0.0053  1.5063
   82SAPS   O31 7645   3.464   5.383  10.620  0.0566  0.6505  0.2861
   82SAPS   C31 7646   3.390   5.464  10.537  0.3578 -0.1697 -0.4076
   82SAPS   O32 7647   3.382   5.585  10.565 -0.3250  0.6202 -0.0106
   82SAPS   C32 7648   3.342   5.388  10.421 -0.2809 -0.1948  0.2283
   82SAPS   H2X 7649   3.277   5.307  10.459 -1.1383 -0.0836 -0.9620
   82SAPS   H2Y 7650   3.426   5.340  10.367 -2.2691 -3.0884 -0.5196
   82SAPS   C23 7651   3.896   5.614  10.398 -0.4435  1.4778 -0.6200
   82SAPS   H3R 7652   3.981   5.548  10.424 -2.4750 -0.9729  0.1992
   82SAPS   H3S 7653   3.929   5.705  10.343 -0.0450  1.7556  0.0712
   82SAPS   C24 7654   3.809   5.527  10.312  0.4894 -0.6254 -1.0038
   82SAPS   H4R 7655   3.799   5.427  10.357 -1.6708 -0.0607 -0.0888
   82SAPS   H4S 7656   3.872   5.503  10.224  0.5743 -0.6619 -0.9341
   82SAPS   C25 7657   3.669   5.579  10.280  0.5572  0.4983 -0.5450
   82SAPS   H5R 7658   3.623   5.653  10.346 -0.1764 -2.1587  2.1502
   82SAPS   C26 7659   3.599   5.546  10.174 -0.6660  0.1175  0.4126
   82SAPS   H6R 7660   3.498   5.584  10.157 -0.6025  0.5660  1.0124
   82SAPS   C27 7661   3.644   5.470  10.048  0.4269  0.1576 -0.0323
   82SAPS   H7R 7662   3.755   5.471  10.049  0.4650 -1.6661  0.2790
   82SAPS   H7S 7663   3.608   5.533   9.963  1.5890  0.0223 -0.6454
   82SAPS   C28 7664   3.600   5.331  10.027  0.7074  0.1207  0.1605
   82SAPS   H8R 7665   3.603   5.255  10.106 -0.7723  0.3101  0.4262
   82SAPS   C29 7666   3.529   5.282   9.918 -0.4385  0.4258 -0.4011
   82SAPS   H9R 7667   3.522   5.173   9.910  0.8774  0.2649  0.3304
   82SAPS  C210 7668   3.498   5.356   9.792  0.4195 -0.0922 -0.2196
   82SAPS  H10R 7669   3.591   5.392   9.742  1.7093 -0.1925  1.9817
   82SAPS  H10S 7670   3.435   5.446   9.810  0.4785  0.2381 -1.5304
   82SAPS  C211 7671   3.429   5.273   9.685  0.4863 -0.6198 -0.3917
   82SAPS  H11R 7672   3.389   5.177   9.720  0.0895 -0.8131 -1.3371
   82SAPS  C212 7673   3.394   5.309   9.561 -0.4192  0.0927  0.1081
   82SAPS  H12R 7674   3.342   5.227   9.509  2.0216 -1.9639  0.6367
   82SAPS  C213 7675   3.424   5.436   9.485  0.1746 -0.4144  0.8341
   82SAPS  H13R 7676   3.526   5.423   9.444  0.8262 -0.5529  2.4418
   82SAPS  H13S 7677   3.429   5.532   9.541 -3.2006  1.0457 -1.0151
   82SAPS  C214 7678   3.334   5.472   9.371 -0.0727  0.8174  0.7821
   82SAPS  H14R 7679   3.288   5.573   9.370  0.2970  1.0089 -0.9147
   82SAPS  C215 7680   3.315   5.401   9.256  0.6282  0.1321 -0.1264
   82SAPS  H15R 7681   3.234   5.442   9.195 -0.2068  1.0413  1.5050
   82SAPS  C216 7682   3.378   5.275   9.211 -0.2441 -0.7883 -0.5149
   82SAPS  H16R 7683   3.316   5.212   9.145 -2.6922 -1.9118  2.6218
   82SAPS  H16S 7684   3.410   5.216   9.300 -0.2065  0.2772  0.2035
   82SAPS  C217 7685   3.499   5.303   9.129 -0.5651  0.0384  0.2639
   82SAPS  H17R 7686   3.545   5.202   9.115 -0.0509  0.6462 -3.4213
   82SAPS  H17S 7687   3.575   5.370   9.174 -1.6951  1.3717  0.2515
   82SAPS  C218 7688   3.470   5.353   8.982  0.1308  0.3737  0.1678
   82SAPS  H18R 7689   3.427   5.455   8.980  1.7898  1.0829 -1.7886
   82SAPS  H18S 7690   3.400   5.285   8.929  1.2693  0.8679 -2.0997
   82SAPS  C219 7691   3.598   5.360   8.904  0.2204  0.3168  0.8118
   82SAPS  H19R 7692   3.636   5.255   8.904 -1.0606 -0.1633  0.9608
   82SAPS  H19S 7693   3.671   5.423   8.959 -0.9751  1.4908  1.1100
   82SAPS  C220 7694   3.584   5.424   8.765  0.6816 -0.7012  0.7357
   82SAPS  H20R 7695   3.517   5.358   8.706 -1.5206 -0.6217  3.0165
   82SAPS  H20S 7696   3.685   5.435   8.719  2.4344 -0.5334  4.2869
   82SAPS  H20T 7697   3.535   5.523   8.766  0.8867 -0.4130 -3.1950
   82SAPS   C33 7698   3.266   5.477  10.328 -0.4430 -0.8475  0.1774
   82SAPS   H3X 7699   3.331   5.561  10.295 -1.6524 -0.4394 -1.2734
   82SAPS   H3Y 7700   3.183   5.543  10.363  1.3079  0.7719  1.5545
   82SAPS   C34 7701   3.224   5.413  10.201  0.6237  0.1052  0.1737
   82SAPS   H4X 7702   3.142   5.342  10.222  0.3458  0.5196  0.5152
   82SAPS   H4Y 7703   3.305   5.348  10.162  0.0465 -0.8791  0.5781
   82SAPS   C35 7704   3.196   5.509  10.087  0.1093  0.1177  0.0516
   82SAPS   H5X 7705   3.289   5.560  10.054  1.3298 -2.6330 -1.0547
   82SAPS   H5Y 7706   3.118   5.572  10.135  1.1224  1.1214  0.4419
   82SAPS   C36 7707   3.143   5.436   9.964  0.6300  0.0792 -0.6114
   82SAPS   H6X 7708   3.076   5.351   9.990  0.3333  0.9792  1.8373
   82SAPS   H6Y 7709   3.238   5.394   9.926  0.2685  0.0591 -1.5173
   82SAPS   C37 7710   3.079   5.531   9.860  0.1411 -0.2341  0.2047
   82SAPS   H7X 7711   3.151   5.608   9.825 -0.1182 -0.3058 -0.5110
   82SAPS   H7Y 7712   2.993   5.577   9.913 -0.0123 -1.6143  1.2076
   82SAPS   C38 7713   3.024   5.448   9.735 -0.4792 -0.3536 -0.5030
   82SAPS   H8X 7714   2.947   5.372   9.761  0.0312 -0.4743  0.7475
   82SAPS   H8Y 7715   3.105   5.385   9.693  2.0146  0.9667  2.0438
   82SAPS   C39 7716   2.965   5.533   9.626  0.2689  0.7572 -0.3154
   82SAPS   H9X 7717   3.032   5.619   9.606  1.5535  0.2942  1.7140
   82SAPS   H9Y 7718   2.876   5.594   9.650 -0.6210 -0.3170 -0.7424
   82SAPS  C310 7719   2.937   5.451   9.502 -0.1038  0.0225  0.2156
   82SAPS  H10X 7720   2.864   5.372   9.529 -0.2444  0.7089  1.9531
   82SAPS  H10Y 7721   3.027   5.402   9.460 -0.7581 -0.7343 -0.3442
   82SAPS  C311 7722   2.864   5.528   9.392 -0.1757 -0.3497 -0.4213
   82SAPS  H11X 7723   2.793   5.602   9.434 -1.0222 -0.7110 -1.1851
   82SAPS  H11Y 7724   2.809   5.460   9.323  0.0089 -0.4401 -0.4809
   82SAPS  C312 7725   2.966   5.600   9.307 -0.8271 -0.0458  0.3710
   82SAPS  H12X 7726   3.026   5.526   9.250  0.4313  0.4682  1.0060
   82SAPS  H12Y 7727   3.040   5.663   9.361  2.4990 -0.5102 -3.2415
   82SAPS  C313 7728   2.906   5.697   9.204  0.2776 -0.1294 -0.1653
   82SAPS  H13X 7729   2.983   5.764   9.159  0.4272 -1.1020 -1.4030
   82SAPS  H13Y 7730   2.835   5.763   9.258  0.5710 -0.0352  0.1120
   82SAPS  C314 7731   2.828   5.622   9.091 -0.8697  0.2762  0.5355
   82SAPS  H14X 7732   2.751   5.556   9.137  1.8093 -2.4212  1.4622
   82SAPS  H14Y 7733   2.891   5.549   9.035 -1.2968  0.8331 -0.7240
   82SAPS  C315 7734   2.768   5.710   8.981  0.3646  0.4595  0.8907
   82SAPS  H15X 7735   2.830   5.701   8.888 -1.4335  0.7552 -0.3914
   82SAPS  H15Y 7736   2.777   5.819   9.001  1.1025  0.5805 -0.0291
   82SAPS  C316 7737   2.624   5.666   8.960 -0.6027 -0.3829  0.5954
   82SAPS  H16X 7738   2.607   5.557   8.964 -3.5015  0.0130  1.3202
   82SAPS  H16Y 7739   2.604   5.694   8.854 -2.2855 -1.4091  0.6199
   82SAPS  C317 7740   2.531   5.756   9.035 -0.2139 -1.5897 -0.5593
   82SAPS  H17X 7741   2.554   5.860   9.005 -1.9826 -1.1727 -0.5190
   82SAPS  H17Y 7742   2.550   5.761   9.144  1.1255  3.1099 -0.7715
   82SAPS  C318 7743   2.382   5.739   9.010 -0.0597 -0.3460  0.7776
   82SAPS  H18X 7744   2.367   5.722   8.902 -1.3254 -1.6438  1.1352
   82SAPS  H18Y 7745   2.330   5.826   9.055  0.9124  1.3542 -1.1906
   82SAPS  H18Z 7746   2.351   5.648   9.066  0.3213 -0.5580  0.6476
   83SAPS     N 7747   5.203   5.094  11.057  0.7616  0.1405 -0.6991
   83SAPS   HN1 7748   5.238   5.021  10.992  0.9917 -1.8149  1.4793
   83SAPS   HN2 7749   5.104   5.070  11.082  0.4903  0.7714 -1.1359
   83SAPS   HN3 7750   5.194   5.185  11.009 -0.9144  2.1547  2.9419
   83SAPS   C12 7751   5.292   5.099  11.170 -0.6198 -0.1915 -0.4239
   83SAPS  H12A 7752   5.255   5.024  11.239 -2.8164  1.7523  0.6384
   83SAPS   C13 7753   5.429   5.071  11.124 -0.1019  0.2419 -0.2089
   83SAPS  O13A 7754   5.455   5.042  11.003  0.2890 -0.1540  0.2884
   83SAPS  O13B 7755   5.517   5.059  11.212 -0.4377  0.6278 -0.2624
   83SAPS   C11 7756   5.289   5.242  11.235  0.3578  0.9337  0.6803
   83SAPS  H11A 7757   5.321   5.314  11.156  1.8267  0.2297  0.5980
   83SAPS  H11B 7758   5.349   5.258  11.328  0.2543 -0.6003  1.0305
   83SAPS     P 7759   5.099   5.413  11.306  0.0116  0.0016 -0.0029
   83SAPS   O13 7760   4.966   5.403  11.360 -0.4744 -0.2171  0.2102
   83SAPS   O14 7761   5.200   5.492  11.376  0.2118  0.0160  0.4334
   83SAPS   O12 7762   5.155   5.265  11.276 -0.1040  0.5376  0.2846
   83SAPS   O11 7763   5.088   5.466  11.157  0.2643  0.1104 -0.1340
   83SAPS    C1 7764   5.004   5.588  11.153  0.8583 -0.2714  0.7717
   83SAPS    HA 7765   4.898   5.567  11.177  0.7463 -3.8967 -2.0201
   83SAPS    HB 7766   5.054   5.662  11.218  1.5463 -2.4738  2.8964
   83SAPS    C2 7767   4.991   5.649  11.013  0.2947  0.4521  0.2739
   83SAPS    HS 7768   4.914   5.728  11.009  0.3005  0.4767  0.6561
   83SAPS   O21 7769   4.971   5.544  10.921  0.5175 -0.1369  0.5441
   83SAPS   C21 7770   4.843   5.513  10.910  0.2936 -0.1493  0.1238
   83SAPS   O22 7771   4.746   5.565  10.965 -0.4364  0.4571  0.0867
   83SAPS   C22 7772   4.821   5.389  10.821 -0.4181 -0.0852 -0.8485
   83SAPS   H2R 7773   4.924   5.353  10.803  0.5430  1.5806  0.9341
   83SAPS   H2S 7774   4.769   5.312  10.881  3.7258 -1.6302  1.1020
   83SAPS    C3 7775   5.126   5.707  10.978  0.5024  0.2990  0.4939
   83SAPS    HX 7776   5.194   5.619  10.977  1.0759  0.7202  1.1837
   83SAPS    HY 7777   5.165   5.781  11.051 -0.9485  1.1704  0.4154
   83SAPS   O31 7778   5.123   5.771  10.848  0.7965 -0.0348 -0.0686
   83SAPS   C31 7779   5.187   5.720  10.751 -0.3190  0.4956 -0.4096
   83SAPS   O32 7780   5.241   5.610  10.748  0.4133 -0.2094 -1.1215
   83SAPS   C32 7781   5.193   5.823  10.639 -0.0519 -0.9820 -0.2358
   83SAPS   H2X 7782   5.255   5.905  10.681 -1.1007 -0.6028  0.6496
   83SAPS   H2Y 7783   5.090   5.860  10.621  0.0833 -1.0450 -1.1638
   83SAPS   C23 7784   4.755   5.422  10.688 -0.1146  0.4143  0.0446
   83SAPS   H3R 7785   4.667   5.485  10.715  0.5187  0.5258  1.9514
   83SAPS   H3S 7786   4.727   5.322  10.650  2.9281 -1.2335  1.7698
   83SAPS   C24 7787   4.846   5.495  10.585 -0.5078 -0.1514  0.6186
   83SAPS   H4R 7788   4.878   5.596  10.617 -0.1124  0.6713 -2.1531
   83SAPS   H4S 7789   4.782   5.523  10.498  0.1950 -0.1973  0.0839
   83SAPS   C25 7790   4.959   5.413  10.526 -0.4957  0.5331  0.2671
   83SAPS   H5R 7791   5.052   5.430  10.582  0.2689 -0.6686 -0.5998
   83SAPS   C26 7792   4.973   5.336  10.416 -0.0204  0.6971  0.3738
   83SAPS   H6R 7793   5.068   5.286  10.394 -1.2874 -1.8135  0.2757
   83SAPS   C27 7794   4.876   5.304  10.302  0.1267 -0.5062 -0.5749
   83SAPS   H7R 7795   4.938   5.322  10.212  1.2096 -1.0904  0.0321
   83SAPS   H7S 7796   4.799   5.383  10.314  1.8137  0.9563  1.4253
   83SAPS   C28 7797   4.802   5.171  10.308  0.0127  0.1217  0.4004
   83SAPS   H8R 7798   4.782   5.122  10.405  3.5336 -1.8042  0.3232
   83SAPS   C29 7799   4.753   5.113  10.198 -0.0477 -0.3275  0.2561
   83SAPS   H9R 7800   4.670   5.041  10.200 -2.6139  2.4103  0.1046
   83SAPS  C210 7801   4.776   5.164  10.054 -0.0480 -0.3016 -0.0362
   83SAPS  H10R 7802   4.840   5.091   9.999 -1.3092 -1.3788 -0.1183
   83SAPS  H10S 7803   4.836   5.257  10.041  1.0537 -1.1803 -1.6830
   83SAPS  C211 7804   4.650   5.186   9.978 -1.2544 -0.0439 -0.3240
   83SAPS  H11R 7805   4.551   5.178  10.025 -0.6888 -2.3307  0.6634
   83SAPS  C212 7806   4.635   5.201   9.852 -0.3664  0.4477  0.3662
   83SAPS  H12R 7807   4.531   5.208   9.817 -0.7666  1.8009  1.7436
   83SAPS  C213 7808   4.737   5.201   9.740 -0.2243 -0.3786  0.6812
   83SAPS  H13R 7809   4.713   5.101   9.697 -1.2705 -0.0526  0.4605
   83SAPS  H13S 7810   4.842   5.183   9.772 -0.1681  0.3097  0.9069
   83SAPS  C214 7811   4.729   5.292   9.619 -0.1025  0.5303 -0.5321
   83SAPS  H14R 7812   4.708   5.238   9.525  0.9193  0.7498 -0.8965
   83SAPS  C215 7813   4.753   5.423   9.624 -0.2926 -0.3794 -0.1801
   83SAPS  H15R 7814   4.721   5.476   9.533 -1.5120  0.6645  0.8099
   83SAPS  C216 7815   4.788   5.529   9.731  0.1737  0.1501 -0.1885
   83SAPS  H16R 7816   4.702   5.570   9.786 -0.3192  0.3425 -1.0815
   83SAPS  H16S 7817   4.834   5.599   9.658  0.9409 -0.3501 -0.1968
   83SAPS  C217 7818   4.896   5.495   9.840 -1.0413  0.4304 -0.2986
   83SAPS  H17R 7819   4.983   5.439   9.799 -1.8611 -1.2824  0.2319
   83SAPS  H17S 7820   4.851   5.421   9.909 -1.2786  1.6518  0.9029
   83SAPS  C218 7821   4.947   5.616   9.923 -0.0825  0.1467  1.3125
   83SAPS  H18R 7822   4.877   5.645  10.003 -0.3308  2.7250  0.2615
   83SAPS  H18S 7823   4.960   5.699   9.850  1.6659 -1.3124 -0.1486
   83SAPS  C219 7824   5.079   5.587   9.998 -0.0436  0.3898 -1.0936
   83SAPS  H19R 7825   5.166   5.615   9.935  0.7139  2.8061  0.8581
   83SAPS  H19S 7826   5.076   5.477  10.010  2.4647  0.1437 -2.0524
   83SAPS  C220 7827   5.075   5.657  10.134 -0.7896  0.7266  0.3051
   83SAPS  H20R 7828   5.062   5.767  10.130 -0.4506  0.8092  1.2611
   83SAPS  H20S 7829   5.175   5.637  10.178 -0.8102 -2.3716 -0.8501
   83SAPS  H20T 7830   4.990   5.622  10.198 -0.6741  0.2497  0.2013
   83SAPS   C33 7831   5.261   5.782  10.511  0.0741 -0.4272  0.5467
   83SAPS   H3X 7832   5.212   5.842  10.431 -0.5114 -0.9876  0.4815
   83SAPS   H3Y 7833   5.235   5.681  10.472 -2.9873  0.5950 -0.3401
   83SAPS   C34 7834   5.410   5.808  10.511 -0.3127 -0.1499  0.7222
   83SAPS   H4X 7835   5.465   5.762  10.596  0.3098  0.2850  0.5562
   83SAPS   H4Y 7836   5.416   5.919  10.511 -1.7104 -0.0510 -0.9276
   83SAPS   C35 7837   5.487   5.775  10.380  0.0028 -0.0074  0.2349
   83SAPS   H5X 7838   5.488   5.664  10.375 -0.8856 -0.0289  0.4792
   83SAPS   H5Y 7839   5.591   5.815  10.385  0.9508 -2.4192  0.8430
   83SAPS   C36 7840   5.422   5.833  10.255 -0.4241 -0.1512  0.3747
   83SAPS   H6X 7841   5.432   5.943  10.264 -2.7836 -0.0878  4.2258
   83SAPS   H6Y 7842   5.314   5.811  10.236 -0.7352  1.3853  0.1933
   83SAPS   C37 7843   5.503   5.802  10.124  0.2318  0.0832 -0.3925
   83SAPS   H7X 7844   5.495   5.692  10.105 -1.6865  0.1271  0.0362
   83SAPS   H7Y 7845   5.609   5.834  10.129 -0.1986  1.4901 -0.0217
   83SAPS   C38 7846   5.448   5.856   9.993 -0.0460 -0.1974  0.4413
   83SAPS   H8X 7847   5.445   5.967   9.999 -1.2035 -0.2721  2.1905
   83SAPS   H8Y 7848   5.343   5.823   9.975 -1.3871  3.7480  0.0125
   83SAPS   C39 7849   5.522   5.806   9.873  0.4216 -0.1358  0.3306
   83SAPS   H9X 7850   5.488   5.705   9.841 -1.8802  0.5161  0.5066
   83SAPS   H9Y 7851   5.631   5.813   9.892  0.6589 -0.7361 -0.7496
   83SAPS  C310 7852   5.475   5.891   9.750 -0.2204  0.1670 -0.4026
   83SAPS  H10X 7853   5.471   5.999   9.777 -0.1005  0.3758 -1.2009
   83SAPS  H10Y 7854   5.368   5.880   9.721 -0.7408  1.9139  0.6883
   83SAPS  C311 7855   5.558   5.861   9.629  0.2199 -1.0241  0.4124
   83SAPS  H11X 7856   5.563   5.751   9.615 -1.4684 -1.1117  0.2455
   83SAPS  H11Y 7857   5.661   5.899   9.648 -0.3166  1.2792 -0.8973
   83SAPS  C312 7858   5.506   5.918   9.498 -0.5613  0.2849 -0.3599
   83SAPS  H12X 7859   5.492   6.028   9.509 -0.2511  0.3212 -0.3233
   83SAPS  H12Y 7860   5.401   5.883   9.483 -0.1201 -0.7150 -1.1952
   83SAPS  C313 7861   5.603   5.884   9.379 -0.3630 -0.5734  0.7669
   83SAPS  H13X 7862   5.620   5.776   9.359 -2.0148 -0.9984  1.5570
   83SAPS  H13Y 7863   5.697   5.934   9.412 -0.6172  0.4717 -0.0379
   83SAPS  C314 7864   5.555   5.949   9.250 -0.3471 -0.6404  0.1679
   83SAPS  H14X 7865   5.637   5.989   9.187 -1.4330 -0.5366 -1.2412
   83SAPS  H14Y 7866   5.505   6.045   9.278  0.0931 -0.3426 -0.0510
   83SAPS  C315 7867   5.466   5.852   9.163  0.6918  0.0672  0.5279
   83SAPS  H15X 7868   5.455   5.754   9.215  1.6985 -0.8256 -0.8963
   83SAPS  H15Y 7869   5.544   5.828   9.088  0.6737 -0.3834  0.6510
   83SAPS  C316 7870   5.335   5.920   9.123 -1.1498  0.0738  0.8201
   83SAPS  H16X 7871   5.309   5.860   9.033 -0.8429  2.0328 -0.6189
   83SAPS  H16Y 7872   5.361   6.020   9.084  1.8158 -1.3918 -1.3611
   83SAPS  C317 7873   5.218   5.918   9.219  0.1156  0.0679  0.8743
   83SAPS  H17X 7874   5.251   5.973   9.310  0.3703  2.4070 -0.5579
   83SAPS  H17Y 7875   5.190   5.812   9.240 -1.0806  0.2151  0.0712
   83SAPS  C318 7876   5.076   5.970   9.175 -0.2106  0.4226 -0.0754
   83SAPS  H18X 7877   5.022   5.995   9.268  1.5027  1.8904  0.5863
   83SAPS  H18Y 7878   5.013   5.901   9.114 -2.6958  2.5611 -0.0972
   83SAPS  H18Z 7879   5.098   6.057   9.110 -0.0574 -0.8148 -1.7577
   84SAPS     N 7880   0.483   0.234  11.252  0.3322 -0.0101  0.1314
   84SAPS   HN1 7881   0.452   0.323  11.296 -2.7256 -0.4020 -0.9798
   84SAPS   HN2 7882   0.400   0.215  11.192 -1.1179 -0.1109  2.0596
   84SAPS   HN3 7883   0.499   0.166  11.329  1.0624  0.4185  0.3601
   84SAPS   C12 7884   0.606   0.255  11.170 -0.4427 -0.1594 -0.3592
   84SAPS  H12A 7885   0.583   0.293  11.072 -0.8105  0.8000  0.0845
   84SAPS   C13 7886   0.685   0.372  11.232  0.0451  0.0992  0.1880
   84SAPS  O13A 7887   0.648   0.424  11.341  0.2026 -0.5733  0.6458
   84SAPS  O13B 7888   0.791   0.407  11.168  0.1216  0.2651 -0.3880
   84SAPS   C11 7889   0.687   0.119  11.182  0.3593  0.0298  0.4899
   84SAPS  H11A 7890   0.706   0.102  11.290  1.6350  2.5501  0.7366
   84SAPS  H11B 7891   0.787   0.135  11.137 -0.4673 -1.3234 -1.9836
   84SAPS     P 7892   0.645  -0.134  11.112  0.0549 -0.2962  0.2912
   84SAPS   O13 7893   0.662  -0.179  11.253  0.2045 -0.4495  0.0922
   84SAPS   O14 7894   0.549  -0.212  11.033 -0.1658 -0.8860  0.1347
   84SAPS   O12 7895   0.607   0.021  11.113 -0.3234 -0.3374 -0.3550
   84SAPS   O11 7896   0.786  -0.148  11.048 -0.4909 -0.5513  0.3910
   84SAPS    C1 7897   0.809  -0.093  10.915 -0.0221  0.3810  0.3563
   84SAPS    HA 7898   0.756   0.003  10.902  0.5190  0.5772 -0.4967
   84SAPS    HB 7899   0.919  -0.077  10.912  0.5844 -3.0537 -1.5828
   84SAPS    C2 7900   0.761  -0.192  10.805 -0.3962 -0.2715 -0.8428
   84SAPS    HS 7901   0.652  -0.203  10.817 -0.3191 -1.0512 -0.8435
   84SAPS   O21 7902   0.840  -0.314  10.825  0.3396  1.1441 -0.1547
   84SAPS   C21 7903   0.773  -0.416  10.789  0.3031  0.9274 -0.5757
   84SAPS   O22 7904   0.666  -0.427  10.732 -0.4928 -0.0148 -0.0785
   84SAPS   C22 7905   0.847  -0.539  10.838  0.0953  0.6319 -0.2661
   84SAPS   H2R 7906   0.930  -0.572  10.772 -0.3832  0.7304 -0.9286
   84SAPS   H2S 7907   0.886  -0.506  10.937 -0.7863  2.2154 -0.4122
   84SAPS    C3 7908   0.797  -0.130  10.673  0.4983 -0.1628  0.7098
   84SAPS    HX 7909   0.907  -0.115  10.663  0.3242  0.4763 -0.4461
   84SAPS    HY 7910   0.751  -0.029  10.672  0.9503  0.0869  2.2962
   84SAPS   O31 7911   0.747  -0.202  10.562  0.0301  0.2162 -0.0742
   84SAPS   C31 7912   0.624  -0.175  10.521 -0.1740  0.1735  0.1064
   84SAPS   O32 7913   0.540  -0.112  10.580 -0.3367 -0.5189 -0.4653
   84SAPS   C32 7914   0.599  -0.250  10.382  0.0644 -0.0945 -0.3780
   84SAPS   H2X 7915   0.640  -0.353  10.392  0.2753 -0.1403 -1.5135
   84SAPS   H2Y 7916   0.668  -0.203  10.308 -1.4159 -0.3771 -1.9984
   84SAPS   C23 7917   0.752  -0.656  10.872  0.3159 -0.1207  0.1436
   84SAPS   H3R 7918   0.658  -0.645  10.814  0.0475  0.8005  0.7350
   84SAPS   H3S 7919   0.732  -0.665  10.981  0.9914 -0.3660  0.2496
   84SAPS   C24 7920   0.819  -0.794  10.848 -0.4540 -0.2050  0.0793
   84SAPS   H4R 7921   0.751  -0.860  10.905 -0.0599 -0.4805  0.2309
   84SAPS   H4S 7922   0.919  -0.785  10.896 -0.5916  1.0906  0.1496
   84SAPS   C25 7923   0.822  -0.841  10.701 -0.0107 -0.5795  0.1298
   84SAPS   H5R 7924   0.722  -0.862  10.659 -0.3738 -0.2927  0.8348
   84SAPS   C26 7925   0.924  -0.883  10.634 -0.5602  0.2929 -0.3489
   84SAPS   H6R 7926   0.901  -0.920  10.532 -0.4090 -0.4539 -0.1231
   84SAPS   C27 7927   1.068  -0.903  10.684  0.1908 -1.0081 -0.1508
   84SAPS   H7R 7928   1.106  -1.006  10.665  2.2737 -0.3143  0.0503
   84SAPS   H7S 7929   1.073  -0.890  10.795 -0.2783  2.3773 -0.4169
   84SAPS   C28 7930   1.162  -0.810  10.618  0.4676  1.1579  0.1219
   84SAPS   H8R 7931   1.186  -0.720  10.676  5.6810  0.1657 -0.0053
   84SAPS   C29 7932   1.221  -0.827  10.499 -0.8059  0.2557  0.0296
   84SAPS   H9R 7933   1.275  -0.741  10.456 -1.5738 -0.1004 -1.7403
   84SAPS  C210 7934   1.217  -0.951  10.406 -0.5060  0.5255  0.3616
   84SAPS  H10R 7935   1.180  -0.922  10.305  0.4532 -1.0069 -0.4677
   84SAPS  H10S 7936   1.143  -1.027  10.438  0.5586  0.2377  2.2476
   84SAPS  C211 7937   1.360  -1.002  10.397  0.2668 -0.4504 -0.7014
   84SAPS  H11R 7938   1.409  -1.031  10.491  0.4162 -0.3063 -0.7368
   84SAPS  C212 7939   1.439  -1.009  10.285 -0.1369 -0.0344 -0.3244
   84SAPS  H12R 7940   1.548  -1.019  10.294  0.1535  2.3080 -0.6324
   84SAPS  C213 7941   1.402  -0.960  10.147 -0.0225  0.4312  0.2969
   84SAPS  H13R 7942   1.325  -0.880  10.160  1.3705  1.8634  0.0567
   84SAPS  H13S 7943   1.361  -1.044  10.087  0.9692  0.2316 -0.1160
   84SAPS  C214 7944   1.519  -0.889  10.084 -0.1275  0.0064  0.9144
   84SAPS  H14R 7945   1.596  -0.861  10.158  0.5091 -0.7279  0.5472
   84SAPS  C215 7946   1.547  -0.874   9.953  0.1806 -0.2441  0.3721
   84SAPS  H15R 7947   1.627  -0.801   9.932  0.5037 -1.3712 -2.9336
   84SAPS  C216 7948   1.482  -0.920   9.825  0.3891  0.5581  0.5709
   84SAPS  H16R 7949   1.467  -0.844   9.744  3.1456  2.0178  1.3023
   84SAPS  H16S 7950   1.375  -0.936   9.852  0.9212 -0.3564  2.2354
   84SAPS  C217 7951   1.548  -1.044   9.751  0.5941 -0.8429  0.8692
   84SAPS  H17R 7952   1.489  -1.088   9.668  1.8748 -0.7626 -0.1001
   84SAPS  H17S 7953   1.558  -1.118   9.834  3.2322 -0.1265  1.2753
   84SAPS  C218 7954   1.684  -1.013   9.690  0.3080  0.3992  0.4984
   84SAPS  H18R 7955   1.742  -0.980   9.779 -0.7165  1.6905  0.7040
   84SAPS  H18S 7956   1.666  -0.927   9.623  2.9038  1.5160  1.1225
   84SAPS  C219 7957   1.740  -1.130   9.608  0.1227  0.2724  0.0808
   84SAPS  H19R 7958   1.664  -1.144   9.528 -0.2633  1.6889  0.1820
   84SAPS  H19S 7959   1.741  -1.225   9.666 -1.9498  0.2578  0.1500
   84SAPS  C220 7960   1.877  -1.100   9.550  0.4815  0.3759 -0.1992
   84SAPS  H20R 7961   1.903  -1.184   9.482  0.5657 -0.4981  0.8968
   84SAPS  H20S 7962   1.943  -1.109   9.639 -0.1437 -1.7219  0.1113
   84SAPS  H20T 7963   1.879  -1.002   9.498 -0.7223  1.1455  1.1653
   84SAPS   C33 7964   0.459  -0.234  10.332  0.0943  0.9245 -0.4416
   84SAPS   H3X 7965   0.437  -0.126  10.344 -1.1259  0.7614 -1.0685
   84SAPS   H3Y 7966   0.385  -0.287  10.396  2.6843 -1.3040  0.9166
   84SAPS   C34 7967   0.436  -0.281  10.190 -0.5625  0.3638 -0.0649
   84SAPS   H4X 7968   0.337  -0.247  10.154 -0.7665 -1.1985 -1.1000
   84SAPS   H4Y 7969   0.442  -0.392  10.181  1.1215  0.5025 -1.1395
   84SAPS   C35 7970   0.538  -0.214  10.092 -0.3510  0.0735  0.4126
   84SAPS   H5X 7971   0.634  -0.270  10.104 -0.5566 -0.9123 -1.9729
   84SAPS   H5Y 7972   0.534  -0.105  10.112 -3.2540  0.1325 -0.1154
   84SAPS   C36 7973   0.489  -0.250   9.949  0.5246 -0.4638 -0.8531
   84SAPS   H6X 7974   0.379  -0.237   9.942  0.4681 -0.2719  0.2824
   84SAPS   H6Y 7975   0.503  -0.359   9.927  2.1914 -0.6072  0.6571
   84SAPS   C37 7976   0.560  -0.162   9.853 -0.8077  0.1465 -0.2296
   84SAPS   H7X 7977   0.669  -0.183   9.860 -0.4805  2.2428  3.0577
   84SAPS   H7Y 7978   0.542  -0.056   9.880  1.2225  0.3737  0.4429
   84SAPS   C38 7979   0.520  -0.194   9.711  0.3695 -1.0247 -0.1455
   84SAPS   H8X 7980   0.410  -0.182   9.703  0.5065 -0.5909 -1.4790
   84SAPS   H8Y 7981   0.540  -0.297   9.673 -0.6748 -0.5902 -2.0029
   84SAPS   C39 7982   0.584  -0.101   9.610 -0.6301 -0.1834  0.1047
   84SAPS   H9X 7983   0.690  -0.096   9.644 -0.1572 -0.7574 -1.2111
   84SAPS   H9Y 7984   0.547   0.002   9.628 -3.7491 -1.0766 -0.6183
   84SAPS  C310 7985   0.563  -0.143   9.463  0.0227 -0.6332 -0.7518
   84SAPS  H10X 7986   0.455  -0.143   9.437 -0.6034  0.3345  1.5908
   84SAPS  H10Y 7987   0.604  -0.245   9.446 -0.5052 -0.6909 -1.7651
   84SAPS  C311 7988   0.635  -0.047   9.374 -0.5116  0.3084  0.0190
   84SAPS  H11X 7989   0.745  -0.035   9.377 -0.4075  0.0591 -1.8459
   84SAPS  H11Y 7990   0.582   0.051   9.372 -0.6117  0.2486 -1.8543
   84SAPS  C312 7991   0.614  -0.077   9.217 -0.0186  0.0430 -0.1400
   84SAPS  H12X 7992   0.504  -0.075   9.204 -0.5719 -0.3580  3.3336
   84SAPS  H12Y 7993   0.650  -0.181   9.201  0.2580  0.1819 -0.4318
   84SAPS  C313 7994   0.678   0.021   9.125  0.2353 -0.3028 -0.2339
   84SAPS  H13X 7995   0.781   0.045   9.160 -0.6374 -0.3214  2.5799
   84SAPS  H13Y 7996   0.615   0.109   9.146 -2.3267 -2.2993  0.9416
   84SAPS  C314 7997   0.678  -0.009   8.976  0.4350  0.2016 -0.0798
   84SAPS  H14X 7998   0.573  -0.010   8.940  0.0263  1.0237  1.0475
   84SAPS  H14Y 7999   0.728  -0.108   8.966 -1.9911 -1.2740  1.3194
   84SAPS  C315 8000   0.746   0.099   8.894  0.6128  0.1727 -0.0150
   84SAPS  H15X 8001   0.857   0.086   8.900  0.5046 -0.4147  1.0171
   84SAPS  H15Y 8002   0.704   0.193   8.934 -1.8514 -1.4403  1.4822
   84SAPS  C316 8003   0.713   0.087   8.751  0.4002 -0.0361  0.6253
   84SAPS  H16X 8004   0.607   0.117   8.737  0.0919 -1.7986 -1.3445
   84SAPS  H16Y 8005   0.720  -0.014   8.705 -1.4691  1.1655 -2.6594
   84SAPS  C317 8006   0.804   0.179   8.667  0.0272 -0.0608 -0.2185
   84SAPS  H17X 8007   0.847   0.260   8.731  0.4637  0.1278 -0.7431
   84SAPS  H17Y 8008   0.739   0.226   8.591 -1.8164 -1.3423  0.4963
   84SAPS  C318 8009   0.921   0.111   8.597 -0.2144 -0.2061  0.1988
   84SAPS  H18X 8010   0.986   0.070   8.678 -1.5676 -2.5390  0.1944
   84SAPS  H18Y 8011   0.984   0.186   8.545  0.7646 -0.5451  0.8604
   84SAPS  H18Z 8012   0.898   0.022   8.534  0.8650 -1.9269  2.1066
   85SAPS     N 8013   1.922   2.236  11.148 -0.3335  0.1381  0.0063
   85SAPS   HN1 8014   1.922   2.160  11.078  1.0115  0.9739 -0.9473
   85SAPS   HN2 8015   2.004   2.298  11.131  0.0622 -0.5779 -0.7436
   85SAPS   HN3 8016   1.930   2.192  11.242 -1.5272  1.0637  0.5742
   85SAPS   C12 8017   1.810   2.319  11.122 -0.0671  0.5203  0.9789
   85SAPS  H12A 8018   1.731   2.248  11.138  1.4708 -1.7491 -0.8664
   85SAPS   C13 8019   1.790   2.449  11.209 -0.6483  0.0994 -0.0276
   85SAPS  O13A 8020   1.874   2.474  11.301 -0.7091 -0.2567  0.2445
   85SAPS  O13B 8021   1.701   2.529  11.186 -0.1156 -0.1947 -0.3458
   85SAPS   C11 8022   1.799   2.358  10.973 -0.4328 -0.0687  0.3994
   85SAPS  H11A 8023   1.870   2.443  10.963 -0.8333  0.3072  0.7271
   85SAPS  H11B 8024   1.701   2.407  10.954 -0.0712 -0.1024 -1.8377
   85SAPS     P 8025   1.723   2.173  10.804  0.1658 -0.1374 -0.1802
   85SAPS   O13 8026   1.792   2.080  10.716  0.4440  0.4311 -0.4834
   85SAPS   O14 8027   1.634   2.121  10.906  0.3474 -0.7488 -0.0462
   85SAPS   O12 8028   1.836   2.253  10.876  0.3459 -0.2818 -0.0989
   85SAPS   O11 8029   1.658   2.287  10.714  0.4683 -0.6665 -0.6632
   85SAPS    C1 8030   1.739   2.356  10.620  0.2693 -0.3731  0.4140
   85SAPS    HA 8031   1.711   2.463  10.621  1.0405 -0.1083 -1.3356
   85SAPS    HB 8032   1.849   2.342  10.633  0.7128  0.9114 -1.5045
   85SAPS    C2 8033   1.703   2.329  10.472 -0.8183 -0.5331 -0.6762
   85SAPS    HS 8034   1.741   2.421  10.422 -0.7641  0.0194  0.3604
   85SAPS   O21 8035   1.561   2.317  10.460 -0.1529 -0.1339  0.4262
   85SAPS   C21 8036   1.498   2.434  10.450  1.0986 -0.3668  0.5819
   85SAPS   O22 8037   1.547   2.540  10.483 -0.1152  0.3493  0.0323
   85SAPS   C22 8038   1.365   2.407  10.382  0.8367  0.2164  0.2141
   85SAPS   H2R 8039   1.385   2.361  10.283 -0.3207 -0.7977  0.4194
   85SAPS   H2S 8040   1.311   2.327  10.438  0.7383  0.3747  0.3456
   85SAPS    C3 8041   1.765   2.200  10.423 -0.0667 -0.4692 -0.6140
   85SAPS    HX 8042   1.706   2.119  10.471  0.6710 -1.6195 -1.5808
   85SAPS    HY 8043   1.867   2.184  10.464 -0.6149  0.0097  0.9958
   85SAPS   O31 8044   1.774   2.182  10.280 -0.2863  0.1137  0.5718
   85SAPS   C31 8045   1.657   2.146  10.218 -0.5423  0.1555  0.1885
   85SAPS   O32 8046   1.558   2.109  10.276  0.3157 -0.0352  0.1300
   85SAPS   C32 8047   1.667   2.173  10.065 -0.8326  0.2153 -0.1094
   85SAPS   H2X 8048   1.734   2.095  10.025 -0.4923  0.1338  0.6076
   85SAPS   H2Y 8049   1.723   2.269  10.057 -0.6325  0.2615  1.4710
   85SAPS   C23 8050   1.277   2.538  10.363 -0.4060  0.1826 -0.2276
   85SAPS   H3R 8051   1.287   2.600  10.455 -0.5695 -1.6039  1.0328
   85SAPS   H3S 8052   1.175   2.496  10.372 -0.9159  0.0960 -4.4402
   85SAPS   C24 8053   1.300   2.604  10.221 -0.6803 -0.6091  0.0659
   85SAPS   H4R 8054   1.231   2.690  10.207 -0.7400 -0.6769 -0.0487
   85SAPS   H4S 8055   1.263   2.534  10.143 -2.1282  0.4142 -0.2084
   85SAPS   C25 8056   1.437   2.650  10.185  0.1549 -0.0931  0.2580
   85SAPS   H5R 8057   1.496   2.687  10.270 -0.8846  1.6146  0.2866
   85SAPS   C26 8058   1.490   2.659  10.057  0.0550 -0.3264 -1.0563
   85SAPS   H6R 8059   1.587   2.709  10.046  1.1038 -2.1274 -0.5261
   85SAPS   C27 8060   1.422   2.615   9.932  0.6034 -0.0058 -0.3761
   85SAPS   H7R 8061   1.356   2.530   9.958 -2.5366  2.0332 -1.1722
   85SAPS   H7S 8062   1.490   2.578   9.852  0.5701 -1.8558  0.3941
   85SAPS   C28 8063   1.333   2.727   9.874 -1.1540  0.0178 -0.2784
   85SAPS   H8R 8064   1.245   2.753   9.936  1.0041  1.2260  2.5046
   85SAPS   C29 8065   1.356   2.795   9.765 -0.1937 -0.0485  0.4905
   85SAPS   H9R 8066   1.280   2.870   9.737  1.7893  1.7343 -0.3717
   85SAPS  C210 8067   1.473   2.784   9.664 -0.2716 -0.3825 -0.0816
   85SAPS  H10R 8068   1.438   2.714   9.586 -0.9989  0.0492 -0.1543
   85SAPS  H10S 8069   1.568   2.747   9.708 -2.0547 -4.1358  0.9940
   85SAPS  C211 8070   1.494   2.926   9.610  0.2680  0.7107 -0.5800
   85SAPS  H11R 8071   1.492   3.004   9.688  1.4649  0.2332 -0.0558
   85SAPS  C212 8072   1.520   2.978   9.488  0.4546 -0.2308  0.5597
   85SAPS  H12R 8073   1.530   3.088   9.486 -1.7608  0.0182  0.3250
   85SAPS  C213 8074   1.543   2.911   9.355 -0.6970  0.0690  0.0519
   85SAPS  H13R 8075   1.453   2.853   9.324  0.4211 -1.2730 -0.8239
   85SAPS  H13S 8076   1.625   2.838   9.373 -1.6018 -0.7190  1.1478
   85SAPS  C214 8077   1.580   2.998   9.240  0.3081  0.1513  0.5736
   85SAPS  H14R 8078   1.599   3.105   9.258  0.6559 -0.0446  1.4211
   85SAPS  C215 8079   1.583   2.966   9.114 -0.4630 -0.5156 -0.1060
   85SAPS  H15R 8080   1.608   3.047   9.044 -0.9303 -0.8331 -0.6473
   85SAPS  C216 8081   1.554   2.836   9.046 -0.9141  0.2510 -0.2497
   85SAPS  H16R 8082   1.497   2.775   9.119  1.3857 -0.0211  1.4530
   85SAPS  H16S 8083   1.650   2.782   9.027  0.2330  1.3667  1.9686
   85SAPS  C217 8084   1.483   2.855   8.910  0.3850  0.0505 -0.3875
   85SAPS  H17R 8085   1.416   2.942   8.925  2.9837  2.1904 -0.3090
   85SAPS  H17S 8086   1.424   2.764   8.886 -0.8789  1.2640 -2.0851
   85SAPS  C218 8087   1.578   2.890   8.799 -0.0638 -0.2283  0.4085
   85SAPS  H18R 8088   1.611   2.793   8.755 -0.3944 -0.0110 -0.3379
   85SAPS  H18S 8089   1.664   2.942   8.846  0.2413 -1.4571  1.2949
   85SAPS  C219 8090   1.505   2.975   8.701  0.5250  0.3851 -0.0556
   85SAPS  H19R 8091   1.470   3.062   8.760  0.3018 -1.0334  2.0280
   85SAPS  H19S 8092   1.422   2.908   8.672 -0.8208  1.6380  0.8019
   85SAPS  C220 8093   1.590   3.015   8.582 -0.5178  0.6093 -0.1689
   85SAPS  H20R 8094   1.687   3.053   8.621 -0.6431  1.3094 -0.5348
   85SAPS  H20S 8095   1.536   3.083   8.514 -0.8123  1.7131  1.1240
   85SAPS  H20T 8096   1.606   2.918   8.530 -0.0082  0.2499  0.6242
   85SAPS   C33 8097   1.545   2.192   9.979 -0.0702 -0.2445  0.4616
   85SAPS   H3X 8098   1.463   2.245  10.033  0.9288  1.9498 -0.0483
   85SAPS   H3Y 8099   1.505   2.095   9.942 -1.9930 -0.0156  1.7827
   85SAPS   C34 8100   1.575   2.276   9.846 -0.2877 -0.4389  0.0129
   85SAPS   H4X 8101   1.666   2.240   9.794  0.4471  0.8100  0.3817
   85SAPS   H4Y 8102   1.614   2.373   9.885  0.5976 -0.9959  0.5475
   85SAPS   C35 8103   1.467   2.292   9.748  0.4949 -0.1945  0.4306
   85SAPS   H5X 8104   1.385   2.358   9.784 -0.2395 -0.8295 -0.0439
   85SAPS   H5Y 8105   1.417   2.194   9.732  0.2415 -0.3074  1.7733
   85SAPS   C36 8106   1.528   2.341   9.607  0.6571  0.3277 -1.0367
   85SAPS   H6X 8107   1.565   2.258   9.543  0.1191 -0.9377  0.2370
   85SAPS   H6Y 8108   1.597   2.427   9.619  1.0589  0.2583 -2.6430
   85SAPS   C37 8109   1.410   2.390   9.513 -0.5259 -0.2416  0.2235
   85SAPS   H7X 8110   1.340   2.444   9.580 -1.4611 -1.4436  0.2511
   85SAPS   H7Y 8111   1.353   2.301   9.479 -0.0738 -0.2354 -0.5555
   85SAPS   C38 8112   1.460   2.483   9.402 -0.0602  0.6538  0.0406
   85SAPS   H8X 8113   1.543   2.435   9.346 -0.6504 -0.3210 -0.0273
   85SAPS   H8Y 8114   1.509   2.569   9.452 -0.4936 -0.6085  2.8720
   85SAPS   C39 8115   1.349   2.521   9.309 -0.5699 -0.5961 -0.2765
   85SAPS   H9X 8116   1.382   2.608   9.248  2.2878  0.3339  2.3637
   85SAPS   H9Y 8117   1.258   2.559   9.360 -1.5458 -0.7459 -1.8066
   85SAPS  C310 8118   1.305   2.398   9.224 -1.0259  0.3787 -0.2015
   85SAPS  H10X 8119   1.256   2.320   9.286  0.6123 -1.5757 -1.2340
   85SAPS  H10Y 8120   1.394   2.347   9.183  1.2268  3.0953  0.9328
   85SAPS  C311 8121   1.208   2.453   9.119 -0.5468 -0.2418  0.5632
   85SAPS  H11X 8122   1.261   2.507   9.037  1.9949 -0.2437  2.1005
   85SAPS  H11Y 8123   1.147   2.529   9.173  0.9476  1.7977 -0.4467
   85SAPS  C312 8124   1.116   2.343   9.063  0.4301 -0.0433 -0.2557
   85SAPS  H12X 8125   1.060   2.293   9.145  1.5748  1.5469  1.5792
   85SAPS  H12Y 8126   1.179   2.261   9.022  1.5014  0.7938 -0.3216
   85SAPS  C313 8127   1.039   2.392   8.942 -0.0467  0.0454  0.3771
   85SAPS  H13X 8128   1.037   2.503   8.946  1.2843  0.1446 -0.8288
   85SAPS  H13Y 8129   0.931   2.366   8.947 -0.3940  1.1764 -0.9276
   85SAPS  C314 8130   1.101   2.343   8.809 -0.2240  0.8935  0.1797
   85SAPS  H14X 8131   1.068   2.238   8.793 -0.9593  0.9577  1.1844
   85SAPS  H14Y 8132   1.210   2.356   8.824 -0.4333  2.8554  0.2420
   85SAPS  C315 8133   1.053   2.419   8.682  0.1626  0.5428  0.0986
   85SAPS  H15X 8134   1.077   2.527   8.695 -0.2029  1.1487 -3.2620
   85SAPS  H15Y 8135   0.944   2.401   8.685  0.1690  0.1884 -1.3327
   85SAPS  C316 8136   1.120   2.367   8.554  0.2819 -0.2162 -0.0409
   85SAPS  H16X 8137   1.075   2.422   8.469 -1.0763  3.5574  2.8762
   85SAPS  H16Y 8138   1.101   2.258   8.545 -0.7035 -0.0568  0.0930
   85SAPS  C317 8139   1.267   2.391   8.559  0.1125 -0.2542 -0.1303
   85SAPS  H17X 8140   1.317   2.343   8.646  1.6582 -1.4236 -1.6015
   85SAPS  H17Y 8141   1.281   2.500   8.575  0.4171 -0.1150 -1.2755
   85SAPS  C318 8142   1.330   2.344   8.420  0.0439  0.6360 -0.7545
   85SAPS  H18X 8143   1.311   2.237   8.397  1.4974  0.3813 -0.8898
   85SAPS  H18Y 8144   1.439   2.363   8.427  0.0099  0.3688  0.7923
   85SAPS  H18Z 8145   1.293   2.416   8.343 -0.2890  0.8980 -0.3519
   86SAPS     N 8146   4.263   0.480  11.268 -0.8807  0.2256 -0.2613
   86SAPS   HN1 8147   4.271   0.384  11.306  1.0809  0.1552 -0.7570
   86SAPS   HN2 8148   4.166   0.492  11.231 -0.8748 -1.2827 -0.8211
   86SAPS   HN3 8149   4.334   0.492  11.193  1.5028  0.6687  1.9585
   86SAPS   C12 8150   4.282   0.572  11.378  0.5925 -0.7771  0.6135
   86SAPS  H12A 8151   4.205   0.555  11.452  1.1385 -0.4637  1.2634
   86SAPS   C13 8152   4.422   0.582  11.447 -0.4766  0.3179  0.9326
   86SAPS  O13A 8153   4.507   0.493  11.408 -0.4041 -0.4102 -0.4705
   86SAPS  O13B 8154   4.435   0.656  11.546 -0.0682 -0.1698  0.4494
   86SAPS   C11 8155   4.254   0.716  11.312 -0.7955 -0.4624 -0.4267
   86SAPS  H11A 8156   4.342   0.748  11.253 -0.5592 -0.8513 -0.2854
   86SAPS  H11B 8157   4.247   0.788  11.396 -0.9140  0.0727 -0.8870
   86SAPS     P 8158   4.119   0.840  11.127 -0.0232 -0.1289 -0.4040
   86SAPS   O13 8159   3.977   0.897  11.133 -0.6514 -0.4612  0.3087
   86SAPS   O14 8160   4.224   0.938  11.135 -0.2242  0.3888  0.3289
   86SAPS   O12 8161   4.139   0.721  11.233 -0.3571 -0.3526  0.0304
   86SAPS   O11 8162   4.134   0.777  10.982  0.1472  0.0735 -0.0494
   86SAPS    C1 8163   4.261   0.789  10.918  0.9778  0.0006  0.1919
   86SAPS    HA 8164   4.275   0.894  10.885 -1.6523  1.4099  3.0574
   86SAPS    HB 8165   4.338   0.752  10.988  0.2514 -1.0010  0.4866
   86SAPS    C2 8166   4.253   0.707  10.788  0.3079  0.4145 -0.7021
   86SAPS    HS 8167   4.360   0.690  10.762  0.0258  0.4208 -1.9732
   86SAPS   O21 8168   4.180   0.778  10.684  0.0781 -0.2144  0.1333
   86SAPS   C21 8169   4.231   0.784  10.574  0.5301 -0.3616  0.0136
   86SAPS   O22 8170   4.336   0.731  10.537 -0.3124 -0.6097 -0.0583
   86SAPS   C22 8171   4.153   0.866  10.475 -0.1226 -0.0370  0.1110
   86SAPS   H2R 8172   4.046   0.844  10.494 -0.1496  1.6477  2.1973
   86SAPS   H2S 8173   4.180   0.971  10.497  0.0133 -0.5013  2.3495
   86SAPS    C3 8174   4.182   0.571  10.812 -0.1272 -0.0422  0.5342
   86SAPS    HX 8175   4.072   0.581  10.830 -0.6475 -1.5645 -1.4281
   86SAPS    HY 8176   4.228   0.528  10.903  0.1786 -1.3767 -0.2276
   86SAPS   O31 8177   4.208   0.479  10.701 -0.3777 -0.4512  0.1176
   86SAPS   C31 8178   4.100   0.465  10.617  0.0685 -0.4750 -0.1915
   86SAPS   O32 8179   3.994   0.532  10.630 -0.5503  0.2040  0.7772
   86SAPS   C32 8180   4.141   0.371  10.504  0.8067 -0.1605  0.3427
   86SAPS   H2X 8181   4.177   0.272  10.540  1.4880  0.6384  1.9584
   86SAPS   H2Y 8182   4.222   0.420  10.446 -1.4658  1.9418 -1.2815
   86SAPS   C23 8183   4.189   0.836  10.328 -0.2556  0.4887  0.1926
   86SAPS   H3R 8184   4.300   0.836  10.318 -0.1851 -0.4578  0.8292
   86SAPS   H3S 8185   4.148   0.913  10.260  0.8024  0.8288 -0.0816
   86SAPS   C24 8186   4.136   0.700  10.279  0.3252  0.0828  0.3109
   86SAPS   H4R 8187   4.143   0.630  10.365 -1.3154  0.1432  0.5377
   86SAPS   H4S 8188   4.210   0.659  10.207  0.7764  2.2334 -0.5003
   86SAPS   C25 8189   3.997   0.709  10.212  0.1294 -0.0145 -0.8205
   86SAPS   H5R 8190   3.921   0.736  10.286 -0.8827 -0.2977 -1.7284
   86SAPS   C26 8191   3.958   0.692  10.085 -0.2267  0.0257  0.0975
   86SAPS   H6R 8192   3.849   0.688  10.068 -0.2564  1.5517 -0.2432
   86SAPS   C27 8193   4.043   0.654   9.968  0.7121 -0.0104 -0.2749
   86SAPS   H7R 8194   4.153   0.660   9.983  0.7585 -1.5463  0.1377
   86SAPS   H7S 8195   4.029   0.739   9.897  3.2644  0.4338 -0.3246
   86SAPS   C28 8196   4.015   0.528   9.893 -0.2241  0.3165 -0.2055
   86SAPS   H8R 8197   4.021   0.433   9.949  0.4141  0.8383  0.6415
   86SAPS   C29 8198   3.986   0.514   9.764  0.0486  0.1321  0.1415
   86SAPS   H9R 8199   3.960   0.412   9.731  0.9851 -0.3377  0.8245
   86SAPS  C210 8200   3.959   0.634   9.670  0.4103  0.0825 -0.1300
   86SAPS  H10R 8201   4.047   0.700   9.658 -1.0810  1.8285 -2.0501
   86SAPS  H10S 8202   3.882   0.690   9.727 -1.6042 -2.4889 -0.1284
   86SAPS  C211 8203   3.906   0.604   9.534 -0.3732  0.5496  0.2141
   86SAPS  H11R 8204   3.813   0.655   9.506 -0.1231  1.4609  1.0003
   86SAPS  C212 8205   3.967   0.537   9.432  0.7949 -0.1307 -0.1246
   86SAPS  H12R 8206   3.902   0.529   9.343 -1.1250  1.0049  1.1045
   86SAPS  C213 8207   4.097   0.465   9.437 -0.4818 -0.0107  0.2074
   86SAPS  H13R 8208   4.157   0.471   9.530 -1.6947 -0.7110  1.0623
   86SAPS  H13S 8209   4.169   0.503   9.362  0.2561  0.2467  1.0328
   86SAPS  C214 8210   4.083   0.322   9.432  0.3360  0.2430 -0.4588
   86SAPS  H14R 8211   4.083   0.282   9.534 -2.2018  0.4362 -0.3343
   86SAPS  C215 8212   4.060   0.242   9.326 -0.1591 -0.2545 -0.1120
   86SAPS  H15R 8213   4.072   0.134   9.343  1.6627  0.1122  1.3242
   86SAPS  C216 8214   4.051   0.286   9.181  0.0765 -0.0092 -0.2323
   86SAPS  H16R 8215   4.055   0.397   9.173 -1.6468  0.1571  0.8679
   86SAPS  H16S 8216   3.957   0.262   9.127 -0.6043  1.1196  0.4074
   86SAPS  C217 8217   4.163   0.233   9.091  0.4615 -0.2275 -0.4350
   86SAPS  H17R 8218   4.170   0.271   8.987  3.8891 -0.1118 -0.2565
   86SAPS  H17S 8219   4.153   0.123   9.088 -0.8394 -0.1174 -0.7941
   86SAPS  C218 8220   4.301   0.273   9.145 -0.2612  0.0090 -0.4481
   86SAPS  H18R 8221   4.308   0.252   9.254 -1.5641  1.0348 -0.1391
   86SAPS  H18S 8222   4.316   0.383   9.136 -1.1434  0.1655 -0.0943
   86SAPS  C219 8223   4.425   0.195   9.088  0.4573  0.2322 -0.1866
   86SAPS  H19R 8224   4.515   0.235   9.139 -0.6618  0.7932  1.4093
   86SAPS  H19S 8225   4.444   0.211   8.979  1.6415  1.1329  0.1354
   86SAPS  C220 8226   4.429   0.042   9.103  0.1400 -0.0716 -0.1112
   86SAPS  H20R 8227   4.336  -0.001   9.059 -0.0832 -0.1613  0.4419
   86SAPS  H20S 8228   4.425   0.027   9.213  0.3497  1.1141  0.0711
   86SAPS  H20T 8229   4.520  -0.001   9.056  0.0891 -1.2483  0.8241
   86SAPS   C33 8230   4.021   0.339  10.408 -0.3447  0.4372  0.3473
   86SAPS   H3X 8231   3.977   0.436  10.379 -0.0056  0.3980 -0.3160
   86SAPS   H3Y 8232   3.952   0.264  10.452  2.0908 -2.1156  0.1216
   86SAPS   C34 8233   4.079   0.283  10.275  0.1635 -0.9875  0.1455
   86SAPS   H4X 8234   4.175   0.231  10.298  1.0451  0.9129  0.9894
   86SAPS   H4Y 8235   4.111   0.371  10.215 -0.0071  0.1755  1.6918
   86SAPS   C35 8236   3.995   0.187  10.190  0.2033 -0.2551 -0.3293
   86SAPS   H5X 8237   3.895   0.233  10.174  0.3615  0.3391  0.3264
   86SAPS   H5Y 8238   3.982   0.092  10.245  0.3898  0.2601  0.6358
   86SAPS   C36 8239   4.062   0.139  10.048  0.3507 -0.8914  0.2385
   86SAPS   H6X 8240   4.165   0.099  10.065  0.7835 -0.3500 -1.0065
   86SAPS   H6Y 8241   4.083   0.226   9.982  0.3658 -1.5642 -0.6540
   86SAPS   C37 8242   3.973   0.042   9.975 -0.6347 -0.1432  0.3906
   86SAPS   H7X 8243   3.894   0.115   9.948 -0.0703  1.2463  2.2774
   86SAPS   H7Y 8244   3.942  -0.049  10.030  0.3494 -1.0149 -0.4710
   86SAPS   C38 8245   4.041   0.012   9.847 -0.0339 -0.1800  0.4211
   86SAPS   H8X 8246   4.113  -0.072   9.855  1.1895  0.6553 -1.2281
   86SAPS   H8Y 8247   4.082   0.108   9.809 -2.4492  1.3509  1.4056
   86SAPS   C39 8248   3.938  -0.036   9.737 -0.1725  1.2286 -0.0937
   86SAPS   H9X 8249   3.862   0.042   9.719 -1.6384  0.7153  3.1318
   86SAPS   H9Y 8250   3.883  -0.123   9.780 -0.1783  0.9793 -0.5919
   86SAPS  C310 8251   4.020  -0.089   9.616 -0.4889  0.7545 -0.2854
   86SAPS  H10X 8252   4.089  -0.173   9.641 -0.3533  0.9217 -0.0910
   86SAPS  H10Y 8253   4.079  -0.005   9.572  1.6425 -0.1233  0.7273
   86SAPS  C311 8254   3.918  -0.152   9.525 -0.6880 -0.0148  0.0067
   86SAPS  H11X 8255   3.833  -0.086   9.499 -0.0440 -0.4589 -3.7449
   86SAPS  H11Y 8256   3.865  -0.240   9.568  2.1769 -0.5778  2.8707
   86SAPS  C312 8257   3.986  -0.188   9.390 -0.6102  0.5532 -0.2587
   86SAPS  H12X 8258   4.037  -0.286   9.400 -2.0995 -0.5537 -2.7654
   86SAPS  H12Y 8259   4.053  -0.102   9.366 -2.3411  2.1780  0.4630
   86SAPS  C313 8260   3.890  -0.210   9.275  0.2069 -0.4355 -0.6612
   86SAPS  H13X 8261   3.824  -0.122   9.259  0.0165 -0.2518  1.0193
   86SAPS  H13Y 8262   3.826  -0.296   9.302  0.1412  0.0636  0.8927
   86SAPS  C314 8263   3.955  -0.243   9.143 -0.5424  0.1633 -0.1602
   86SAPS  H14X 8264   4.024  -0.328   9.160  0.4093  1.1086  0.8821
   86SAPS  H14Y 8265   4.027  -0.163   9.112  2.4750 -2.2108  0.2390
   86SAPS  C315 8266   3.847  -0.268   9.038 -0.2162  0.0800  0.2392
   86SAPS  H15X 8267   3.753  -0.301   9.088  1.4129 -1.5693  2.4741
   86SAPS  H15Y 8268   3.880  -0.349   8.969 -1.6962  1.3437 -2.0671
   86SAPS  C316 8269   3.822  -0.142   8.941 -0.8865 -0.9583 -0.6193
   86SAPS  H16X 8270   3.914  -0.131   8.880  0.3324 -0.7836  1.1967
   86SAPS  H16Y 8271   3.816  -0.052   9.005  0.8997 -0.3020 -1.3249
   86SAPS  C317 8272   3.694  -0.150   8.863 -0.5300 -0.5599 -0.1880
   86SAPS  H17X 8273   3.614  -0.163   8.939 -0.9631 -1.8120 -0.8099
   86SAPS  H17Y 8274   3.686  -0.243   8.801 -0.2489 -0.1132 -0.9127
   86SAPS  C318 8275   3.670  -0.030   8.771  0.3519 -0.2172  0.6709
   86SAPS  H18X 8276   3.732   0.057   8.803 -2.0743  1.3351  1.4222
   86SAPS  H18Y 8277   3.566   0.007   8.782  0.7478  1.0949  0.2468
   86SAPS  H18Z 8278   3.676  -0.053   8.662 -1.8363  0.1738  0.4288
   87SAPS     N 8279   3.769   1.598  11.338 -0.1647  0.4367 -0.8557
   87SAPS   HN1 8280   3.817   1.635  11.422 -3.0716  0.1514  1.0839
   87SAPS   HN2 8281   3.667   1.612  11.352 -0.3027 -0.4637 -0.8623
   87SAPS   HN3 8282   3.792   1.496  11.337 -4.1633 -0.7152  1.3221
   87SAPS   C12 8283   3.803   1.672  11.214 -0.7911  0.0708  0.1506
   87SAPS  H12A 8284   3.740   1.617  11.145 -2.4708  1.7544  0.2635
   87SAPS   C13 8285   3.764   1.824  11.211 -1.1836  0.6851 -0.1979
   87SAPS  O13A 8286   3.681   1.872  11.297 -0.1514 -0.1223 -0.3828
   87SAPS  O13B 8287   3.790   1.882  11.099 -0.1122 -0.1733  0.0452
   87SAPS   C11 8288   3.962   1.665  11.190 -0.6701 -1.1828 -0.1331
   87SAPS  H11A 8289   4.005   1.711  11.281  1.0567 -1.5518 -0.7195
   87SAPS  H11B 8290   3.979   1.729  11.101 -1.1583  1.7176  1.7534
   87SAPS     P 8291   4.139   1.474  11.125  0.3150  0.2658  0.1396
   87SAPS   O13 8292   4.258   1.537  11.187  0.2366  0.2065  0.2309
   87SAPS   O14 8293   4.132   1.326  11.148  0.2563 -0.0070  0.0321
   87SAPS   O12 8294   4.010   1.532  11.186  1.0347  0.0352 -0.4224
   87SAPS   O11 8295   4.127   1.516  10.972 -0.4054 -0.5935  0.4460
   87SAPS    C1 8296   4.004   1.508  10.894  0.3779 -0.2762  0.1469
   87SAPS    HA 8297   3.929   1.434  10.929 -1.4202  0.1117 -2.5838
   87SAPS    HB 8298   3.946   1.602  10.892  1.8021  0.6566  0.6048
   87SAPS    C2 8299   4.023   1.475  10.744 -0.2158 -0.5433 -0.3314
   87SAPS    HS 8300   4.066   1.373  10.736 -0.0974 -0.3738 -2.0614
   87SAPS   O21 8301   4.106   1.571  10.679  0.5029 -0.2106 -0.4212
   87SAPS   C21 8302   4.188   1.527  10.590  0.0766  0.0636  0.5381
   87SAPS   O22 8303   4.218   1.413  10.567 -0.2037  0.0312 -0.6570
   87SAPS   C22 8304   4.232   1.635  10.490  0.5104  0.5246 -0.4267
   87SAPS   H2R 8305   4.144   1.703  10.481 -1.7667 -2.4633 -2.8269
   87SAPS   H2S 8306   4.318   1.689  10.534 -0.8847  1.5433  1.1898
   87SAPS    C3 8307   3.888   1.478  10.667 -0.2061  0.3129  0.2739
   87SAPS    HX 8308   3.872   1.584  10.638  0.4774  0.1150 -0.8821
   87SAPS    HY 8309   3.804   1.454  10.735  0.2441  3.0658  1.9665
   87SAPS   O31 8310   3.891   1.387  10.542  0.5257 -0.1955  0.2505
   87SAPS   C31 8311   3.909   1.445  10.427  0.0954  0.2173 -0.2380
   87SAPS   O32 8312   3.929   1.562  10.410  0.3966 -0.5851  0.5131
   87SAPS   C32 8313   3.891   1.346  10.316 -0.2812 -0.0772  0.1710
   87SAPS   H2X 8314   3.786   1.310  10.325  0.0687 -1.2384 -0.3499
   87SAPS   H2Y 8315   3.967   1.267  10.330 -0.8160 -1.0114 -1.8132
   87SAPS   C23 8316   4.263   1.575  10.351  0.3310 -0.2496 -0.5476
   87SAPS   H3R 8317   4.169   1.543  10.303  0.6487  0.6345 -1.8056
   87SAPS   H3S 8318   4.328   1.486  10.369 -1.5543 -1.4008  0.8555
   87SAPS   C24 8319   4.337   1.672  10.260 -0.1375  0.7257 -0.0963
   87SAPS   H4R 8320   4.371   1.616  10.171 -0.5453  2.2314 -1.2434
   87SAPS   H4S 8321   4.430   1.703  10.312 -1.3296  0.8863  2.0952
   87SAPS   C25 8322   4.248   1.785  10.230  0.0841  0.2055  0.3250
   87SAPS   H5R 8323   4.235   1.856  10.313  0.1510 -0.4049  0.8710
   87SAPS   C26 8324   4.185   1.810  10.116 -0.4791  0.3207 -1.0625
   87SAPS   H6R 8325   4.110   1.890  10.112 -1.9733 -0.9815 -0.1879
   87SAPS   C27 8326   4.192   1.729   9.987  0.9231 -0.4412 -0.5698
   87SAPS   H7R 8327   4.126   1.784   9.916  0.7226 -0.1647 -0.1735
   87SAPS   H7S 8328   4.131   1.637   9.997 -2.0772  1.4429 -0.2716
   87SAPS   C28 8329   4.330   1.713   9.931  0.1471 -0.6586 -0.0415
   87SAPS   H8R 8330   4.407   1.787   9.956 -1.6742  1.3039  0.0461
   87SAPS   C29 8331   4.379   1.599   9.868  0.0304  0.0234  0.2997
   87SAPS   H9R 8332   4.481   1.595   9.828 -0.3945  0.4691 -0.8675
   87SAPS  C210 8333   4.302   1.470   9.844  0.1030  0.2001 -0.1912
   87SAPS  H10R 8334   4.216   1.463   9.915 -0.0567  1.8726 -0.1946
   87SAPS  H10S 8335   4.363   1.377   9.852  0.1708  0.0979 -1.6764
   87SAPS  C211 8336   4.234   1.487   9.715  0.3086  0.1380  0.3867
   87SAPS  H11R 8337   4.152   1.560   9.712  0.4229  0.2473 -0.3199
   87SAPS  C212 8338   4.263   1.422   9.602 -0.3151  0.0753  0.5779
   87SAPS  H12R 8339   4.207   1.444   9.510 -0.1141  0.2583  0.4998
   87SAPS  C213 8340   4.375   1.324   9.575  0.4203  0.7543 -0.1162
   87SAPS  H13R 8341   4.415   1.288   9.672 -1.2230  1.1443  0.7602
   87SAPS  H13S 8342   4.457   1.369   9.516  0.6004  1.1653  0.4428
   87SAPS  C214 8343   4.316   1.202   9.503 -0.1692 -0.2523 -0.5043
   87SAPS  H14R 8344   4.228   1.152   9.547 -0.3093  0.9635  0.6652
   87SAPS  C215 8345   4.357   1.150   9.385  0.0701 -0.1298 -0.3757
   87SAPS  H15R 8346   4.299   1.063   9.351  0.6023 -0.7561  0.2780
   87SAPS  C216 8347   4.477   1.199   9.296  0.0190 -0.1701 -0.6701
   87SAPS  H16R 8348   4.566   1.147   9.338 -0.7756 -1.3176 -0.3560
   87SAPS  H16S 8349   4.494   1.308   9.303 -0.5486 -0.1996  2.0617
   87SAPS  C217 8350   4.454   1.175   9.152  0.3048 -0.3250 -0.0469
   87SAPS  H17R 8351   4.359   1.224   9.120  0.2544 -1.0228 -0.9970
   87SAPS  H17S 8352   4.446   1.065   9.135  0.5637 -0.6358  1.6799
   87SAPS  C218 8353   4.564   1.241   9.068 -0.4626 -0.4761 -0.5558
   87SAPS  H18R 8354   4.664   1.214   9.107 -1.0347  0.5300  1.8390
   87SAPS  H18S 8355   4.543   1.349   9.084 -1.1009 -0.5804 -0.6585
   87SAPS  C219 8356   4.548   1.213   8.916 -0.0706  0.8322 -0.1194
   87SAPS  H19R 8357   4.614   1.284   8.862 -1.8307  0.6454 -2.6521
   87SAPS  H19S 8358   4.443   1.223   8.883 -0.1340  0.1906 -0.1214
   87SAPS  C220 8359   4.603   1.069   8.882  0.3469 -0.7267  0.3136
   87SAPS  H20R 8360   4.713   1.071   8.868  0.2835 -2.0637 -0.7086
   87SAPS  H20S 8361   4.561   1.037   8.784 -0.6795  0.5299  0.3142
   87SAPS  H20T 8362   4.565   1.000   8.961 -1.6354  2.9129  2.8173
   87SAPS   C33 8363   3.913   1.409  10.174 -0.0569 -0.6087  0.4695
   87SAPS   H3X 8364   3.987   1.492  10.172 -0.2305 -0.4552 -1.9020
   87SAPS   H3Y 8365   3.812   1.438  10.136 -0.9975 -1.3377  2.2775
   87SAPS   C34 8366   3.974   1.302  10.075 -0.6937  0.6600  0.0515
   87SAPS   H4X 8367   4.064   1.276  10.135 -1.0810 -1.8680 -0.3475
   87SAPS   H4Y 8368   3.999   1.363   9.986  3.2145 -1.2182 -0.3508
   87SAPS   C35 8369   3.885   1.179  10.057 -0.0381 -1.2403 -0.3354
   87SAPS   H5X 8370   3.782   1.208  10.028 -0.8941 -0.4752  2.9894
   87SAPS   H5Y 8371   3.886   1.142  10.162 -0.2345  0.7872  0.4258
   87SAPS   C36 8372   3.941   1.072   9.959 -0.0810  0.0031 -0.4063
   87SAPS   H6X 8373   3.880   0.981   9.973 -0.1348 -0.0051 -0.6919
   87SAPS   H6Y 8374   4.045   1.041   9.986  0.6242  0.9570 -1.8877
   87SAPS   C37 8375   3.942   1.134   9.817  0.4563 -1.2146 -0.1893
   87SAPS   H7X 8376   4.028   1.204   9.803  0.1197 -1.0020 -1.2455
   87SAPS   H7Y 8377   3.848   1.190   9.802  1.6932  0.5167 -2.0818
   87SAPS   C38 8378   3.940   1.022   9.712 -0.3405  1.1195  0.5956
   87SAPS   H8X 8379   3.850   0.964   9.740  0.4338  0.7139  2.3911
   87SAPS   H8Y 8380   4.019   0.945   9.724 -0.9113  0.5631  0.8409
   87SAPS   C39 8381   3.936   1.080   9.568 -0.0830 -0.7936  0.9500
   87SAPS   H9X 8382   4.013   1.159   9.553 -1.3183  0.4894  1.0381
   87SAPS   H9Y 8383   3.845   1.140   9.546  1.6376  1.5471 -0.3134
   87SAPS  C310 8384   3.947   0.969   9.461 -0.1749 -0.2050  0.6773
   87SAPS  H10X 8385   3.860   0.900   9.466 -0.0595 -0.4572 -0.5056
   87SAPS  H10Y 8386   4.041   0.917   9.488 -1.0121 -2.3892 -0.3962
   87SAPS  C311 8387   3.950   1.025   9.317 -0.5760 -0.7656  1.1471
   87SAPS  H11X 8388   4.020   1.111   9.307 -1.5176  0.1037  1.8201
   87SAPS  H11Y 8389   3.851   1.065   9.288 -0.0326 -1.1868 -1.5365
   87SAPS  C312 8390   3.965   0.912   9.217 -0.0200  0.5117  0.1197
   87SAPS  H12X 8391   3.905   0.929   9.126 -0.7709 -2.4179 -0.0350
   87SAPS  H12Y 8392   3.924   0.822   9.268 -1.7427 -0.0905 -2.1995
   87SAPS  C313 8393   4.109   0.895   9.169  0.0795  0.1966  0.2186
   87SAPS  H13X 8394   4.160   0.844   9.254 -0.2592 -0.0671  0.2681
   87SAPS  H13Y 8395   4.155   0.995   9.155  0.0681  0.1719 -0.0113
   87SAPS  C314 8396   4.120   0.811   9.038 -0.3955 -0.5545  0.7212
   87SAPS  H14X 8397   4.226   0.799   9.008 -0.7019 -1.6605  0.0537
   87SAPS  H14Y 8398   4.079   0.884   8.964 -1.4894  0.1114  1.9363
   87SAPS  C315 8399   4.042   0.677   9.031 -0.0113 -0.0256  0.2719
   87SAPS  H15X 8400   3.935   0.707   9.034 -0.0346 -0.0903  0.0694
   87SAPS  H15Y 8401   4.073   0.622   9.122 -1.6958 -0.2756  0.7372
   87SAPS  C316 8402   4.063   0.598   8.904  0.7791 -0.3615  0.0278
   87SAPS  H16X 8403   4.021   0.496   8.918  0.2838 -0.0031  1.2863
   87SAPS  H16Y 8404   4.173   0.582   8.898  1.0711  1.5708 -0.5056
   87SAPS  C317 8405   4.010   0.669   8.778  0.3378  0.4132  0.4945
   87SAPS  H17X 8406   4.077   0.755   8.758  0.5167  0.0076 -0.7358
   87SAPS  H17Y 8407   3.909   0.708   8.803  0.1149  0.1413  0.0295
   87SAPS  C318 8408   4.003   0.595   8.645 -0.0184  0.8231  0.3053
   87SAPS  H18X 8409   3.910   0.533   8.651 -1.4463  2.9425  1.2438
   87SAPS  H18Y 8410   4.088   0.527   8.624  1.7817  3.3514 -0.9832
   87SAPS  H18Z 8411   3.983   0.664   8.561 -0.2851 -1.3877 -1.5387
   88SAPS     N 8412   2.661   6.519  10.991 -0.0888  0.0839  0.0468
   88SAPS   HN1 8413   2.687   6.563  10.900  0.1601 -0.1692 -0.0051
   88SAPS   HN2 8414   2.734   6.533  11.063 -1.0296 -1.1825  1.2914
   88SAPS   HN3 8415   2.651   6.418  10.971 -1.0544  0.2209 -0.2198
   88SAPS   C12 8416   2.531   6.575  11.044 -0.3223 -0.1355 -0.2987
   88SAPS  H12A 8417   2.457   6.550  10.970 -0.6243  0.8142 -0.3281
   88SAPS   C13 8418   2.506   6.527  11.185 -0.0638  0.0627 -0.8475
   88SAPS  O13A 8419   2.578   6.438  11.237 -0.1117  0.2501  0.7545
   88SAPS  O13B 8420   2.394   6.559  11.231 -0.2268  0.1809 -0.2413
   88SAPS   C11 8421   2.538   6.730  11.045  0.6572  1.2996  0.3254
   88SAPS  H11A 8422   2.612   6.755  11.124  0.2472  0.0709  1.1388
   88SAPS  H11B 8423   2.445   6.775  11.085 -2.1392 -2.7242 -0.9855
   88SAPS     P 8424   2.639   6.916  10.916  0.0080  0.1477 -0.3173
   88SAPS   O13 8425   2.571   7.013  11.014 -0.2630 -0.6686 -0.1675
   88SAPS   O14 8426   2.787   6.903  10.931  0.5199 -0.1806  0.6449
   88SAPS   O12 8427   2.566   6.777  10.915  0.4777 -0.2743 -0.0028
   88SAPS   O11 8428   2.605   6.975  10.779 -0.7380 -0.4539  0.5416
   88SAPS    C1 8429   2.622   6.889  10.665  0.0710  0.1790  0.4872
   88SAPS    HA 8430   2.729   6.861  10.657  0.3114  0.6918  1.6122
   88SAPS    HB 8431   2.560   6.798  10.681  1.2621 -1.1646 -1.9550
   88SAPS    C2 8432   2.585   6.973  10.534  0.7367  0.0857  0.3841
   88SAPS    HS 8433   2.474   6.965  10.528  0.7670 -2.3573  1.7948
   88SAPS   O21 8434   2.645   6.907  10.417  0.4741  0.2150 -0.0766
   88SAPS   C21 8435   2.610   6.786  10.392  0.3906 -0.2561  0.1320
   88SAPS   O22 8436   2.510   6.724  10.423  0.2216  0.3074 -0.3231
   88SAPS   C22 8437   2.721   6.720  10.306 -0.1616 -0.5600 -0.1328
   88SAPS   H2R 8438   2.790   6.798  10.268 -1.1731  0.1270 -0.5918
   88SAPS   H2S 8439   2.777   6.657  10.377  0.4199  0.3772  0.2616
   88SAPS    C3 8440   2.626   7.122  10.544  0.0580  0.1537 -0.2323
   88SAPS    HX 8441   2.737   7.133  10.550  0.2119 -1.0939 -0.4223
   88SAPS    HY 8442   2.569   7.159  10.632 -3.2439  0.2671 -2.2567
   88SAPS   O31 8443   2.575   7.201  10.432  0.3509 -0.0935 -0.4418
   88SAPS   C31 8444   2.582   7.333  10.446  0.5605  2.2627  0.1667
   88SAPS   O32 8445   2.615   7.390  10.548  0.9199  0.0290  0.5689
   88SAPS   C32 8446   2.543   7.395  10.312  0.9170 -0.2556 -0.2440
   88SAPS   H2X 8447   2.442   7.357  10.286  0.6209  1.1578 -1.2750
   88SAPS   H2Y 8448   2.609   7.348  10.236  0.4572 -1.3421 -0.0039
   88SAPS   C23 8449   2.667   6.647  10.184  0.5140 -0.0809  0.1511
   88SAPS   H3R 8450   2.581   6.586  10.221  1.0619  0.1784  1.9720
   88SAPS   H3S 8451   2.752   6.588  10.143  0.4009 -0.1072 -0.0449
   88SAPS   C24 8452   2.594   6.735  10.076  0.2513  0.4344  0.6071
   88SAPS   H4R 8453   2.509   6.790  10.121 -0.0629  1.4100 -1.1320
   88SAPS   H4S 8454   2.542   6.662  10.011 -0.6292  1.2782  0.3520
   88SAPS   C25 8455   2.686   6.830   9.999 -0.0596  0.1887 -0.3754
   88SAPS   H5R 8456   2.707   6.923  10.053 -2.2246 -0.2493  1.3593
   88SAPS   C26 8457   2.746   6.816   9.881  0.4241  0.3916 -0.4163
   88SAPS   H6R 8458   2.803   6.902   9.843  1.5623  0.6853  1.8275
   88SAPS   C27 8459   2.727   6.699   9.792  0.9816  0.2970  0.3939
   88SAPS   H7R 8460   2.737   6.601   9.844  0.0975 -1.0361 -1.7679
   88SAPS   H7S 8461   2.819   6.707   9.730  1.7350 -2.3950  1.0325
   88SAPS   C28 8462   2.605   6.691   9.700 -0.0963  0.1440  0.0035
   88SAPS   H8R 8463   2.537   6.609   9.727  1.0146 -1.2480 -1.2383
   88SAPS   C29 8464   2.570   6.769   9.593  0.5596 -0.4489 -0.5307
   88SAPS   H9R 8465   2.480   6.752   9.533 -1.8702  0.8832  2.4987
   88SAPS  C210 8466   2.645   6.889   9.549  0.2121  0.4913 -0.3669
   88SAPS  H10R 8467   2.691   6.941   9.635  1.0988  0.7249 -0.9655
   88SAPS  H10S 8468   2.579   6.963   9.499  1.1854  1.5019 -0.2081
   88SAPS  C211 8469   2.753   6.859   9.451  0.1758  0.0840 -0.9446
   88SAPS  H11R 8470   2.852   6.843   9.497 -1.8158 -1.0153  3.4593
   88SAPS  C212 8471   2.741   6.839   9.320 -0.4028  0.7698  0.1651
   88SAPS  H12R 8472   2.824   6.816   9.252 -1.8583 -4.3818 -0.3507
   88SAPS  C213 8473   2.614   6.847   9.238 -0.4999 -0.7367 -0.2110
   88SAPS  H13R 8474   2.632   6.924   9.160  2.4130  1.2495  2.1855
   88SAPS  H13S 8475   2.531   6.897   9.294 -0.3611  0.4666 -1.0512
   88SAPS  C214 8476   2.564   6.718   9.178  0.8646  0.5273  0.2699
   88SAPS  H14R 8477   2.526   6.646   9.252 -0.7451  0.3905 -0.6414
   88SAPS  C215 8478   2.552   6.677   9.049 -0.4681  0.1373 -0.2696
   88SAPS  H15R 8479   2.497   6.584   9.031  1.4131 -1.5718  2.0819
   88SAPS  C216 8480   2.600   6.753   8.931  0.1664 -0.8395 -0.0128
   88SAPS  H16R 8481   2.574   6.860   8.950  0.2649 -0.6652 -0.8052
   88SAPS  H16S 8482   2.541   6.706   8.849 -0.2687  0.5175 -0.5146
   88SAPS  C217 8483   2.753   6.738   8.916  0.8492 -0.6362  0.7309
   88SAPS  H17R 8484   2.772   6.630   8.896 -0.1432 -1.2033  2.6187
   88SAPS  H17S 8485   2.798   6.754   9.017  1.9758  0.6210  0.0596
   88SAPS  C218 8486   2.817   6.825   8.810  0.0824  0.5894  0.3423
   88SAPS  H18R 8487   2.925   6.803   8.822  0.4104  2.0005  0.1318
   88SAPS  H18S 8488   2.803   6.932   8.835 -2.1566  0.4809 -0.2460
   88SAPS  C219 8489   2.772   6.809   8.667  0.1020 -0.4097  0.5568
   88SAPS  H19R 8490   2.677   6.866   8.659  0.0984 -0.4383  0.4025
   88SAPS  H19S 8491   2.761   6.700   8.651 -0.1887 -0.0368 -2.2379
   88SAPS  C220 8492   2.863   6.860   8.550  0.1280  0.0321 -0.6610
   88SAPS  H20R 8493   2.808   6.850   8.454  1.3762 -0.9248 -1.3095
   88SAPS  H20S 8494   2.945   6.786   8.541  1.0408  1.0503 -0.8689
   88SAPS  H20T 8495   2.894   6.963   8.576 -1.6378  0.4089  0.0761
   88SAPS   C33 8496   2.537   7.549  10.297 -0.8673 -0.0480  0.5687
   88SAPS   H3X 8497   2.638   7.594  10.284 -0.6630 -0.7411 -0.3655
   88SAPS   H3Y 8498   2.489   7.592  10.387 -2.2845  1.5518 -0.8556
   88SAPS   C34 8499   2.451   7.587  10.174 -0.3384  0.3617 -0.5676
   88SAPS   H4X 8500   2.474   7.695  10.180 -0.6630  0.3610  1.1968
   88SAPS   H4Y 8501   2.346   7.561  10.199  0.4420 -1.1124  1.4221
   88SAPS   C35 8502   2.492   7.535  10.042  0.1034  0.0653  0.3756
   88SAPS   H5X 8503   2.499   7.424  10.046 -0.6194 -0.0170 -0.4443
   88SAPS   H5Y 8504   2.595   7.568  10.013  0.1827 -1.0671 -0.7332
   88SAPS   C36 8505   2.400   7.581   9.926  0.6992  0.2798 -0.5257
   88SAPS   H6X 8506   2.301   7.532   9.937  0.6716  0.6795  1.3638
   88SAPS   H6Y 8507   2.445   7.548   9.830  1.9265 -0.0320  0.1422
   88SAPS   C37 8508   2.386   7.727   9.931 -0.1925 -0.4654  0.3047
   88SAPS   H7X 8509   2.486   7.771   9.909  0.6604 -2.2029  0.5935
   88SAPS   H7Y 8510   2.324   7.772  10.011 -0.8906  0.2771 -0.6221
   88SAPS   C38 8511   2.324   7.800   9.805  0.0932 -0.0941 -0.2483
   88SAPS   H8X 8512   2.334   7.910   9.810  1.7422 -0.1119 -2.0904
   88SAPS   H8Y 8513   2.217   7.771   9.803  0.4129 -1.3199 -0.8722
   88SAPS   C39 8514   2.383   7.756   9.680 -0.1030 -0.3978  0.5731
   88SAPS   H9X 8515   2.363   7.649   9.659 -0.1894 -0.2087 -0.3284
   88SAPS   H9Y 8516   2.492   7.777   9.685 -0.2921  1.4343 -1.6648
   88SAPS  C310 8517   2.327   7.834   9.553 -0.0342 -0.4703 -0.7138
   88SAPS  H10X 8518   2.388   7.809   9.464 -0.6825  1.4509 -1.7559
   88SAPS  H10Y 8519   2.336   7.941   9.583  0.3374 -0.1547 -1.9060
   88SAPS  C311 8520   2.178   7.802   9.529  0.9256  0.0150 -0.4799
   88SAPS  H11X 8521   2.119   7.842   9.614 -1.3583 -0.2218 -1.8595
   88SAPS  H11Y 8522   2.164   7.692   9.537 -1.4146  0.4001  1.6386
   88SAPS  C312 8523   2.125   7.857   9.400  0.1194  0.8805 -0.2663
   88SAPS  H12X 8524   2.177   7.955   9.387  3.5545 -0.9346 -1.1624
   88SAPS  H12Y 8525   2.016   7.879   9.401 -0.6458 -2.4020 -0.3001
   88SAPS  C313 8526   2.155   7.789   9.266 -0.1575  0.9161  0.3333
   88SAPS  H13X 8527   2.081   7.706   9.263 -0.3322  0.7758  4.1771
   88SAPS  H13Y 8528   2.253   7.738   9.258 -0.7527 -0.5742  1.9305
   88SAPS  C314 8529   2.143   7.886   9.147 -0.3433  0.3308 -0.2442
   88SAPS  H14X 8530   2.205   7.976   9.162 -1.0632  0.7687  0.1599
   88SAPS  H14Y 8531   2.036   7.916   9.142 -0.1407  1.2766  0.8098
   88SAPS  C315 8532   2.188   7.806   9.023 -0.1555  0.0811  0.0101
   88SAPS  H15X 8533   2.158   7.701   9.046 -0.1249  0.3308  1.2729
   88SAPS  H15Y 8534   2.299   7.802   9.018 -0.0462 -2.8268  1.9222
   88SAPS  C316 8535   2.123   7.850   8.894 -0.3249 -0.0822  0.4292
   88SAPS  H16X 8536   2.190   7.816   8.812 -1.0269  0.2851 -0.3084
   88SAPS  H16Y 8537   2.133   7.960   8.883  2.2665 -0.3414 -0.6550
   88SAPS  C317 8538   1.978   7.796   8.879  0.3411 -0.6744  0.0373
   88SAPS  H17X 8539   1.926   7.840   8.967 -0.8077 -0.4284 -0.7515
   88SAPS  H17Y 8540   1.963   7.686   8.871 -0.1282 -0.5079 -1.6496
   88SAPS  C318 8541   1.907   7.849   8.751 -0.4187  0.3061 -0.2768
   88SAPS  H18X 8542   1.950   7.806   8.658 -2.8961  0.2882 -1.4972
   88SAPS  H18Y 8543   1.902   7.960   8.750 -0.6259  0.2978 -0.2392
   88SAPS  H18Z 8544   1.801   7.814   8.744 -0.4944  0.5293 -0.2481
   89SAPS     N 8545   0.408   2.796  10.968 -0.0682  0.5347 -0.5394
   89SAPS   HN1 8546   0.402   2.702  11.013 -1.0386  1.9044  2.5438
   89SAPS   HN2 8547   0.445   2.787  10.872  2.8491 -1.3905  0.6198
   89SAPS   HN3 8548   0.469   2.855  11.028 -0.5394  0.5591 -0.0750
   89SAPS   C12 8549   0.267   2.847  10.974 -0.0195 -0.3062  0.4834
   89SAPS  H12A 8550   0.212   2.783  10.906  1.9263 -0.4907 -1.0115
   89SAPS   C13 8551   0.207   2.857  11.110  0.5487 -0.0780 -0.7305
   89SAPS  O13A 8552   0.271   2.809  11.211 -0.5574 -0.2213  0.0102
   89SAPS  O13B 8553   0.087   2.894  11.121  0.4183 -0.8651 -1.3444
   89SAPS   C11 8554   0.264   2.991  10.912  0.3324  1.1067  0.1165
   89SAPS  H11A 8555   0.301   3.069  10.983 -3.9261  1.3399  2.3790
   89SAPS  H11B 8556   0.157   3.020  10.907 -0.2075  0.0352  3.1143
   89SAPS     P 8557   0.299   3.120  10.683  0.1602  0.4653 -0.0706
   89SAPS   O13 8558   0.148   3.131  10.676  0.2090 -0.2264  0.3170
   89SAPS   O14 8559   0.372   3.237  10.719 -0.4019  0.6447 -0.1444
   89SAPS   O12 8560   0.330   2.998  10.787  0.1055  0.4577 -0.1190
   89SAPS   O11 8561   0.345   3.064  10.545 -0.3006  0.1162  0.2422
   89SAPS    C1 8562   0.325   3.134  10.419 -0.3051 -0.0673 -0.0365
   89SAPS    HA 8563   0.243   3.209  10.427 -0.0517  0.1599  0.4412
   89SAPS    HB 8564   0.415   3.188  10.382  1.0159  0.0053  3.0360
   89SAPS    C2 8565   0.277   3.041  10.308 -0.1208  0.0061 -0.3280
   89SAPS    HS 8566   0.203   2.978  10.361  1.6572 -0.6411  1.5143
   89SAPS   O21 8567   0.378   2.955  10.273 -0.7871 -0.0303  0.6984
   89SAPS   C21 8568   0.363   2.827  10.242 -0.1075 -0.7560  0.9578
   89SAPS   O22 8569   0.263   2.764  10.253 -0.4152 -0.3471  0.0910
   89SAPS   C22 8570   0.500   2.766  10.213 -0.6800  0.3378 -0.0926
   89SAPS   H2R 8571   0.576   2.839  10.178 -0.0435  0.3932  1.3299
   89SAPS   H2S 8572   0.537   2.727  10.311 -1.8955 -0.4284  0.0885
   89SAPS    C3 8573   0.223   3.111  10.185  0.4266  0.5950  0.4869
   89SAPS    HX 8574   0.311   3.143  10.125 -0.6870 -0.1059 -1.5879
   89SAPS    HY 8575   0.155   3.196  10.210 -0.5710  0.0265 -0.2110
   89SAPS   O31 8576   0.132   3.016  10.117 -0.0952  0.3445 -0.3568
   89SAPS   C31 8577   0.174   2.994   9.992 -0.3284  0.0313 -0.3853
   89SAPS   O32 8578   0.287   3.014   9.944  0.6731  0.1463  0.0022
   89SAPS   C32 8579   0.055   2.943   9.914 -0.5733  0.1842  0.0249
   89SAPS   H2X 8580  -0.026   3.017   9.929 -0.7853 -0.3506  1.6639
   89SAPS   H2Y 8581   0.021   2.847   9.957 -2.9652  0.7410 -0.5084
   89SAPS   C23 8582   0.495   2.653  10.106  0.6206  0.9174 -0.2931
   89SAPS   H3R 8583   0.415   2.581  10.135 -1.8761  3.8066  0.5577
   89SAPS   H3S 8584   0.591   2.599  10.099  1.4791  2.4520 -0.9678
   89SAPS   C24 8585   0.450   2.712   9.974 -0.4139 -0.3358  0.4190
   89SAPS   H4R 8586   0.492   2.813   9.956 -2.2819  0.3830 -0.1682
   89SAPS   H4S 8587   0.339   2.725   9.970 -0.4836 -0.5490  1.4574
   89SAPS   C25 8588   0.482   2.612   9.864  0.3256 -0.6773 -0.1182
   89SAPS   H5R 8589   0.490   2.507   9.898 -2.1188 -0.2806  1.9870
   89SAPS   C26 8590   0.519   2.644   9.737  0.2355  0.4174  0.4307
   89SAPS   H6R 8591   0.526   2.559   9.667 -1.4781  0.2115  0.4796
   89SAPS   C27 8592   0.514   2.773   9.661 -0.1969  0.4152  0.6946
   89SAPS   H7R 8593   0.613   2.824   9.659 -0.9100  1.9036  1.2690
   89SAPS   H7S 8594   0.443   2.837   9.717  1.4304  1.4853  1.6478
   89SAPS   C28 8595   0.470   2.756   9.514 -0.0142 -0.5900  0.3706
   89SAPS   H8R 8596   0.370   2.712   9.500 -0.5579  0.6679  0.1340
   89SAPS   C29 8597   0.534   2.797   9.402 -0.2394  0.3132  0.3351
   89SAPS   H9R 8598   0.502   2.764   9.302  0.1997 -1.0359  0.6262
   89SAPS  C210 8599   0.665   2.868   9.395  0.5190 -0.1425 -0.1313
   89SAPS  H10R 8600   0.738   2.787   9.417 -0.3643 -0.9643 -0.1311
   89SAPS  H10S 8601   0.670   2.934   9.484 -0.5324 -0.9742  0.5706
   89SAPS  C211 8602   0.686   2.945   9.269  0.0976  0.3213  0.5403
   89SAPS  H11R 8603   0.596   3.004   9.247 -1.0209 -0.7691  2.0395
   89SAPS  C212 8604   0.796   2.934   9.185  0.3352 -0.1974  0.3798
   89SAPS  H12R 8605   0.801   2.998   9.096 -0.5382  1.7160  1.6305
   89SAPS  C213 8606   0.917   2.846   9.209 -0.3305  1.0312 -0.0591
   89SAPS  H13R 8607   0.940   2.792   9.114 -1.9114 -2.0558  1.1697
   89SAPS  H13S 8608   0.896   2.768   9.285  0.5328  1.8314  1.0256
   89SAPS  C214 8609   1.048   2.904   9.247  0.3966 -0.3830 -0.3450
   89SAPS  H14R 8610   1.090   2.978   9.177  0.4255  1.4942  1.5660
   89SAPS  C215 8611   1.124   2.878   9.353  0.2447  0.3616 -0.6328
   89SAPS  H15R 8612   1.212   2.940   9.377 -1.1999  1.5866  2.0143
   89SAPS  C216 8613   1.093   2.783   9.468  0.7351  0.0053  0.2784
   89SAPS  H16R 8614   1.184   2.744   9.518 -0.6142 -1.5413  1.6572
   89SAPS  H16S 8615   1.028   2.697   9.439 -0.9623  1.1484  0.5583
   89SAPS  C217 8616   1.008   2.854   9.580 -0.0600  0.4364  0.5775
   89SAPS  H17R 8617   0.913   2.892   9.538  0.2026 -1.0240 -1.5007
   89SAPS  H17S 8618   1.085   2.927   9.614 -0.3191  0.4190  1.2157
   89SAPS  C218 8619   0.976   2.753   9.691  0.4473  0.1269  0.6430
   89SAPS  H18R 8620   1.066   2.691   9.710 -0.1152 -1.2503 -1.0057
   89SAPS  H18S 8621   0.894   2.690   9.650  2.4085 -1.3271 -1.3004
   89SAPS  C219 8622   0.930   2.838   9.816 -0.5896  1.2058  0.3026
   89SAPS  H19R 8623   0.835   2.889   9.790 -0.6137  0.9455 -0.1194
   89SAPS  H19S 8624   1.001   2.919   9.844 -0.6574  1.3597  0.0316
   89SAPS  C220 8625   0.918   2.752   9.950 -0.0839 -0.4717  0.1295
   89SAPS  H20R 8626   0.915   2.818  10.039  4.3053 -1.3544  1.2118
   89SAPS  H20S 8627   1.005   2.685   9.970 -0.9507 -1.8249 -0.5276
   89SAPS  H20T 8628   0.825   2.692   9.944  0.9405 -1.9761 -1.9671
   89SAPS   C33 8629   0.078   2.931   9.760  0.0818 -0.4341 -0.5577
   89SAPS   H3X 8630   0.157   2.855   9.743  1.0376  0.7186 -1.4412
   89SAPS   H3Y 8631   0.116   3.029   9.726  1.1619 -1.0142 -1.0782
   89SAPS   C34 8632  -0.050   2.886   9.690 -0.2386 -0.0173  0.9588
   89SAPS   H4X 8633  -0.140   2.927   9.741 -1.2032 -0.6056 -0.2104
   89SAPS   H4Y 8634  -0.070   2.778   9.710  0.8673 -0.2348  0.9308
   89SAPS   C35 8635  -0.064   2.901   9.533 -0.6776 -0.2260  0.2072
   89SAPS   H5X 8636  -0.091   3.005   9.502  0.4752  0.2327  0.7049
   89SAPS   H5Y 8637  -0.147   2.835   9.500 -0.4285  0.5554 -2.1854
   89SAPS   C36 8638   0.055   2.859   9.453 -0.5084  0.3179 -1.0961
   89SAPS   H6X 8639   0.070   2.751   9.477  1.3857  0.9093  0.7802
   89SAPS   H6Y 8640   0.151   2.905   9.486  0.3681 -0.3443 -2.5973
   89SAPS   C37 8641   0.029   2.872   9.302 -0.2934 -0.0083  0.0467
   89SAPS   H7X 8642  -0.008   2.977   9.292  2.0225  0.8148 -0.5084
   89SAPS   H7Y 8643  -0.038   2.790   9.269  2.5258 -1.7862 -1.6665
   89SAPS   C38 8644   0.152   2.867   9.215 -0.0904  0.3647 -1.1273
   89SAPS   H8X 8645   0.213   2.779   9.241 -0.9325 -0.3367 -1.4573
   89SAPS   H8Y 8646   0.201   2.963   9.243  1.0463 -0.2822 -0.8442
   89SAPS   C39 8647   0.129   2.862   9.064  0.3077  0.0859 -0.0220
   89SAPS   H9X 8648   0.218   2.916   9.023 -1.2866  0.2364 -3.6933
   89SAPS   H9Y 8649   0.050   2.938   9.046 -0.3278 -1.2172 -3.6612
   89SAPS  C310 8650   0.081   2.727   8.999  0.0792 -0.3050  0.0155
   89SAPS  H10X 8651  -0.011   2.694   9.052 -0.3030  0.4993 -0.1420
   89SAPS  H10Y 8652   0.161   2.650   9.010 -0.1901 -0.4861  0.8065
   89SAPS  C311 8653   0.042   2.739   8.850 -0.2793 -0.5079  0.9014
   89SAPS  H11X 8654  -0.049   2.800   8.836 -0.8577 -1.3999  0.7023
   89SAPS  H11Y 8655   0.042   2.640   8.800  1.9138 -0.4631  0.7065
   89SAPS  C312 8656   0.152   2.822   8.768  0.1567 -0.3539  0.2188
   89SAPS  H12X 8657   0.240   2.756   8.751  0.2158 -0.4725  0.9440
   89SAPS  H12Y 8658   0.183   2.916   8.819 -2.8728 -0.1873  2.0061
   89SAPS  C313 8659   0.095   2.866   8.636  0.1189  0.1606 -0.2190
   89SAPS  H13X 8660   0.017   2.942   8.657  0.2552  0.8320 -1.9480
   89SAPS  H13Y 8661   0.037   2.777   8.603  1.4499 -0.3896 -1.1852
   89SAPS  C314 8662   0.190   2.903   8.520 -0.4198  0.5570  0.0124
   89SAPS  H14X 8663   0.258   2.816   8.508 -1.5659 -0.5819  1.3265
   89SAPS  H14Y 8664   0.244   2.995   8.551 -1.1108  1.3198 -0.9985
   89SAPS  C315 8665   0.134   2.924   8.376 -0.4678  0.4512 -0.3119
   89SAPS  H15X 8666   0.065   3.012   8.375  1.2573  1.9425  2.1695
   89SAPS  H15Y 8667   0.069   2.839   8.345 -1.3890  0.5135  1.3402
   89SAPS  C316 8668   0.253   2.955   8.278 -0.2909  0.4796  0.4986
   89SAPS  H16X 8669   0.315   2.868   8.249 -0.8768  0.4335 -0.6465
   89SAPS  H16Y 8670   0.303   3.048   8.314  0.5378  0.3387 -0.2655
   89SAPS  C317 8671   0.209   3.000   8.134 -0.2196 -0.2611  0.4677
   89SAPS  H17X 8672   0.291   3.065   8.099  0.2953 -0.3844  1.4121
   89SAPS  H17Y 8673   0.128   3.074   8.151 -2.3920 -2.4251  0.1005
   89SAPS  C318 8674   0.157   2.890   8.046  0.4911 -0.0622 -0.0898
   89SAPS  H18X 8675   0.238   2.814   8.037  3.7792  2.9460  1.4336
   89SAPS  H18Y 8676   0.114   2.923   7.949  0.7008 -3.0134 -1.3174
   89SAPS  H18Z 8677   0.081   2.833   8.103 -2.4907  3.9101  0.3212
   90SAPS     N 8678   0.137   1.849  10.942 -0.6575  0.0183 -0.5123
   90SAPS   HN1 8679   0.223   1.857  11.000  0.6596 -1.7574 -2.0958
   90SAPS   HN2 8680   0.057   1.872  11.003  1.2664  1.2480  1.7225
   90SAPS   HN3 8681   0.129   1.755  10.899 -0.3575 -0.1293 -0.2493
   90SAPS   C12 8682   0.154   1.952  10.827  0.3910 -0.2698  0.5917
   90SAPS  H12A 8683   0.072   1.956  10.756  0.3094 -0.9207  0.6485
   90SAPS   C13 8684   0.178   2.105  10.869 -0.0622  0.5457  0.1134
   90SAPS  O13A 8685   0.200   2.127  10.991 -0.7229 -0.4701 -0.5626
   90SAPS  O13B 8686   0.211   2.185  10.782 -0.3654 -0.5211  0.8994
   90SAPS   C11 8687   0.268   1.904  10.736 -0.5040  0.0370 -0.0284
   90SAPS  H11A 8688   0.269   1.982  10.656 -2.2569  0.1171 -0.0096
   90SAPS  H11B 8689   0.233   1.807  10.694  0.0510 -0.1958  0.0344
   90SAPS     P 8690   0.525   1.850  10.749 -0.0057 -0.0329 -0.0389
   90SAPS   O13 8691   0.586   1.971  10.698 -1.1883 -0.4925  0.1620
   90SAPS   O14 8692   0.603   1.767  10.846 -0.4890  0.3128 -0.1002
   90SAPS   O12 8693   0.390   1.898  10.811  0.6897 -0.2687  0.4886
   90SAPS   O11 8694   0.473   1.769  10.620  0.7065 -0.7280 -0.1251
   90SAPS    C1 8695   0.482   1.624  10.635 -0.0948 -0.9568  0.0401
   90SAPS    HA 8696   0.477   1.581  10.738 -2.1101  0.9481  0.8090
   90SAPS    HB 8697   0.392   1.583  10.584  0.7584 -1.4437 -1.1161
   90SAPS    C2 8698   0.600   1.557  10.563  0.2962  0.2687  0.6425
   90SAPS    HS 8699   0.688   1.607  10.609  1.2105  1.1519 -1.8840
   90SAPS   O21 8700   0.602   1.596  10.424  0.3700 -0.5145  0.0741
   90SAPS   C21 8701   0.720   1.601  10.367 -0.8842 -0.6339 -0.6606
   90SAPS   O22 8702   0.829   1.593  10.425  0.5495  0.2754 -0.4669
   90SAPS   C22 8703   0.716   1.583  10.214  0.3861  0.1634 -0.4473
   90SAPS   H2R 8704   0.820   1.600  10.178  1.1519 -2.2719  0.3942
   90SAPS   H2S 8705   0.678   1.479  10.203 -0.6306  0.0047  3.1931
   90SAPS    C3 8706   0.619   1.404  10.595 -0.1132 -0.0301 -0.3664
   90SAPS    HX 8707   0.626   1.395  10.706 -0.8430 -1.2201 -0.4005
   90SAPS    HY 8708   0.719   1.369  10.560  1.1524 -0.9647  3.6299
   90SAPS   O31 8709   0.514   1.310  10.567  0.1489  0.0664  0.9281
   90SAPS   C31 8710   0.524   1.263  10.446 -0.1526 -0.1481 -0.1659
   90SAPS   O32 8711   0.615   1.284  10.364  0.1340  0.0494  0.4039
   90SAPS   C32 8712   0.404   1.158  10.426  0.9906  0.1826 -0.4987
   90SAPS   H2X 8713   0.308   1.213  10.421  0.5787 -0.5952 -1.4458
   90SAPS   H2Y 8714   0.415   1.105  10.523 -0.6683 -0.6474 -0.7283
   90SAPS   C23 8715   0.613   1.675  10.143  0.2489 -0.9772 -0.5267
   90SAPS   H3R 8716   0.633   1.778  10.179  3.2764 -1.5581 -0.2729
   90SAPS   H3S 8717   0.513   1.642  10.179  0.1262  0.5091  0.5565
   90SAPS   C24 8718   0.599   1.662   9.990 -0.4223  0.3306 -0.3785
   90SAPS   H4R 8719   0.699   1.650   9.944 -0.8230 -0.3150 -1.1203
   90SAPS   H4S 8720   0.545   1.750   9.951 -1.6080 -0.1298  0.1713
   90SAPS   C25 8721   0.521   1.540   9.945 -0.0554  0.4332 -0.7330
   90SAPS   H5R 8722   0.474   1.489  10.031 -2.0604  1.0774 -1.4045
   90SAPS   C26 8723   0.530   1.482   9.827  0.4679 -0.6490 -0.2572
   90SAPS   H6R 8724   0.463   1.398   9.803  0.7674 -1.4854  1.7215
   90SAPS   C27 8725   0.614   1.540   9.710 -0.2669 -0.1975  0.0531
   90SAPS   H7R 8726   0.692   1.465   9.683  0.8453  0.5579  1.0574
   90SAPS   H7S 8727   0.673   1.628   9.742 -0.2524 -0.6135  1.2464
   90SAPS   C28 8728   0.522   1.585   9.605 -0.1541 -0.2817  0.3717
   90SAPS   H8R 8729   0.432   1.635   9.644  0.3073  1.7796 -1.0810
   90SAPS   C29 8730   0.543   1.575   9.474 -0.4574  0.4144  0.4570
   90SAPS   H9R 8731   0.476   1.621   9.400  0.4033 -0.4758 -0.9175
   90SAPS  C210 8732   0.654   1.503   9.405 -0.6510  0.1176 -1.0889
   90SAPS  H10R 8733   0.754   1.532   9.443 -0.8839  0.8736 -1.0583
   90SAPS  H10S 8734   0.651   1.541   9.300  1.2267 -0.5787 -1.4498
   90SAPS  C211 8735   0.633   1.353   9.423  0.7160  0.1172 -0.2858
   90SAPS  H11R 8736   0.650   1.301   9.519 -1.5561  0.2987  0.2627
   90SAPS  C212 8737   0.591   1.277   9.323  0.1405  0.6170  0.3952
   90SAPS  H12R 8738   0.571   1.171   9.345  1.4609  0.8250  2.8170
   90SAPS  C213 8739   0.562   1.324   9.183 -0.0988  0.1523  0.1806
   90SAPS  H13R 8740   0.500   1.416   9.181 -0.3686 -0.0352 -0.3149
   90SAPS  H13S 8741   0.497   1.253   9.127  0.5017  0.7233 -1.2923
   90SAPS  C214 8742   0.691   1.324   9.104 -0.2876  0.6584 -0.2608
   90SAPS  H14R 8743   0.751   1.236   9.131 -0.4201  0.9212  0.9461
   90SAPS  C215 8744   0.749   1.413   9.022 -0.6328  0.0686  1.3029
   90SAPS  H15R 8745   0.851   1.385   8.989 -1.0651 -1.7362  1.3578
   90SAPS  C216 8746   0.700   1.549   8.983  0.3141  0.6422 -0.0042
   90SAPS  H16R 8747   0.760   1.631   9.027 -0.5902  1.0458  0.5118
   90SAPS  H16S 8748   0.597   1.568   9.021 -0.7545  0.3465 -2.5325
   90SAPS  C217 8749   0.722   1.566   8.832  0.4575  0.3675 -1.2780
   90SAPS  H17R 8750   0.677   1.668   8.828  2.4621  1.2971 -1.3174
   90SAPS  H17S 8751   0.668   1.499   8.763  1.2586  2.2660 -3.9028
   90SAPS  C218 8752   0.869   1.591   8.786  0.3131 -0.3583 -0.2851
   90SAPS  H18R 8753   0.941   1.512   8.816  2.4437  0.7268 -2.2607
   90SAPS  H18S 8754   0.902   1.690   8.824 -1.6190  0.3872 -0.4208
   90SAPS  C219 8755   0.871   1.592   8.631  0.3911  0.4954  0.4451
   90SAPS  H19R 8756   0.829   1.686   8.588  0.7071 -0.1145 -1.2572
   90SAPS  H19S 8757   0.817   1.511   8.579 -0.0844  2.7161 -2.8498
   90SAPS  C220 8758   1.021   1.595   8.581  0.5907  0.5995 -0.1926
   90SAPS  H20R 8759   1.078   1.511   8.625 -0.2421 -0.1662 -0.5488
   90SAPS  H20S 8760   1.078   1.687   8.609 -1.0255  1.8438 -0.8410
   90SAPS  H20T 8761   1.019   1.576   8.472 -2.2928 -0.5003 -0.0281
   90SAPS   C33 8762   0.409   1.067  10.308 -0.0463 -0.3286 -0.3110
   90SAPS   H3X 8763   0.345   0.979  10.330  0.1325 -0.6555 -1.0823
   90SAPS   H3Y 8764   0.511   1.029  10.286  0.3990  1.4351 -1.5096
   90SAPS   C34 8765   0.368   1.139  10.176  0.6144  0.0595 -1.3903
   90SAPS   H4X 8766   0.419   1.237  10.171  2.3650 -0.8306 -1.5523
   90SAPS   H4Y 8767   0.259   1.161  10.180  0.9696  1.8985 -0.9080
   90SAPS   C35 8768   0.404   1.054  10.055 -0.0750  0.5808  0.7992
   90SAPS   H5X 8769   0.344   0.962  10.074 -4.3229  2.5315 -1.6887
   90SAPS   H5Y 8770   0.514   1.037  10.052 -0.3653 -1.8636  1.7673
   90SAPS   C36 8771   0.351   1.097   9.920  0.7152  0.2004  0.1068
   90SAPS   H6X 8772   0.413   1.188   9.903  1.3545  0.2680  2.3720
   90SAPS   H6Y 8773   0.241   1.113   9.919  0.0520 -3.4016 -1.8384
   90SAPS   C37 8774   0.393   1.003   9.805 -0.4824  0.3811 -0.3880
   90SAPS   H7X 8775   0.313   0.926   9.800  1.0291 -1.2734 -0.1700
   90SAPS   H7Y 8776   0.494   0.960   9.818 -0.6998 -1.1870 -3.1793
   90SAPS   C38 8777   0.408   1.076   9.677  0.2761 -0.2241 -0.0727
   90SAPS   H8X 8778   0.480   1.159   9.688  2.1720 -1.8497  0.4132
   90SAPS   H8Y 8779   0.310   1.120   9.649  0.4680  0.1301 -0.1873
   90SAPS   C39 8780   0.452   0.979   9.571  0.4421  0.0979  0.0221
   90SAPS   H9X 8781   0.542   0.925   9.609 -1.3946 -0.5939  3.8964
   90SAPS   H9Y 8782   0.495   1.037   9.487  1.1641 -0.2334  0.1547
   90SAPS  C310 8783   0.339   0.878   9.532 -0.1778  0.4746 -0.9352
   90SAPS  H10X 8784   0.256   0.941   9.494 -0.6278 -0.6797 -1.9245
   90SAPS  H10Y 8785   0.323   0.817   9.623  0.1996 -0.4083 -1.4561
   90SAPS  C311 8786   0.375   0.773   9.431  0.3465 -0.7434 -0.3248
   90SAPS  H11X 8787   0.301   0.691   9.418  0.5306 -1.1985  1.2432
   90SAPS  H11Y 8788   0.471   0.730   9.468  0.8933  2.4677  2.5169
   90SAPS  C312 8789   0.384   0.835   9.284 -0.0310  1.2490 -0.4072
   90SAPS  H12X 8790   0.465   0.910   9.296  1.8807 -0.6739 -0.6364
   90SAPS  H12Y 8791   0.286   0.881   9.258 -1.0483  1.1743  2.8239
   90SAPS  C313 8792   0.415   0.730   9.170  0.0699  0.1069 -0.9467
   90SAPS  H13X 8793   0.359   0.634   9.176 -0.5532  0.4608 -1.0879
   90SAPS  H13Y 8794   0.525   0.716   9.177  0.5770  3.8337  0.6739
   90SAPS  C314 8795   0.385   0.793   9.038 -0.0514  0.4471  0.4846
   90SAPS  H14X 8796   0.415   0.900   9.041  1.6215  0.0541 -0.8757
   90SAPS  H14Y 8797   0.274   0.799   9.030  0.1008  0.7379 -1.9549
   90SAPS  C315 8798   0.426   0.717   8.913  0.1874 -0.5676  0.5770
   90SAPS  H15X 8799   0.425   0.779   8.822  0.7269  0.6230  1.3627
   90SAPS  H15Y 8800   0.355   0.631   8.906  1.1974 -1.4083  0.4114
   90SAPS  C316 8801   0.567   0.659   8.912 -0.5191 -0.2885  0.2836
   90SAPS  H16X 8802   0.562   0.558   8.956  2.9583 -2.6285 -3.9036
   90SAPS  H16Y 8803   0.641   0.724   8.964 -1.9913  1.3562  0.3967
   90SAPS  C317 8804   0.608   0.630   8.766  0.1886 -0.4585 -0.4821
   90SAPS  H17X 8805   0.584   0.705   8.688  2.3572  0.7958 -0.0130
   90SAPS  H17Y 8806   0.542   0.541   8.756 -0.1122 -0.5936  2.1522
   90SAPS  C318 8807   0.751   0.587   8.744  0.2863 -1.1514  1.0464
   90SAPS  H18X 8808   0.777   0.502   8.811 -0.5436 -2.0061  0.3214
   90SAPS  H18Y 8809   0.829   0.664   8.757  1.0740 -1.8743  0.7148
   90SAPS  H18Z 8810   0.766   0.552   8.639 -1.0489  0.8069  0.1571
   91SAPS     N 8811   0.542   2.347   6.054  0.1674 -0.2229 -0.2401
   91SAPS   HN1 8812   0.588   2.263   6.013 -1.3766 -1.2772  0.0742
   91SAPS   HN2 8813   0.619   2.408   6.087 -0.4712 -0.2129  1.3424
   91SAPS   HN3 8814   0.471   2.320   6.126  2.0761 -1.8699  1.1360
   91SAPS   C12 8815   0.475   2.420   5.947 -0.2711  0.2140  0.8683
   91SAPS  H12A 8816   0.554   2.478   5.901  1.5995 -2.2120  0.8239
   91SAPS   C13 8817   0.396   2.330   5.841  0.5146 -0.5603  1.1422
   91SAPS  O13A 8818   0.401   2.203   5.862  0.0386 -0.4627  0.5615
   91SAPS  O13B 8819   0.351   2.377   5.732 -0.0673 -0.0045 -0.3856
   91SAPS   C11 8820   0.357   2.512   6.002 -0.3572 -0.3966 -0.3198
   91SAPS  H11A 8821   0.261   2.459   6.020 -0.2273 -1.1826 -1.8247
   91SAPS  H11B 8822   0.329   2.578   5.918  1.2713 -0.1502 -0.6908
   91SAPS     P 8823   0.379   2.568   6.252  0.5003 -0.1302  0.1784
   91SAPS   O13 8824   0.500   2.612   6.324  0.4773 -0.3242 -0.6466
   91SAPS   O14 8825   0.252   2.628   6.293  0.4837 -0.4153  0.6163
   91SAPS   O12 8826   0.403   2.609   6.102  0.2497  0.2539  0.2956
   91SAPS   O11 8827   0.379   2.413   6.256  0.4942 -0.3869 -0.3115
   91SAPS    C1 8828   0.373   2.341   6.379 -0.2987  0.0952 -0.0227
   91SAPS    HA 8829   0.442   2.254   6.370  0.6427  0.9965 -2.4111
   91SAPS    HB 8830   0.397   2.404   6.467 -1.2418  0.1671  0.1949
   91SAPS    C2 8831   0.231   2.278   6.393  0.4740  0.3462  0.6658
   91SAPS    HS 8832   0.184   2.284   6.293 -0.9407  0.2645  1.3003
   91SAPS   O21 8833   0.156   2.352   6.489 -0.1388  0.1157 -0.4145
   91SAPS   C21 8834   0.049   2.419   6.460 -0.1084 -0.2195  0.2668
   91SAPS   O22 8835  -0.015   2.410   6.354  0.1392 -0.2568 -0.1641
   91SAPS   C22 8836   0.004   2.488   6.582 -0.0274 -1.0153  0.2574
   91SAPS   H2R 8837  -0.095   2.533   6.559 -0.4661 -1.7093  0.7512
   91SAPS   H2S 8838  -0.024   2.412   6.658 -0.8862  0.1672  1.1620
   91SAPS    C3 8839   0.250   2.124   6.434 -0.0170  0.1171 -0.8393
   91SAPS    HX 8840   0.300   2.070   6.351  1.0049 -2.3574  1.2727
   91SAPS    HY 8841   0.149   2.082   6.452 -0.1942  1.6767  2.7724
   91SAPS   O31 8842   0.338   2.103   6.545 -0.0883 -0.3865  0.5014
   91SAPS   C31 8843   0.273   2.122   6.662 -0.1904  0.3570  0.1109
   91SAPS   O32 8844   0.154   2.143   6.670 -0.5568 -0.3444 -0.2129
   91SAPS   C32 8845   0.374   2.103   6.784  0.2762  0.2461  0.2199
   91SAPS   H2X 8846   0.465   2.057   6.741 -0.5823  0.5395 -2.0782
   91SAPS   H2Y 8847   0.335   2.019   6.846  1.8021 -1.1259 -0.6141
   91SAPS   C23 8848   0.098   2.596   6.641 -0.2333 -0.5013 -0.3226
   91SAPS   H3R 8849   0.027   2.661   6.695 -0.2843 -0.0979 -0.8632
   91SAPS   H3S 8850   0.135   2.658   6.556  1.6523 -1.1318 -0.0134
   91SAPS   C24 8851   0.214   2.524   6.722  0.0648  0.3270  0.3986
   91SAPS   H4R 8852   0.269   2.461   6.649 -1.1452 -0.8835  0.5026
   91SAPS   H4S 8853   0.180   2.461   6.807  0.0190 -0.5743 -0.2841
   91SAPS   C25 8854   0.315   2.625   6.770 -0.4387  0.0997 -0.4146
   91SAPS   H5R 8855   0.413   2.624   6.721  0.3425  0.5957  1.0826
   91SAPS   C26 8856   0.302   2.705   6.877 -0.0468  0.3579  0.1364
   91SAPS   H6R 8857   0.383   2.779   6.882 -0.9626  1.5443 -1.6254
   91SAPS   C27 8858   0.181   2.713   6.975  0.0939  0.2574  0.5546
   91SAPS   H7R 8859   0.215   2.727   7.079  0.5097 -3.5059  1.0746
   91SAPS   H7S 8860   0.133   2.613   6.988  0.8187  0.0259  1.5324
   91SAPS   C28 8861   0.084   2.829   6.941 -0.3665  0.1127 -0.0019
   91SAPS   H8R 8862  -0.022   2.802   6.940 -0.6044  0.9674 -1.6519
   91SAPS   C29 8863   0.110   2.963   6.938  0.5984  0.6956 -0.3396
   91SAPS   H9R 8864   0.021   3.027   6.925  0.2506  0.3784  0.4581
   91SAPS  C210 8865   0.238   3.026   6.974 -1.0830 -0.9619 -0.0779
   91SAPS  H10R 8866   0.268   3.082   6.883 -1.4953 -0.9061 -0.1805
   91SAPS  H10S 8867   0.329   2.962   6.974  1.5842  2.4820 -0.2112
   91SAPS  C211 8868   0.223   3.120   7.087 -0.0275 -0.6671 -0.1848
   91SAPS  H11R 8869   0.171   3.214   7.061 -1.4189 -1.3472  0.0477
   91SAPS  C212 8870   0.270   3.112   7.213 -0.0567  0.1284  0.3159
   91SAPS  H12R 8871   0.256   3.193   7.286 -2.6257 -0.4150  0.5227
   91SAPS  C213 8872   0.336   2.979   7.258  0.0735 -0.4355  0.5324
   91SAPS  H13R 8873   0.443   2.987   7.230 -0.5259 -1.8188 -2.4220
   91SAPS  H13S 8874   0.307   2.891   7.197  0.3424  0.6826 -1.2719
   91SAPS  C214 8875   0.317   2.966   7.410  0.3119 -0.4180  0.6726
   91SAPS  H14R 8876   0.353   3.060   7.455 -0.0885  0.9015 -1.5815
   91SAPS  C215 8877   0.252   2.876   7.479  0.0309  0.5694  0.2280
   91SAPS  H15R 8878   0.255   2.880   7.589 -2.3855  3.7737  0.3282
   91SAPS  C216 8879   0.178   2.753   7.433 -0.5528  0.1973  0.2972
   91SAPS  H16R 8880   0.229   2.662   7.472  1.1924  1.7527  1.8395
   91SAPS  H16S 8881   0.168   2.732   7.325  2.0588 -2.0182  0.3985
   91SAPS  C217 8882   0.029   2.758   7.476  0.1002  0.4796  0.4473
   91SAPS  H17R 8883  -0.017   2.668   7.430  2.0722 -1.0243  1.2998
   91SAPS  H17S 8884  -0.019   2.850   7.435 -1.1887 -0.5384 -0.4419
   91SAPS  C218 8885   0.004   2.735   7.624  0.2958  0.2057 -0.5366
   91SAPS  H18R 8886  -0.104   2.743   7.646  0.7430 -1.5399  2.9434
   91SAPS  H18S 8887   0.039   2.821   7.685 -1.3184  1.2015 -0.9802
   91SAPS  C219 8888   0.053   2.608   7.696 -0.0906  0.0045  0.2091
   91SAPS  H19R 8889   0.017   2.615   7.801  0.8968 -0.5772  0.6075
   91SAPS  H19S 8890   0.163   2.590   7.697  0.2921  1.6607 -2.6060
   91SAPS  C220 8891  -0.006   2.478   7.642 -0.4002 -0.6684  0.3521
   91SAPS  H20R 8892  -0.115   2.477   7.620 -0.3936 -0.2995  0.2965
   91SAPS  H20S 8893   0.009   2.396   7.715 -0.9042 -1.0399  0.0424
   91SAPS  H20T 8894   0.042   2.455   7.544  3.0369  1.5995  1.3352
   91SAPS   C33 8895   0.391   2.241   6.852  0.2110  0.1040  0.1618
   91SAPS   H3X 8896   0.300   2.279   6.903  0.0569 -0.4405  0.2912
   91SAPS   H3Y 8897   0.420   2.319   6.777 -0.3099  0.7289  0.5970
   91SAPS   C34 8898   0.516   2.233   6.936  0.1774  0.8838 -0.1253
   91SAPS   H4X 8899   0.603   2.214   6.869  1.6836 -0.0402  1.9936
   91SAPS   H4Y 8900   0.509   2.144   7.001  2.5946  0.1849 -0.7288
   91SAPS   C35 8901   0.545   2.345   7.040  0.3048 -0.1927 -0.3951
   91SAPS   H5X 8902   0.549   2.445   6.992 -0.1915 -0.4720 -1.0247
   91SAPS   H5Y 8903   0.648   2.319   7.073 -0.4212  0.5058  2.6910
   91SAPS   C36 8904   0.473   2.352   7.175 -0.0089  0.0300  0.3830
   91SAPS   H6X 8905   0.478   2.255   7.230 -1.8343  0.2468  0.9933
   91SAPS   H6Y 8906   0.367   2.378   7.155 -0.0629  1.3916  2.1532
   91SAPS   C37 8907   0.531   2.460   7.270 -0.3518  0.2688  0.5172
   91SAPS   H7X 8908   0.520   2.551   7.207  1.6369 -0.2745 -0.6877
   91SAPS   H7Y 8909   0.640   2.441   7.277 -0.7789 -4.0307 -1.1138
   91SAPS   C38 8910   0.453   2.483   7.402  0.7483 -0.2353  0.3170
   91SAPS   H8X 8911   0.344   2.489   7.385  0.9566  2.0664 -0.5791
   91SAPS   H8Y 8912   0.483   2.580   7.448  2.0694  0.0727 -1.0947
   91SAPS   C39 8913   0.460   2.364   7.497  0.0129  0.1662  0.0406
   91SAPS   H9X 8914   0.560   2.345   7.542  0.5928  0.6561 -0.9979
   91SAPS   H9Y 8915   0.417   2.275   7.447 -1.5863  1.3480 -0.7613
   91SAPS  C310 8916   0.376   2.392   7.624  0.3721  0.0196 -0.1943
   91SAPS  H10X 8917   0.272   2.415   7.595  0.5720  2.7255  0.9417
   91SAPS  H10Y 8918   0.413   2.493   7.652 -1.8404  1.0149 -0.6727
   91SAPS  C311 8919   0.398   2.292   7.736 -0.3403  0.0743 -0.1041
   91SAPS  H11X 8920   0.507   2.289   7.757 -0.4938  0.9544  0.8686
   91SAPS  H11Y 8921   0.361   2.198   7.690 -1.6019 -0.5284  2.0271
   91SAPS  C312 8922   0.318   2.307   7.867  0.2352 -0.0199 -0.6572
   91SAPS  H12X 8923   0.209   2.303   7.845 -0.1335 -1.7438  1.1808
   91SAPS  H12Y 8924   0.335   2.409   7.906 -2.2632  0.8033 -1.5394
   91SAPS  C313 8925   0.337   2.183   7.965  0.2872  0.0209  0.7342
   91SAPS  H13X 8926   0.444   2.189   7.994  0.7049 -0.8667 -0.5509
   91SAPS  H13Y 8927   0.314   2.084   7.920  0.4646 -1.0503  2.8685
   91SAPS  C314 8928   0.252   2.188   8.091 -0.2171  0.3178 -0.2123
   91SAPS  H14X 8929   0.142   2.193   8.077 -0.2019  2.5245  0.0551
   91SAPS  H14Y 8930   0.280   2.284   8.140  0.8646 -0.3923  0.6205
   91SAPS  C315 8931   0.289   2.076   8.187 -0.3770 -0.0722 -0.0477
   91SAPS  H15X 8932   0.267   1.979   8.138  4.2106  0.2848 -3.4907
   91SAPS  H15Y 8933   0.227   2.088   8.278 -0.2302 -0.5849  0.1289
   91SAPS  C316 8934   0.436   2.080   8.240  0.2594  0.5206  0.0265
   91SAPS  H16X 8935   0.443   2.172   8.301  0.6342 -1.5442  3.3684
   91SAPS  H16Y 8936   0.509   2.071   8.157  0.9653 -1.0468  0.7659
   91SAPS  C317 8937   0.459   1.975   8.346 -0.2489 -0.6699 -0.9127
   91SAPS  H17X 8938   0.473   1.876   8.297  1.5409  0.3081 -2.5373
   91SAPS  H17Y 8939   0.368   1.977   8.409 -0.4466  0.3894 -1.2116
   91SAPS  C318 8940   0.583   1.996   8.429  0.4480  0.5471 -0.5883
   91SAPS  H18X 8941   0.619   1.912   8.493 -0.8011  0.0028 -0.5838
   91SAPS  H18Y 8942   0.579   2.085   8.495  2.1949 -0.4808  1.0125
   91SAPS  H18Z 8943   0.664   2.010   8.355  0.0150  0.1543 -1.1453
   92SAPS     N 8944   0.139   6.727   6.264  0.1194  0.3844 -0.1634
   92SAPS   HN1 8945   0.235   6.707   6.299  0.6655 -3.0862 -3.0633
   92SAPS   HN2 8946   0.076   6.736   6.346  0.3608  0.5569  0.0054
   92SAPS   HN3 8947   0.119   6.637   6.216  0.7476  1.0539 -1.7433
   92SAPS   C12 8948   0.128   6.843   6.177 -0.3383  0.1761  0.4595
   92SAPS  H12A 8949   0.219   6.841   6.119 -0.2561 -0.0167  0.5915
   92SAPS   C13 8950   0.002   6.830   6.085 -0.2401 -0.1180  0.2590
   92SAPS  O13A 8951  -0.078   6.732   6.086  0.4694 -0.0242  0.0089
   92SAPS  O13B 8952  -0.017   6.930   6.007 -0.1463  0.4653 -0.4760
   92SAPS   C11 8953   0.115   6.968   6.267  0.1004  0.6155  0.9850
   92SAPS  H11A 8954   0.099   7.057   6.202  2.9949  1.3180  1.0615
   92SAPS  H11B 8955   0.210   6.982   6.324  0.4063  0.9177  0.4152
   92SAPS     P 8956  -0.090   7.034   6.406  0.1573 -0.2113  0.5615
   92SAPS   O13 8957  -0.130   7.121   6.291  0.4385 -0.1936  0.2820
   92SAPS   O14 8958  -0.202   6.949   6.462 -0.2781 -0.0633 -0.3705
   92SAPS   O12 8959   0.009   6.933   6.357 -0.8912 -1.0879  0.2207
   92SAPS   O11 8960  -0.019   7.114   6.520 -0.2321 -0.0591  0.0125
   92SAPS    C1 8961   0.078   7.047   6.602 -0.3755  0.1016  0.4537
   92SAPS    HA 8962   0.099   6.941   6.578  0.4241  0.1171  1.0415
   92SAPS    HB 8963   0.178   7.095   6.597 -0.2303 -0.2853 -0.4138
   92SAPS    C2 8964   0.028   7.046   6.753 -0.4505 -0.1550 -0.3955
   92SAPS    HS 8965  -0.083   7.056   6.749 -0.3498  0.6498 -2.8692
   92SAPS   O21 8966   0.096   7.151   6.830  0.5788 -0.1276  0.3471
   92SAPS   C21 8967   0.011   7.211   6.908  0.0924  0.7433  0.4765
   92SAPS   O22 8968  -0.097   7.174   6.945 -0.3584  0.2575 -0.8561
   92SAPS   C22 8969   0.073   7.347   6.942  0.2779  0.4032 -0.1128
   92SAPS   H2R 8970   0.087   7.410   6.852 -0.4551 -0.4843 -0.8709
   92SAPS   H2S 8971  -0.003   7.387   7.013  1.5199 -0.9517  2.0971
   92SAPS    C3 8972   0.057   6.907   6.820 -0.1971  0.9142  0.4642
   92SAPS    HX 8973   0.167   6.895   6.815 -0.2320  1.0152 -1.2998
   92SAPS    HY 8974   0.013   6.835   6.748 -0.4478 -0.2586  1.7484
   92SAPS   O31 8975   0.005   6.887   6.953 -0.2156 -0.1850 -0.3096
   92SAPS   C31 8976  -0.123   6.862   6.964 -0.0098  0.7896  0.1927
   92SAPS   O32 8977  -0.196   6.826   6.873 -0.4218  0.2741  0.4583
   92SAPS   C32 8978  -0.161   6.869   7.112 -0.4413 -0.0397  0.3553
   92SAPS   H2X 8979  -0.172   6.765   7.149 -0.9463 -0.1482 -0.0822
   92SAPS   H2Y 8980  -0.255   6.929   7.119  0.4031  1.2054  1.5696
   92SAPS   C23 8981   0.219   7.322   7.000  0.0175 -0.3161  0.3862
   92SAPS   H3R 8982   0.249   7.427   7.022 -1.8761  0.5107 -0.6410
   92SAPS   H3S 8983   0.287   7.278   6.924  1.1050 -2.4288  2.4664
   92SAPS   C24 8984   0.203   7.249   7.134  0.3331 -0.1228 -0.6251
   92SAPS   H4R 8985   0.195   7.140   7.116 -0.4323 -0.3738  1.0787
   92SAPS   H4S 8986   0.106   7.290   7.169  1.3800  2.1144 -0.1196
   92SAPS   C25 8987   0.321   7.282   7.222 -0.4097  0.7449  0.3960
   92SAPS   H5R 8988   0.418   7.239   7.193  0.1454 -0.8220  3.9843
   92SAPS   C26 8989   0.312   7.337   7.346 -0.5367 -0.5516  0.5671
   92SAPS   H6R 8990   0.401   7.343   7.411 -1.7818 -0.0900  2.3173
   92SAPS   C27 8991   0.184   7.376   7.419  0.1215 -0.0504 -0.7813
   92SAPS   H7R 8992   0.120   7.433   7.348  0.5900  1.7542  0.1958
   92SAPS   H7S 8993   0.212   7.444   7.502 -1.7132 -0.6023  0.3249
   92SAPS   C28 8994   0.110   7.254   7.466 -0.2029  0.2706 -0.0361
   92SAPS   H8R 8995   0.047   7.207   7.389 -0.4551 -0.8307  0.8258
   92SAPS   C29 8996   0.125   7.195   7.589  0.9266  0.2870  0.4330
   92SAPS   H9R 8997   0.062   7.109   7.617 -0.4998  1.3476  0.6078
   92SAPS  C210 8998   0.216   7.255   7.690 -0.6840 -0.4845 -0.2381
   92SAPS  H10R 8999   0.310   7.282   7.637 -0.0430 -0.9272  0.6441
   92SAPS  H10S 9000   0.261   7.180   7.759  0.9202  1.6891  1.2117
   92SAPS  C211 9001   0.166   7.369   7.768 -0.4834 -0.5518 -0.2670
   92SAPS  H11R 9002   0.146   7.461   7.710  0.9948  0.0961  0.1998
   92SAPS  C212 9003   0.171   7.377   7.900 -0.0301 -0.5984  0.7227
   92SAPS  H12R 9004   0.136   7.476   7.935 -0.5351  0.1707 -1.7699
   92SAPS  C213 9005   0.222   7.284   8.010 -0.5286 -0.3828  0.4995
   92SAPS  H13R 9006   0.220   7.178   7.977  0.1089 -0.0190 -0.7734
   92SAPS  H13S 9007   0.157   7.293   8.099 -0.3636 -1.0037  0.6901
   92SAPS  C214 9008   0.373   7.319   8.031  0.9077  0.2021  0.1057
   92SAPS  H14R 9009   0.435   7.312   7.941 -1.2463 -0.2587 -1.4163
   92SAPS  C215 9010   0.432   7.363   8.147 -0.0309  0.8878  0.7007
   92SAPS  H15R 9011   0.534   7.400   8.133  0.9427 -2.3304 -2.0161
   92SAPS  C216 9012   0.366   7.365   8.286 -0.6974 -0.3216  0.3647
   92SAPS  H16R 9013   0.437   7.319   8.356  1.4584  1.2128 -0.6988
   92SAPS  H16S 9014   0.277   7.299   8.278  0.6694 -2.0754 -1.0623
   92SAPS  C217 9015   0.329   7.505   8.343  0.0615 -0.5023  0.4829
   92SAPS  H17R 9016   0.421   7.565   8.362 -1.4331  2.2535 -0.3645
   92SAPS  H17S 9017   0.280   7.478   8.438 -2.5874 -2.0297 -1.2012
   92SAPS  C218 9018   0.243   7.579   8.238 -0.2890  0.3502  0.1357
   92SAPS  H18R 9019   0.153   7.518   8.212  1.0288 -0.9925 -1.5880
   92SAPS  H18S 9020   0.302   7.582   8.144 -2.0365 -0.9027 -1.0755
   92SAPS  C219 9021   0.175   7.702   8.294 -0.1655 -0.4103 -0.3826
   92SAPS  H19R 9022   0.137   7.686   8.397  1.2448  1.4698  0.5090
   92SAPS  H19S 9023   0.087   7.734   8.233 -0.0576 -1.3848 -1.0644
   92SAPS  C220 9024   0.264   7.825   8.308  0.1928  0.1515 -0.7946
   92SAPS  H20R 9025   0.344   7.803   8.382 -0.8790 -1.2510  0.0153
   92SAPS  H20S 9026   0.206   7.917   8.328 -2.8181 -1.6005 -0.8201
   92SAPS  H20T 9027   0.310   7.851   8.210  0.9085  0.9817 -0.2497
   92SAPS   C33 9028  -0.051   6.927   7.204  0.0365  0.7381 -0.5673
   92SAPS   H3X 9029  -0.022   7.028   7.168 -1.4352  2.6633  3.1379
   92SAPS   H3Y 9030   0.039   6.861   7.193  1.1830  1.2274  3.8844
   92SAPS   C34 9031  -0.098   6.938   7.352 -0.2684 -0.4005  0.2179
   92SAPS   H4X 9032  -0.187   7.005   7.353 -0.3450 -0.4704 -0.5690
   92SAPS   H4Y 9033  -0.022   6.990   7.414 -0.2361 -0.2806  0.0807
   92SAPS   C35 9034  -0.154   6.818   7.420  0.0009 -0.4288 -0.2661
   92SAPS   H5X 9035  -0.079   6.735   7.417  1.4751  0.8200  0.3968
   92SAPS   H5Y 9036  -0.240   6.776   7.365  1.2149 -0.1672 -2.4808
   92SAPS   C36 9037  -0.199   6.843   7.564  0.2984 -0.7352  0.9965
   92SAPS   H6X 9038  -0.294   6.899   7.549  1.5043  1.1645 -0.1045
   92SAPS   H6Y 9039  -0.130   6.918   7.609  0.6023  0.8663 -1.8394
   92SAPS   C37 9040  -0.223   6.717   7.643  0.4468 -0.1011 -0.0192
   92SAPS   H7X 9041  -0.131   6.679   7.693 -0.7684 -0.5103  2.0054
   92SAPS   H7Y 9042  -0.262   6.639   7.574 -3.4444  2.2125 -0.7316
   92SAPS   C38 9043  -0.331   6.734   7.745 -0.2834 -0.1267  0.0831
   92SAPS   H8X 9044  -0.425   6.764   7.693  0.2528  2.0069  0.2762
   92SAPS   H8Y 9045  -0.309   6.822   7.809 -1.5106 -1.7838  2.9892
   92SAPS   C39 9046  -0.356   6.612   7.832 -0.2859 -0.0981  0.2238
   92SAPS   H9X 9047  -0.256   6.569   7.856 -1.0760 -2.3956 -0.3932
   92SAPS   H9Y 9048  -0.406   6.546   7.758 -0.9627 -0.9358  1.3970
   92SAPS  C310 9049  -0.455   6.639   7.948  0.3069  0.0257  0.2725
   92SAPS  H10X 9050  -0.497   6.539   7.971  0.3168  0.7781  4.3569
   92SAPS  H10Y 9051  -0.538   6.707   7.918  0.2528 -0.5475 -0.9451
   92SAPS  C311 9052  -0.380   6.690   8.070 -0.3727  0.5922  0.1768
   92SAPS  H11X 9053  -0.329   6.783   8.039 -0.5605  1.1541  1.5044
   92SAPS  H11Y 9054  -0.305   6.612   8.095 -0.5670  0.2945 -0.1585
   92SAPS  C312 9055  -0.471   6.717   8.185 -1.0595  0.0854  0.1866
   92SAPS  H12X 9056  -0.504   6.618   8.224 -1.6033  0.7689  1.5402
   92SAPS  H12Y 9057  -0.560   6.779   8.163 -0.2643  0.9225 -0.8049
   92SAPS  C313 9058  -0.390   6.788   8.302  0.3434 -0.7240  0.1450
   92SAPS  H13X 9059  -0.459   6.794   8.390 -0.6962  2.0529 -0.7389
   92SAPS  H13Y 9060  -0.370   6.891   8.266 -0.3262 -0.6394 -0.0121
   92SAPS  C314 9061  -0.257   6.721   8.338  0.6565  0.7968 -0.4222
   92SAPS  H14X 9062  -0.202   6.783   8.412  3.7045 -3.9247  1.7403
   92SAPS  H14Y 9063  -0.205   6.706   8.241 -1.2973  1.9753 -1.7247
   92SAPS  C315 9064  -0.271   6.583   8.412  0.4596 -0.4590  0.0051
   92SAPS  H15X 9065  -0.344   6.514   8.366 -1.7273  0.6340  1.6342
   92SAPS  H15Y 9066  -0.317   6.609   8.510 -1.7709  2.0535 -1.5949
   92SAPS  C316 9067  -0.138   6.510   8.422 -0.3858  0.3627  0.0951
   92SAPS  H16X 9068  -0.063   6.582   8.461  0.0693 -0.8541  1.5792
   92SAPS  H16Y 9069  -0.097   6.462   8.330  1.2973 -1.4740  1.6961
   92SAPS  C317 9070  -0.137   6.401   8.525 -0.2489  0.2006 -0.0541
   92SAPS  H17X 9071  -0.204   6.316   8.498 -1.0958  0.4228  1.2570
   92SAPS  H17Y 9072  -0.182   6.437   8.619 -1.9349  2.0889 -1.5121
   92SAPS  C318 9073  -0.005   6.329   8.548 -0.2559 -0.0133 -0.1014
   92SAPS  H18X 9074   0.064   6.401   8.596 -1.3593  1.5570 -0.8137
   92SAPS  H18Y 9075   0.037   6.296   8.451 -1.2854 -3.0330  0.3642
   92SAPS  H18Z 9076  -0.019   6.240   8.614 -3.4125 -0.6560 -1.4549
   93SAPS     N 9077   0.456   6.306   6.443  0.3029  0.0142  0.5837
   93SAPS   HN1 9078   0.480   6.301   6.544  0.4537 -0.6806  0.5166
   93SAPS   HN2 9079   0.427   6.211   6.413  1.9024  0.1852 -1.7461
   93SAPS   HN3 9080   0.529   6.342   6.379 -1.8387  2.5634 -0.6088
   93SAPS   C12 9081   0.318   6.381   6.422  0.9956  0.9298  0.1722
   93SAPS  H12A 9082   0.327   6.487   6.441 -0.7363  0.8579  1.6091
   93SAPS   C13 9083   0.267   6.380   6.268 -0.7808  0.4990 -0.3439
   93SAPS  O13A 9084   0.345   6.331   6.182 -0.5633 -0.1418  0.8509
   93SAPS  O13B 9085   0.165   6.443   6.232  0.3576 -0.2368 -0.1877
   93SAPS   C11 9086   0.206   6.311   6.510  0.8875 -0.5886  0.1128
   93SAPS  H11A 9087   0.176   6.220   6.454  1.3299 -0.0373 -1.0499
   93SAPS  H11B 9088   0.128   6.389   6.521  1.5016  0.4178 -2.1572
   93SAPS     P 9089   0.186   6.207   6.746  0.2365  0.4709 -0.0574
   93SAPS   O13 9090   0.043   6.239   6.728  0.3715 -0.1448  0.2289
   93SAPS   O14 9091   0.212   6.059   6.746  0.5098 -0.7950  0.1492
   93SAPS   O12 9092   0.267   6.279   6.633  0.3363  0.0581 -0.5682
   93SAPS   O11 9093   0.252   6.272   6.872  0.0172 -0.1139  0.0236
   93SAPS    C1 9094   0.388   6.298   6.888  0.3577  0.2578  0.4334
   93SAPS    HA 9095   0.434   6.208   6.935  0.4974 -0.4632 -1.0306
   93SAPS    HB 9096   0.443   6.304   6.793  1.1434 -1.1291  0.7755
   93SAPS    C2 9097   0.412   6.440   6.951 -0.6548  0.6194 -0.0611
   93SAPS    HS 9098   0.516   6.469   6.925 -0.5465 -0.8639 -1.3720
   93SAPS   O21 9099   0.395   6.439   7.093  0.1735  0.0659 -0.1039
   93SAPS   C21 9100   0.492   6.382   7.160  0.4398  0.0508 -0.1526
   93SAPS   O22 9101   0.596   6.342   7.117 -0.1827 -0.4566 -0.1952
   93SAPS   C22 9102   0.459   6.400   7.309  0.1064 -0.3622  0.0771
   93SAPS   H2R 9103   0.435   6.508   7.322  0.8792 -0.0496 -0.9621
   93SAPS   H2S 9104   0.375   6.331   7.333 -1.4579  1.9537  1.7069
   93SAPS    C3 9105   0.314   6.549   6.885  0.0122  0.4026  0.4040
   93SAPS    HX 9106   0.209   6.527   6.915 -0.1742  0.2684 -0.3217
   93SAPS    HY 9107   0.335   6.526   6.778 -1.2818  0.4868  0.1194
   93SAPS   O31 9108   0.355   6.681   6.922 -0.1014  0.0202 -0.1057
   93SAPS   C31 9109   0.291   6.731   7.031 -0.7180 -0.1831 -0.1725
   93SAPS   O32 9110   0.193   6.677   7.076  0.2243 -0.1728 -0.2976
   93SAPS   C32 9111   0.356   6.864   7.068 -0.1029 -0.3863 -0.6173
   93SAPS   H2X 9112   0.301   6.941   7.010  0.1435  1.3298  1.2959
   93SAPS   H2Y 9113   0.461   6.862   7.030  1.4587  1.1133  3.1221
   93SAPS   C23 9114   0.588   6.392   7.407 -0.2586 -0.4247 -0.0925
   93SAPS   H3R 9115   0.658   6.477   7.390 -2.1373  1.1604 -0.2494
   93SAPS   H3S 9116   0.642   6.298   7.383  1.8203  0.7969 -0.4861
   93SAPS   C24 9117   0.565   6.399   7.559 -0.1111 -0.0103  0.1703
   93SAPS   H4R 9118   0.524   6.498   7.587 -0.5661 -0.4759  1.2098
   93SAPS   H4S 9119   0.665   6.403   7.608 -0.0004 -2.7600  0.3336
   93SAPS   C25 9120   0.481   6.281   7.606 -0.0520  0.2838  0.3122
   93SAPS   H5R 9121   0.394   6.259   7.542  0.8819  0.8669 -1.2282
   93SAPS   C26 9122   0.509   6.202   7.711  0.7571 -0.3460 -0.7217
   93SAPS   H6R 9123   0.440   6.123   7.745 -0.8143  0.8704 -0.9492
   93SAPS   C27 9124   0.633   6.213   7.800 -0.6140 -0.1086 -0.2361
   93SAPS   H7R 9125   0.722   6.249   7.744 -0.3643  0.3857  0.4735
   93SAPS   H7S 9126   0.662   6.109   7.829 -1.2140  0.4306  2.5590
   93SAPS   C28 9127   0.617   6.308   7.918 -0.3464 -0.2270  0.3328
   93SAPS   H8R 9128   0.606   6.413   7.888 -1.8038 -0.6677 -0.8407
   93SAPS   C29 9129   0.624   6.278   8.049  0.3582 -0.4113 -1.0186
   93SAPS   H9R 9130   0.596   6.362   8.115  0.5900  0.5625 -2.1218
   93SAPS  C210 9131   0.653   6.148   8.117 -0.4985  0.3312 -0.7389
   93SAPS  H10R 9132   0.700   6.162   8.217  0.4956 -2.6751 -0.6833
   93SAPS  H10S 9133   0.722   6.084   8.059 -2.1350 -1.8608 -0.4130
   93SAPS  C211 9134   0.522   6.070   8.137  0.0329  0.0844 -0.1328
   93SAPS  H11R 9135   0.461   6.062   8.046 -1.8090  2.6627  0.7763
   93SAPS  C212 9136   0.479   6.028   8.258  0.2294  0.3478 -0.2669
   93SAPS  H12R 9137   0.378   5.984   8.259 -0.1854  1.2779  0.9099
   93SAPS  C213 9138   0.537   6.033   8.396  0.2903  0.0152 -1.1073
   93SAPS  H13R 9139   0.459   6.029   8.476  0.0294  3.0161 -1.1112
   93SAPS  H13S 9140   0.576   6.136   8.411  0.8269 -0.5415  2.1307
   93SAPS  C214 9141   0.647   5.925   8.404  0.4140  0.0231 -0.0951
   93SAPS  H14R 9142   0.686   5.891   8.307  2.7418 -0.0134  0.8119
   93SAPS  C215 9143   0.679   5.857   8.516 -0.2658  0.8853  0.5049
   93SAPS  H15R 9144   0.761   5.784   8.506  1.0830  2.5974 -1.6572
   93SAPS  C216 9145   0.620   5.880   8.652  0.7216 -0.4388  0.0518
   93SAPS  H16R 9146   0.611   5.991   8.661  0.9473 -0.5112  1.4125
   93SAPS  H16S 9147   0.691   5.847   8.731 -0.4690 -1.6381  0.6482
   93SAPS  C217 9148   0.481   5.819   8.675 -0.7621  0.7206  0.6724
   93SAPS  H17R 9149   0.487   5.711   8.703 -0.7423  0.8661  1.2429
   93SAPS  H17S 9150   0.435   5.827   8.574  0.5285  0.4942  0.0504
   93SAPS  C218 9151   0.395   5.896   8.769  0.8006 -0.4476 -0.4209
   93SAPS  H18R 9152   0.298   5.851   8.798 -0.5614  2.1844 -0.6150
   93SAPS  H18S 9153   0.366   5.995   8.728  0.1739 -0.6037 -0.3662
   93SAPS  C219 9154   0.469   5.933   8.906 -0.2954  0.0226 -0.5486
   93SAPS  H19R 9155   0.551   6.005   8.885 -0.7673 -0.1441 -3.2780
   93SAPS  H19S 9156   0.514   5.836   8.936  0.8055  0.0870 -1.8825
   93SAPS  C220 9157   0.376   5.987   9.024  0.1873 -0.0848  0.1379
   93SAPS  H20R 9158   0.289   5.920   9.039  0.5392 -0.8538 -1.1126
   93SAPS  H20S 9159   0.334   6.083   8.989 -4.2542 -1.3992  1.2753
   93SAPS  H20T 9160   0.432   6.009   9.118 -3.4920  1.1293  2.2467
   93SAPS   C33 9161   0.362   6.894   7.226 -0.6096 -0.3699 -0.1831
   93SAPS   H3X 9162   0.259   6.914   7.261 -0.1129 -0.1106  1.2373
   93SAPS   H3Y 9163   0.430   6.982   7.235 -1.0629  0.4098 -3.1993
   93SAPS   C34 9164   0.424   6.776   7.307  0.7062 -0.6434 -0.0907
   93SAPS   H4X 9165   0.516   6.737   7.257  1.3135 -0.0006  0.4971
   93SAPS   H4Y 9166   0.343   6.702   7.292 -1.5829  1.4824  1.1751
   93SAPS   C35 9167   0.469   6.800   7.451 -0.0985  0.3863 -0.5660
   93SAPS   H5X 9168   0.557   6.868   7.458  0.2293 -0.0432 -0.4680
   93SAPS   H5Y 9169   0.507   6.701   7.484 -0.5578  0.1956 -0.5959
   93SAPS   C36 9170   0.359   6.847   7.541  0.1520 -0.4570  0.5003
   93SAPS   H6X 9171   0.279   6.770   7.539 -0.0996 -0.2412  1.7069
   93SAPS   H6Y 9172   0.319   6.946   7.509  0.0251 -0.1910  1.4618
   93SAPS   C37 9173   0.398   6.863   7.686 -0.1437 -0.7195  0.7546
   93SAPS   H7X 9174   0.459   6.950   7.718 -2.1518  0.6840  0.9242
   93SAPS   H7Y 9175   0.458   6.771   7.702  0.2993 -0.3587  1.2169
   93SAPS   C38 9176   0.277   6.862   7.779  0.9963 -0.1567 -0.2686
   93SAPS   H8X 9177   0.234   6.760   7.767  0.5575 -0.2682  1.9352
   93SAPS   H8Y 9178   0.210   6.939   7.733  2.1222 -0.2922 -2.2811
   93SAPS   C39 9179   0.305   6.869   7.927 -0.0804 -0.1266  0.0048
   93SAPS   H9X 9180   0.335   6.972   7.958  0.6009 -0.5012  0.6115
   93SAPS   H9Y 9181   0.379   6.795   7.964  1.3938  0.4473 -1.6589
   93SAPS  C310 9182   0.173   6.828   7.999  0.0698 -0.7402  0.6610
   93SAPS  H10X 9183   0.149   6.722   7.980 -1.4890 -0.5103  1.1861
   93SAPS  H10Y 9184   0.092   6.892   7.957  1.1391  0.4336  0.3198
   93SAPS  C311 9185   0.159   6.858   8.144 -0.5944  0.4585 -0.5235
   93SAPS  H11X 9186   0.202   6.961   8.153  0.1774  0.0269  1.0115
   93SAPS  H11Y 9187   0.234   6.794   8.195 -2.6301 -0.5280  1.3980
   93SAPS  C312 9188   0.022   6.838   8.218 -1.4407  0.4695 -0.6083
   93SAPS  H12X 9189   0.044   6.828   8.326 -2.1853  0.9342 -0.4061
   93SAPS  H12Y 9190  -0.016   6.743   8.174  0.4983 -1.0597  0.8754
   93SAPS  C313 9191  -0.074   6.950   8.175 -0.7888 -0.1820 -0.2155
   93SAPS  H13X 9192  -0.179   6.912   8.172 -0.9571  0.2827 -0.1834
   93SAPS  H13Y 9193  -0.047   6.998   8.078 -0.8935 -0.8728 -0.5961
   93SAPS  C314 9194  -0.076   7.061   8.284 -0.1427  0.7383 -0.3168
   93SAPS  H14X 9195   0.023   7.109   8.300 -0.7880  2.1299 -0.4279
   93SAPS  H14Y 9196  -0.111   7.021   8.382  1.7589 -0.0246  0.0954
   93SAPS  C315 9197  -0.155   7.193   8.253 -0.0974 -0.3188  0.3383
   93SAPS  H15X 9198  -0.254   7.160   8.215 -0.4275  1.2172 -0.2009
   93SAPS  H15Y 9199  -0.102   7.239   8.168 -0.2778 -1.2244 -0.2739
   93SAPS  C316 9200  -0.181   7.304   8.366 -0.4516  0.2842  0.1637
   93SAPS  H16X 9201  -0.243   7.261   8.448 -0.0396  0.2638  0.4676
   93SAPS  H16Y 9202  -0.242   7.387   8.326  1.7577  2.4522  1.0470
   93SAPS  C317 9203  -0.052   7.348   8.430  0.7689 -0.3653  0.2091
   93SAPS  H17X 9204   0.009   7.404   8.356  0.2789 -0.4569 -0.2729
   93SAPS  H17Y 9205  -0.002   7.253   8.460 -2.2307 -2.4960 -0.9702
   93SAPS  C318 9206  -0.072   7.427   8.558  0.4651  0.2290 -0.1103
   93SAPS  H18X 9207  -0.086   7.536   8.541  1.7380  0.3960 -0.1482
   93SAPS  H18Y 9208   0.017   7.421   8.624 -1.0522 -0.9642  1.9473
   93SAPS  H18Z 9209  -0.162   7.389   8.613  1.2510 -0.5324  0.6816
   94SAPS     N 9210   0.829   1.558   5.688 -0.0121 -0.1964 -0.0583
   94SAPS   HN1 9211   0.907   1.542   5.755  0.0024 -2.2891 -0.5133
   94SAPS   HN2 9212   0.817   1.468   5.639 -1.3267 -0.5949  0.9241
   94SAPS   HN3 9213   0.852   1.628   5.614 -2.9605  0.4242 -0.5403
   94SAPS   C12 9214   0.705   1.589   5.767  0.2976  0.6674 -0.6441
   94SAPS  H12A 9215   0.656   1.671   5.717  0.0021  2.5633  2.5384
   94SAPS   C13 9216   0.605   1.476   5.787  0.6551  0.8113  0.3306
   94SAPS  O13A 9217   0.638   1.361   5.751 -0.4900 -0.5619  0.7996
   94SAPS  O13B 9218   0.486   1.497   5.827  0.3884 -0.3796 -0.3075
   94SAPS   C11 9219   0.747   1.638   5.908  0.1738  0.0560 -0.2232
   94SAPS  H11A 9220   0.767   1.542   5.959  0.7407  1.5165  2.4790
   94SAPS  H11B 9221   0.657   1.668   5.966 -0.8670 -1.0592 -1.2101
   94SAPS     P 9222   0.829   1.882   5.900  0.3684 -0.0433 -0.3199
   94SAPS   O13 9223   0.928   1.947   5.815 -0.1886 -0.3648 -0.2793
   94SAPS   O14 9224   0.687   1.905   5.868 -0.2844 -0.3960  0.3532
   94SAPS   O12 9225   0.859   1.726   5.905  0.5534 -0.1416  0.7483
   94SAPS   O11 9226   0.852   1.935   6.045 -0.3210 -0.7952  0.3933
   94SAPS    C1 9227   0.928   1.876   6.146  0.7516  0.5575 -0.1074
   94SAPS    HA 9228   0.955   1.771   6.120  1.9369  1.4316 -2.7705
   94SAPS    HB 9229   1.032   1.914   6.149  1.0853 -0.0391 -2.2832
   94SAPS    C2 9230   0.859   1.876   6.283  0.0069 -0.4464  0.4322
   94SAPS    HS 9231   0.759   1.828   6.272 -0.7452  1.1004  0.1859
   94SAPS   O21 9232   0.835   2.014   6.308  0.0194 -0.6231  0.2114
   94SAPS   C21 9233   0.740   2.036   6.399 -0.4393 -0.3604  0.6781
   94SAPS   O22 9234   0.670   1.955   6.460  0.3192 -0.2384  0.2521
   94SAPS   C22 9235   0.719   2.191   6.417  0.1258 -0.7421  0.2227
   94SAPS   H2R 9236   0.815   2.243   6.397 -0.7838  0.8173 -0.2333
   94SAPS   H2S 9237   0.653   2.211   6.331  1.7096  1.7364 -0.5200
   94SAPS    C3 9238   0.940   1.806   6.400  0.3716 -0.1685 -0.4997
   94SAPS    HX 9239   1.003   1.889   6.439  0.3948 -1.8375  3.5117
   94SAPS    HY 9240   1.001   1.726   6.354  1.5628  0.3674  0.0962
   94SAPS   O31 9241   0.852   1.750   6.504 -0.0525  0.1316 -0.0739
   94SAPS   C31 9242   0.849   1.801   6.624  0.2319  0.2078 -0.3089
   94SAPS   O32 9243   0.930   1.880   6.669 -0.5931 -0.3025 -0.2178
   94SAPS   C32 9244   0.737   1.727   6.709  0.2402 -0.7760 -0.4426
   94SAPS   H2X 9245   0.764   1.619   6.710  1.5392 -0.4840 -1.5679
   94SAPS   H2Y 9246   0.642   1.736   6.652  0.8334 -0.0802 -1.3561
   94SAPS   C23 9247   0.671   2.248   6.550  0.1868  0.2648  0.5576
   94SAPS   H3R 9248   0.733   2.198   6.626  2.1458  0.2131 -0.9847
   94SAPS   H3S 9249   0.563   2.222   6.556 -0.3532  1.7080 -1.5169
   94SAPS   C24 9250   0.685   2.403   6.563  0.2501 -0.4919 -0.4052
   94SAPS   H4R 9251   0.635   2.434   6.657  1.3907  0.8445 -0.2017
   94SAPS   H4S 9252   0.619   2.448   6.486  2.0874  1.5401 -0.8937
   94SAPS   C25 9253   0.831   2.455   6.560 -0.5528  0.4521 -0.0215
   94SAPS   H5R 9254   0.874   2.447   6.459 -1.2143  0.2495 -0.3001
   94SAPS   C26 9255   0.903   2.514   6.658 -0.1803 -0.8282  0.2502
   94SAPS   H6R 9256   1.007   2.541   6.633  0.3830 -0.1987  2.9120
   94SAPS   C27 9257   0.872   2.549   6.795  0.4882 -0.0063  0.2970
   94SAPS   H7R 9258   0.967   2.538   6.851  1.4366 -1.8259 -1.5125
   94SAPS   H7S 9259   0.817   2.462   6.838  0.6064 -0.3948 -0.3193
   94SAPS   C28 9260   0.799   2.676   6.821  0.0539  0.3562 -0.5854
   94SAPS   H8R 9261   0.821   2.749   6.742  1.6835 -0.6915 -1.1720
   94SAPS   C29 9262   0.756   2.717   6.938 -0.7811 -0.8211 -0.4652
   94SAPS   H9R 9263   0.730   2.823   6.950 -0.1550 -0.8637  1.6161
   94SAPS  C210 9264   0.759   2.652   7.074 -1.0890  0.2780 -0.0710
   94SAPS  H10R 9265   0.770   2.543   7.055  0.3218  0.0619  1.6835
   94SAPS  H10S 9266   0.664   2.683   7.123 -2.0811 -0.1502 -1.6647
   94SAPS  C211 9267   0.884   2.688   7.146  0.2039 -0.2549 -0.3720
   94SAPS  H11R 9268   0.970   2.687   7.077  0.2163  1.3346 -0.4215
   94SAPS  C212 9269   0.902   2.726   7.277 -0.1327 -0.2403 -0.3246
   94SAPS  H12R 9270   0.998   2.768   7.309 -0.3850  0.4387 -0.4265
   94SAPS  C213 9271   0.792   2.734   7.385 -0.2066 -0.2142  0.0986
   94SAPS  H13R 9272   0.801   2.661   7.468 -1.9613  2.5387  2.9077
   94SAPS  H13S 9273   0.697   2.714   7.331  0.0891 -0.7007 -0.2539
   94SAPS  C214 9274   0.782   2.877   7.443 -0.9985 -0.7991 -0.4200
   94SAPS  H14R 9275   0.816   2.958   7.377  0.4848 -1.8607 -1.0029
   94SAPS  C215 9276   0.753   2.905   7.573  0.9714 -0.0140  0.1325
   94SAPS  H15R 9277   0.735   3.011   7.596 -3.6837 -0.8918  1.6249
   94SAPS  C216 9278   0.720   2.811   7.687  0.1803  0.1576  0.4842
   94SAPS  H16R 9279   0.769   2.855   7.777 -1.7797 -0.3225  1.8389
   94SAPS  H16S 9280   0.769   2.712   7.678 -1.6540 -0.6671 -1.2943
   94SAPS  C217 9281   0.570   2.785   7.711 -0.9887 -0.1369 -0.1178
   94SAPS  H17R 9282   0.569   2.692   7.772 -0.1187 -1.9513 -2.6942
   94SAPS  H17S 9283   0.537   2.750   7.611 -1.0950 -0.2652 -0.0374
   94SAPS  C218 9284   0.485   2.896   7.766  0.6162 -0.5063 -0.0258
   94SAPS  H18R 9285   0.383   2.854   7.783  1.1601 -3.0313 -2.1628
   94SAPS  H18S 9286   0.477   2.969   7.683 -1.8127  0.3429  0.8770
   94SAPS  C219 9287   0.536   2.965   7.897 -0.1788 -0.2306 -0.6084
   94SAPS  H19R 9288   0.461   3.041   7.928 -0.1755 -0.8063  0.8952
   94SAPS  H19S 9289   0.633   3.018   7.889 -0.1305 -0.1938  0.1434
   94SAPS  C220 9290   0.559   2.872   8.017  0.4805  0.0496 -0.2523
   94SAPS  H20R 9291   0.630   2.790   7.992  0.4094  0.5933 -2.5150
   94SAPS  H20S 9292   0.453   2.849   8.043 -0.5129  2.7857 -1.5030
   94SAPS  H20T 9293   0.595   2.932   8.102  0.9925 -0.9024  0.2140
   94SAPS   C33 9294   0.735   1.798   6.849  0.7222  0.2881 -0.8429
   94SAPS   H3X 9295   0.703   1.904   6.843 -1.4126 -0.1431  1.2611
   94SAPS   H3Y 9296   0.836   1.808   6.894 -0.2156 -0.4941  1.5818
   94SAPS   C34 9297   0.646   1.738   6.947 -0.2135 -0.4776 -0.5260
   94SAPS   H4X 9298   0.675   1.631   6.954 -3.9837 -1.5542  1.1739
   94SAPS   H4Y 9299   0.538   1.733   6.920 -0.4442  0.1072  0.2793
   94SAPS   C35 9300   0.644   1.814   7.089  0.6083  0.2227 -0.0862
   94SAPS   H5X 9301   0.618   1.921   7.073 -1.9190 -0.6304 -2.3247
   94SAPS   H5Y 9302   0.745   1.805   7.134  0.2016  0.1577  0.8304
   94SAPS   C36 9303   0.552   1.748   7.188 -0.2355  0.5915  0.1283
   94SAPS   H6X 9304   0.585   1.649   7.226  1.6071  0.7491 -0.9050
   94SAPS   H6Y 9305   0.457   1.739   7.132 -0.7974  0.5100  1.0835
   94SAPS   C37 9306   0.530   1.830   7.313  0.6358 -0.4236  0.0531
   94SAPS   H7X 9307   0.481   1.924   7.282 -0.7110 -0.9512  0.5104
   94SAPS   H7Y 9308   0.624   1.850   7.370  0.1374  1.2238  0.3554
   94SAPS   C38 9309   0.440   1.764   7.421  0.3354 -0.0474 -0.1312
   94SAPS   H8X 9310   0.469   1.664   7.459  0.2051  0.3253  0.9988
   94SAPS   H8Y 9311   0.340   1.743   7.379  0.9100 -0.2639 -1.4460
   94SAPS   C39 9312   0.421   1.840   7.552  0.0153  0.8349  0.0384
   94SAPS   H9X 9313   0.338   1.792   7.610  0.6600 -3.3328 -2.1161
   94SAPS   H9Y 9314   0.373   1.933   7.514  0.8377  0.3419 -2.3343
   94SAPS  C310 9315   0.542   1.847   7.640 -0.0214 -0.0485 -0.1993
   94SAPS  H10X 9316   0.612   1.922   7.596 -1.3388  1.8533  0.7951
   94SAPS  H10Y 9317   0.607   1.758   7.652  2.1337  1.5799  1.2847
   94SAPS  C311 9318   0.511   1.899   7.783 -0.0668  0.3028 -0.1812
   94SAPS  H11X 9319   0.407   1.868   7.806 -0.6645  0.2190 -2.6825
   94SAPS  H11Y 9320   0.502   2.009   7.778  0.3432  0.4134  1.2305
   94SAPS  C312 9321   0.606   1.858   7.893 -0.1750 -0.3879  0.6376
   94SAPS  H12X 9322   0.651   1.758   7.874  0.8688 -0.2525  2.1777
   94SAPS  H12Y 9323   0.553   1.852   7.991  1.2824 -2.0678  1.3851
   94SAPS  C313 9324   0.720   1.965   7.903  0.1753  0.4400  0.7727
   94SAPS  H13X 9325   0.678   2.062   7.937 -0.2098  0.3867  0.4617
   94SAPS  H13Y 9326   0.760   1.987   7.802 -1.3653 -0.0831  0.0089
   94SAPS  C314 9327   0.836   1.933   8.000  0.7086  0.5864  0.0550
   94SAPS  H14X 9328   0.936   1.981   7.991  2.0797 -1.8391  1.3273
   94SAPS  H14Y 9329   0.853   1.826   7.973 -1.1449  0.0023  1.0566
   94SAPS  C315 9330   0.793   1.924   8.151  0.0656  0.2345 -0.1376
   94SAPS  H15X 9331   0.699   1.865   8.154 -0.7659  1.5221 -0.1047
   94SAPS  H15Y 9332   0.772   2.030   8.174 -3.5377 -0.2143 -0.8343
   94SAPS  C316 9333   0.890   1.836   8.224 -0.2606 -0.0271 -0.4546
   94SAPS  H16X 9334   0.900   1.734   8.181  0.2339 -0.7009  1.1664
   94SAPS  H16Y 9335   0.867   1.834   8.333 -0.9545 -0.0351 -0.6022
   94SAPS  C317 9336   1.032   1.895   8.229  0.3863 -0.3397  0.0931
   94SAPS  H17X 9337   1.030   1.983   8.297 -0.8613 -0.5944  0.4066
   94SAPS  H17Y 9338   1.071   1.908   8.125  0.7233  1.9171  0.4513
   94SAPS  C318 9339   1.134   1.802   8.300  0.5588 -0.2734  0.0643
   94SAPS  H18X 9340   1.237   1.840   8.281 -0.6407  1.6895 -3.5441
   94SAPS  H18Y 9341   1.127   1.697   8.266  2.2296 -0.8233  1.2628
   94SAPS  H18Z 9342   1.108   1.792   8.408 -1.2796  1.4595 -0.1489
   95SAPS     N 9343   3.823   6.279   6.581  0.0085  0.0089 -0.3421
   95SAPS   HN1 9344   3.913   6.302   6.628  0.6203  0.1074 -1.5181
   95SAPS   HN2 9345   3.756   6.360   6.579 -1.5998 -1.2512  0.1550
   95SAPS   HN3 9346   3.774   6.210   6.641  1.9373 -2.7495 -1.7613
   95SAPS   C12 9347   3.862   6.225   6.448 -0.5312 -0.1917  0.6017
   95SAPS  H12A 9348   3.768   6.190   6.408 -0.1283 -1.9744  1.1255
   95SAPS   C13 9349   3.934   6.334   6.364  0.0987 -0.2928  0.3788
   95SAPS  O13A 9350   3.977   6.436   6.425  0.8180 -0.1699 -0.2598
   95SAPS  O13B 9351   3.961   6.312   6.242 -0.2674 -0.4071  0.2625
   95SAPS   C11 9352   3.937   6.092   6.464 -0.1383 -0.4801  0.4869
   95SAPS  H11A 9353   4.020   6.113   6.535 -0.6723 -0.7315  1.1948
   95SAPS  H11B 9354   3.994   6.068   6.371  0.6299 -0.0962  0.8567
   95SAPS     P 9355   3.909   5.841   6.533 -0.1999  0.0499 -0.3723
   95SAPS   O13 9356   3.888   5.766   6.412  0.2088  0.5459  0.4434
   95SAPS   O14 9357   4.046   5.841   6.589  0.2005  0.4782 -0.1175
   95SAPS   O12 9358   3.850   5.988   6.507 -0.2180  0.1298 -0.0405
   95SAPS   O11 9359   3.799   5.792   6.632  0.1335 -0.4623 -0.1459
   95SAPS    C1 9360   3.667   5.768   6.583  0.2689 -0.0108 -0.1831
   95SAPS    HA 9361   3.612   5.861   6.553  1.9491  0.1977 -2.9777
   95SAPS    HB 9362   3.659   5.699   6.496 -1.1622 -0.8892  0.6027
   95SAPS    C2 9363   3.579   5.698   6.687  0.3808  0.2518 -0.2788
   95SAPS    HS 9364   3.479   5.685   6.641 -0.5944  2.1137  1.1773
   95SAPS   O21 9365   3.566   5.775   6.803 -0.2818 -0.4441  0.0166
   95SAPS   C21 9366   3.454   5.767   6.866  0.1526 -0.3741 -0.2414
   95SAPS   O22 9367   3.355   5.701   6.843 -0.4826 -0.5881  0.0800
   95SAPS   C22 9368   3.459   5.861   6.990 -0.1046 -0.0661  0.1269
   95SAPS   H2R 9369   3.567   5.882   7.007 -0.4675  2.4891 -0.3718
   95SAPS   H2S 9370   3.400   5.954   6.981 -0.3867 -0.0198  2.0437
   95SAPS    C3 9371   3.645   5.558   6.726 -0.4242 -0.0835 -0.2625
   95SAPS    HX 9372   3.705   5.578   6.817  0.0158  0.0160 -0.5722
   95SAPS    HY 9373   3.707   5.519   6.643 -0.0513 -1.7107  0.7277
   95SAPS   O31 9374   3.546   5.466   6.765  0.4095 -0.3079 -0.0163
   95SAPS   C31 9375   3.482   5.399   6.667  0.1098 -0.2649 -0.3656
   95SAPS   O32 9376   3.512   5.421   6.551  0.1977 -0.8455 -0.1418
   95SAPS   C32 9377   3.383   5.299   6.730 -0.5421  0.1437 -0.8932
   95SAPS   H2X 9378   3.438   5.206   6.755 -0.9113  0.4561  1.2206
   95SAPS   H2Y 9379   3.317   5.271   6.645 -2.4299 -0.1694  0.6119
   95SAPS   C23 9380   3.404   5.796   7.117  0.3378  0.4376  0.0694
   95SAPS   H3R 9381   3.462   5.704   7.142 -2.2647 -1.5230 -0.7440
   95SAPS   H3S 9382   3.315   5.749   7.071  1.8788  0.2346 -2.9919
   95SAPS   C24 9383   3.380   5.885   7.242 -0.3241  0.3986 -0.2928
   95SAPS   H4R 9384   3.319   5.973   7.212  1.6042  1.1635 -2.2044
   95SAPS   H4S 9385   3.477   5.923   7.281 -0.2355 -1.6033  1.5843
   95SAPS   C25 9386   3.308   5.810   7.353 -0.3154 -0.0431  0.0796
   95SAPS   H5R 9387   3.226   5.743   7.325  0.6341 -0.6811 -1.2750
   95SAPS   C26 9388   3.337   5.807   7.481 -0.7674  0.5133 -0.1772
   95SAPS   H6R 9389   3.271   5.754   7.550  1.9189 -0.1496  2.0400
   95SAPS   C27 9390   3.459   5.875   7.543  0.0177  0.7904 -0.2548
   95SAPS   H7R 9391   3.548   5.874   7.477 -0.9893  2.7759 -1.7500
   95SAPS   H7S 9392   3.480   5.815   7.634  1.4773 -2.4218 -2.4926
   95SAPS   C28 9393   3.443   6.020   7.585  0.0255 -0.0173 -0.4995
   95SAPS   H8R 9394   3.469   6.091   7.504 -1.3392 -1.4125 -2.2447
   95SAPS   C29 9395   3.404   6.072   7.701 -0.4188 -0.1932  0.4685
   95SAPS   H9R 9396   3.403   6.182   7.706  4.9132  0.2124 -1.1536
   95SAPS  C210 9397   3.346   5.993   7.818 -0.2986 -0.3592  0.1407
   95SAPS  H10R 9398   3.300   5.898   7.784  0.5814  0.2281 -2.9496
   95SAPS  H10S 9399   3.267   6.056   7.865  0.8711  1.5508 -0.3043
   95SAPS  C211 9400   3.455   5.969   7.916 -0.5899  0.4342 -0.5866
   95SAPS  H11R 9401   3.545   5.916   7.882 -0.9811  0.2424 -1.3272
   95SAPS  C212 9402   3.456   6.008   8.050  0.3503  0.6723 -0.0076
   95SAPS  H12R 9403   3.543   5.990   8.114 -1.8946 -1.7868  2.6074
   95SAPS  C213 9404   3.347   6.089   8.118 -0.4094 -0.4081  0.3089
   95SAPS  H13R 9405   3.363   6.094   8.228  1.4031 -0.5823  0.0881
   95SAPS  H13S 9406   3.252   6.033   8.102 -0.4103 -0.0938 -0.9327
   95SAPS  C214 9407   3.334   6.228   8.066 -0.5643  0.6169  0.2165
   95SAPS  H14R 9408   3.371   6.255   7.966  0.7249  0.0845  0.5225
   95SAPS  C215 9409   3.279   6.325   8.135 -0.1212 -0.9165 -0.2236
   95SAPS  H15R 9410   3.281   6.427   8.093  3.0070 -1.8149 -2.5734
   95SAPS  C216 9411   3.217   6.324   8.275 -0.2500  0.1031  0.5816
   95SAPS  H16R 9412   3.280   6.256   8.335  1.7124 -0.3711 -1.8689
   95SAPS  H16S 9413   3.110   6.296   8.259  0.1428 -2.1668  1.6653
   95SAPS  C217 9414   3.202   6.460   8.344 -0.9200 -0.5520 -0.0275
   95SAPS  H17R 9415   3.155   6.536   8.277 -0.4362  0.5378  0.8274
   95SAPS  H17S 9416   3.298   6.503   8.381 -1.1872 -0.9090  1.1106
   95SAPS  C218 9417   3.099   6.462   8.453  0.2236  0.1421  0.3101
   95SAPS  H18R 9418   3.001   6.427   8.414 -0.5474  1.3818  1.0717
   95SAPS  H18S 9419   3.080   6.564   8.491  2.0184 -0.5138  3.3647
   95SAPS  C219 9420   3.142   6.376   8.575  0.7335 -0.1163  0.1818
   95SAPS  H19R 9421   3.221   6.436   8.625 -0.1943  0.6260  0.7644
   95SAPS  H19S 9422   3.185   6.279   8.540 -0.3311 -1.5550  2.5957
   95SAPS  C220 9423   3.033   6.351   8.673  0.0443 -0.2533  0.4276
   95SAPS  H20R 9424   2.959   6.433   8.656 -1.1279 -1.4625 -0.5223
   95SAPS  H20S 9425   3.063   6.342   8.780 -1.5390  0.2507  0.9570
   95SAPS  H20T 9426   2.976   6.259   8.649 -0.7863  0.7902 -1.9421
   95SAPS   C33 9427   3.291   5.357   6.845  0.8036  0.2854 -0.3106
   95SAPS   H3X 9428   3.204   5.289   6.848  0.4115  0.8151  1.3049
   95SAPS   H3Y 9429   3.251   5.458   6.821  0.1928 -0.0034 -0.5412
   95SAPS   C34 9430   3.361   5.354   6.980  0.0858 -0.4800  0.0791
   95SAPS   H4X 9431   3.442   5.429   6.971  0.4535 -1.0891 -2.4444
   95SAPS   H4Y 9432   3.401   5.251   6.982 -2.0187 -1.5179 -3.0228
   95SAPS   C35 9433   3.262   5.385   7.094 -0.4013  0.6702 -0.0097
   95SAPS   H5X 9434   3.191   5.299   7.095  1.7861 -1.2442 -1.1131
   95SAPS   H5Y 9435   3.219   5.487   7.081  2.1488  1.9695  1.1330
   95SAPS   C36 9436   3.334   5.391   7.230 -0.7372 -0.2532 -0.3213
   95SAPS   H6X 9437   3.417   5.464   7.225 -0.0675 -0.9794 -0.0205
   95SAPS   H6Y 9438   3.384   5.293   7.245  0.2966  0.2846 -0.2083
   95SAPS   C37 9439   3.243   5.417   7.350  0.4776 -0.0379  0.4200
   95SAPS   H7X 9440   3.177   5.328   7.342  1.3529 -0.7662  1.0612
   95SAPS   H7Y 9441   3.180   5.506   7.325  0.6643 -0.3853 -1.4065
   95SAPS   C38 9442   3.304   5.443   7.485  0.5393 -0.5342 -0.3477
   95SAPS   H8X 9443   3.371   5.531   7.474  0.3810 -0.5499 -1.6117
   95SAPS   H8Y 9444   3.357   5.354   7.525 -1.2802 -1.6968 -0.4493
   95SAPS   C39 9445   3.195   5.479   7.595  0.0640 -0.5929  0.2988
   95SAPS   H9X 9446   3.132   5.395   7.632  1.1832 -0.5770  2.3833
   95SAPS   H9Y 9447   3.129   5.558   7.555 -0.6346 -1.0522  0.5332
   95SAPS  C310 9448   3.260   5.544   7.722 -0.0086  0.2573 -0.0564
   95SAPS  H10X 9449   3.291   5.649   7.704 -1.0907  0.6747  0.4587
   95SAPS  H10Y 9450   3.354   5.486   7.734  0.0447  0.1718 -0.7887
   95SAPS  C311 9451   3.169   5.544   7.840  0.5921 -0.4253 -0.5038
   95SAPS  H11X 9452   3.139   5.441   7.870 -2.5472 -0.1136 -2.2022
   95SAPS  H11Y 9453   3.078   5.607   7.829  0.2546 -1.0644 -1.5492
   95SAPS  C312 9454   3.237   5.616   7.960  0.1462  0.2448  0.3941
   95SAPS  H12X 9455   3.279   5.718   7.943 -0.9615  0.4001 -1.8097
   95SAPS  H12Y 9456   3.328   5.565   8.000  0.5346  1.5289  1.2000
   95SAPS  C313 9457   3.131   5.636   8.070 -0.1335  0.2118 -0.3385
   95SAPS  H13X 9458   3.087   5.540   8.105  0.0229  0.6053  1.0304
   95SAPS  H13Y 9459   3.059   5.709   8.027 -1.7301 -2.6957 -3.0382
   95SAPS  C314 9460   3.196   5.705   8.195  0.0167 -0.5293 -0.1109
   95SAPS  H14X 9461   3.209   5.815   8.185 -2.0594 -0.2152  0.1826
   95SAPS  H14Y 9462   3.296   5.655   8.201 -0.3930 -1.6914 -2.0008
   95SAPS  C315 9463   3.115   5.692   8.325 -0.6318  0.7053 -0.4631
   95SAPS  H15X 9464   3.080   5.587   8.337 -0.3990  0.6415 -0.3308
   95SAPS  H15Y 9465   3.013   5.735   8.316 -1.8603 -2.2991 -3.9702
   95SAPS  C316 9466   3.202   5.742   8.440  0.1747  0.5120 -0.5878
   95SAPS  H16X 9467   3.306   5.705   8.452  0.2940  1.2255  0.7985
   95SAPS  H16Y 9468   3.152   5.704   8.533 -1.5527  0.7753 -1.3632
   95SAPS  C317 9469   3.213   5.902   8.444  0.6187  1.5190 -0.8930
   95SAPS  H17X 9470   3.113   5.946   8.419 -0.3023  0.5483  0.9112
   95SAPS  H17Y 9471   3.285   5.932   8.365  0.2098  1.0847 -1.4395
   95SAPS  C318 9472   3.253   5.966   8.578 -0.6115 -0.2301 -0.2989
   95SAPS  H18X 9473   3.352   5.941   8.621 -1.2286 -1.7072  0.3007
   95SAPS  H18Y 9474   3.186   5.924   8.655 -1.1204  0.7342 -0.1946
   95SAPS  H18Z 9475   3.247   6.076   8.561  0.8928 -0.3585 -1.9311
   96SAPS     N 9476   5.521   0.008   6.268 -0.0234 -0.1696  0.3104
   96SAPS   HN1 9477   5.536   0.033   6.169 -0.6111  2.5595  0.8188
   96SAPS   HN2 9478   5.584   0.072   6.320  0.7901 -0.9353  0.2768
   96SAPS   HN3 9479   5.553  -0.089   6.284  1.1654  0.2031  0.2795
   96SAPS   C12 9480   5.372   0.017   6.304 -0.1397 -0.0283 -0.0744
   96SAPS  H12A 9481   5.319   0.093   6.249  0.0776 -0.0712 -0.3450
   96SAPS   C13 9482   5.293  -0.113   6.285  0.0261  0.2804  0.3255
   96SAPS  O13A 9483   5.346  -0.200   6.215 -0.6599 -0.2100 -0.0463
   96SAPS  O13B 9484   5.168  -0.107   6.308  0.2025 -0.1011  0.5411
   96SAPS   C11 9485   5.358   0.042   6.461  0.0772 -0.5764  0.6008
   96SAPS  H11A 9486   5.400  -0.045   6.516  1.3345  0.3224  1.1035
   96SAPS  H11B 9487   5.249   0.046   6.482  0.0358  1.5138  0.1724
   96SAPS     P 9488   5.332   0.300   6.486 -0.0951  0.4083 -0.2494
   96SAPS   O13 9489   5.380   0.357   6.361 -0.2855  0.3551 -0.0955
   96SAPS   O14 9490   5.184   0.284   6.497 -0.4951  0.0364 -0.0269
   96SAPS   O12 9491   5.419   0.162   6.504  0.2096  0.4490  0.3435
   96SAPS   O11 9492   5.368   0.392   6.612  0.3744 -0.0936  0.4313
   96SAPS    C1 9493   5.493   0.384   6.682  0.2878 -0.3510  0.0065
   96SAPS    HA 9494   5.572   0.328   6.629 -0.2673 -0.8509 -0.3046
   96SAPS    HB 9495   5.539   0.483   6.703  1.0990 -0.4813 -1.1274
   96SAPS    C2 9496   5.472   0.323   6.825  0.7514  0.6309  0.6364
   96SAPS    HS 9497   5.412   0.232   6.803 -0.9694  2.0135 -0.7468
   96SAPS   O21 9498   5.400   0.419   6.906  0.1392 -0.0693  0.0228
   96SAPS   C21 9499   5.297   0.372   6.976 -0.3458 -0.0897  0.8914
   96SAPS   O22 9500   5.272   0.251   6.986  0.0001 -0.1391 -0.1169
   96SAPS   C22 9501   5.234   0.487   7.058  0.6654 -0.2374  0.0641
   96SAPS   H2R 9502   5.311   0.544   7.114  0.4459  0.7605 -0.6144
   96SAPS   H2S 9503   5.194   0.563   6.987  1.0289 -1.1862 -1.1867
   96SAPS    C3 9504   5.607   0.280   6.894 -0.0674 -0.3238  0.0103
   96SAPS    HX 9505   5.682   0.359   6.873  2.0235 -2.2864 -0.4126
   96SAPS    HY 9506   5.651   0.189   6.847  1.5356  1.2743 -1.7828
   96SAPS   O31 9507   5.589   0.262   7.033 -0.2594 -0.0799  0.0013
   96SAPS   C31 9508   5.604   0.140   7.082  0.7759  0.5042  0.4532
   96SAPS   O32 9509   5.638   0.045   7.013  0.8577 -0.0943 -0.1625
   96SAPS   C32 9510   5.566   0.135   7.230  0.4622  0.3690 -0.6511
   96SAPS   H2X 9511   5.588   0.033   7.268  0.3952  0.4181 -0.4758
   96SAPS   H2Y 9512   5.455   0.142   7.232  0.5231  1.5638  0.7176
   96SAPS   C23 9513   5.121   0.443   7.155 -0.0782  0.2972  0.4130
   96SAPS   H3R 9514   5.172   0.389   7.238  0.5402  1.9174  1.1288
   96SAPS   H3S 9515   5.055   0.373   7.099  0.5379  0.0505 -0.0156
   96SAPS   C24 9516   5.041   0.557   7.211  0.5305  0.2680  0.4878
   96SAPS   H4R 9517   4.961   0.586   7.140  1.1310  1.7002  0.3523
   96SAPS   H4S 9518   5.107   0.647   7.215 -0.1144  0.9827 -2.4602
   96SAPS   C25 9519   4.966   0.529   7.333 -0.3458 -0.1799 -0.8647
   96SAPS   H5R 9520   4.859   0.507   7.320 -0.9269  0.4984  2.0261
   96SAPS   C26 9521   5.031   0.535   7.452 -0.6638 -0.8899 -0.4047
   96SAPS   H6R 9522   4.972   0.527   7.544  0.7481  0.6056  0.6892
   96SAPS   C27 9523   5.178   0.574   7.482  0.1611  0.1163 -0.2417
   96SAPS   H7R 9524   5.239   0.582   7.389 -0.9814  0.2699 -1.0099
   96SAPS   H7S 9525   5.222   0.483   7.528 -3.1237 -2.8094 -2.3800
   96SAPS   C28 9526   5.177   0.702   7.561 -0.2150  0.3060  0.1507
   96SAPS   H8R 9527   5.167   0.794   7.503  1.0186  0.1303 -0.3793
   96SAPS   C29 9528   5.193   0.714   7.689 -0.3813  0.2153 -0.7998
   96SAPS   H9R 9529   5.185   0.812   7.739  0.1706 -0.4693  0.6954
   96SAPS  C210 9530   5.207   0.600   7.789  0.0461 -0.3097  0.0747
   96SAPS  H10R 9531   5.184   0.505   7.736  2.3229 -1.4549  1.0025
   96SAPS  H10S 9532   5.124   0.621   7.860 -1.0485 -1.0872 -0.9424
   96SAPS  C211 9533   5.342   0.571   7.851 -0.4859  0.2735  0.5721
   96SAPS  H11R 9534   5.433   0.569   7.789  1.5656 -1.2499  3.3890
   96SAPS  C212 9535   5.366   0.540   7.979 -0.0921  0.2466 -0.2777
   96SAPS  H12R 9536   5.471   0.517   8.003 -0.0702  0.3536 -0.2735
   96SAPS  C213 9537   5.263   0.524   8.090  0.0539 -0.3674  0.2893
   96SAPS  H13R 9538   5.204   0.431   8.077  0.9535 -0.8283 -0.7212
   96SAPS  H13S 9539   5.182   0.599   8.081 -1.6762 -2.0837  1.0132
   96SAPS  C214 9540   5.299   0.531   8.237 -0.4214  0.1655  0.2358
   96SAPS  H14R 9541   5.402   0.567   8.254 -0.9480  1.6413  0.4381
   96SAPS  C215 9542   5.215   0.516   8.342 -0.1545  1.0833  0.8605
   96SAPS  H15R 9543   5.250   0.512   8.446  0.4870 -2.5905  0.6178
   96SAPS  C216 9544   5.069   0.479   8.329 -0.6808 -0.0370 -0.4650
   96SAPS  H16R 9545   5.048   0.371   8.314 -5.3064  0.5844 -0.1229
   96SAPS  H16S 9546   5.022   0.543   8.252  0.3960  1.6121  0.1955
   96SAPS  C217 9547   4.972   0.506   8.452 -0.0213 -0.3910 -0.3003
   96SAPS  H17R 9548   5.008   0.460   8.547  0.5416 -0.7481 -0.6770
   96SAPS  H17S 9549   4.878   0.452   8.429  0.9190 -3.4348  2.1843
   96SAPS  C218 9550   4.966   0.654   8.472  0.1148 -0.4421  0.2333
   96SAPS  H18R 9551   4.952   0.700   8.372 -0.9804 -0.9074  0.1646
   96SAPS  H18S 9552   5.060   0.696   8.515  0.7249 -2.7459  1.3124
   96SAPS  C219 9553   4.846   0.699   8.559  0.4284 -0.0861  0.3199
   96SAPS  H19R 9554   4.752   0.649   8.530  1.0239 -1.2918  0.4148
   96SAPS  H19S 9555   4.812   0.804   8.544 -0.3498 -0.1840  1.3212
   96SAPS  C220 9556   4.869   0.675   8.709 -0.2706  0.0393  0.5635
   96SAPS  H20R 9557   4.791   0.730   8.766 -1.3549 -2.7432  1.9848
   96SAPS  H20S 9558   4.973   0.701   8.736  0.2832 -0.4570 -1.0037
   96SAPS  H20T 9559   4.858   0.571   8.746 -1.5411  0.4676  1.4583
   96SAPS   C33 9560   5.629   0.247   7.314  0.4834  0.1362 -1.7005
   96SAPS   H3X 9561   5.550   0.325   7.311 -0.1053 -0.4813 -2.9349
   96SAPS   H3Y 9562   5.721   0.286   7.265  0.2927 -0.1580 -2.2988
   96SAPS   C34 9563   5.664   0.217   7.460  0.0707 -0.5667 -0.5844
   96SAPS   H4X 9564   5.685   0.308   7.520 -3.0921  0.1013 -0.2888
   96SAPS   H4Y 9565   5.752   0.150   7.465  0.6502  0.1929 -0.2719
   96SAPS   C35 9566   5.551   0.153   7.549 -0.0337  0.0722  0.1950
   96SAPS   H5X 9567   5.589   0.119   7.648 -0.9049 -1.0097  0.1741
   96SAPS   H5Y 9568   5.522   0.061   7.494 -0.4109 -0.1627  0.7775
   96SAPS   C36 9569   5.427   0.238   7.567  0.3731 -0.0983  0.2320
   96SAPS   H6X 9570   5.402   0.285   7.470  2.0942  1.8827  0.6809
   96SAPS   H6Y 9571   5.443   0.322   7.638  0.6477  0.5378 -0.5634
   96SAPS   C37 9572   5.306   0.154   7.616 -0.6883 -0.3533 -0.3234
   96SAPS   H7X 9573   5.271   0.089   7.533 -1.3406 -0.6431  0.1681
   96SAPS   H7Y 9574   5.211   0.210   7.625 -1.2480 -1.5483  1.9980
   96SAPS   C38 9575   5.341   0.077   7.742  0.0860 -0.3287 -0.0680
   96SAPS   H8X 9576   5.434   0.021   7.722  1.0266  1.5700 -1.3435
   96SAPS   H8Y 9577   5.261   0.003   7.764 -0.6789  0.1594 -1.1121
   96SAPS   C39 9578   5.340   0.152   7.873  0.1888  0.1304 -0.0903
   96SAPS   H9X 9579   5.245   0.209   7.866  0.4106  0.5636  0.3397
   96SAPS   H9Y 9580   5.418   0.231   7.874 -1.5297  2.0556 -2.6331
   96SAPS  C310 9581   5.344   0.057   7.994  0.9634 -0.0394  1.1896
   96SAPS  H10X 9582   5.439  -0.001   7.984  1.2192  0.6469 -0.7988
   96SAPS  H10Y 9583   5.264  -0.018   7.982  1.8217 -0.5508 -2.3259
   96SAPS  C311 9584   5.330   0.134   8.132 -0.8506  0.6450  0.4777
   96SAPS  H11X 9585   5.247   0.206   8.119 -1.0475  0.1179 -1.5521
   96SAPS  H11Y 9586   5.417   0.194   8.164 -0.9950  0.3550  1.4557
   96SAPS  C312 9587   5.299   0.039   8.255  0.9482  0.2303  0.3579
   96SAPS  H12X 9588   5.387  -0.016   8.295  2.4734  1.9033 -0.5239
   96SAPS  H12Y 9589   5.225  -0.035   8.216  1.9424 -0.3583 -0.4645
   96SAPS  C313 9590   5.241   0.126   8.366 -0.3175 -0.4094 -0.1594
   96SAPS  H13X 9591   5.144   0.177   8.344  0.0138  0.8697  1.1973
   96SAPS  H13Y 9592   5.316   0.205   8.385  0.8186 -1.8565  1.6633
   96SAPS  C314 9593   5.228   0.049   8.497 -0.1553  0.8428  0.1747
   96SAPS  H14X 9594   5.331   0.009   8.511  0.5284  2.2009 -0.6326
   96SAPS  H14Y 9595   5.156  -0.032   8.475 -0.3163  1.5163 -2.1134
   96SAPS  C315 9596   5.183   0.130   8.622 -0.2220 -0.2100 -0.0376
   96SAPS  H15X 9597   5.231   0.230   8.615 -1.2690  0.3075  0.1160
   96SAPS  H15Y 9598   5.226   0.075   8.709  0.5149 -0.7158 -0.7098
   96SAPS  C316 9599   5.032   0.138   8.646 -0.1488  0.3782  0.7075
   96SAPS  H16X 9600   5.001   0.031   8.651  1.3223 -0.2036 -1.5752
   96SAPS  H16Y 9601   4.980   0.195   8.566  0.1186  0.1167  0.3452
   96SAPS  C317 9602   4.994   0.197   8.787 -0.0487  0.6347 -1.4810
   96SAPS  H17X 9603   5.042   0.297   8.798  2.1885 -0.5133 -0.0993
   96SAPS  H17Y 9604   5.031   0.139   8.874 -0.7934  2.7537  0.3547
   96SAPS  C318 9605   4.843   0.216   8.800  0.8258 -0.5102 -0.0496
   96SAPS  H18X 9606   4.811   0.304   8.740 -0.7188 -0.5032  0.7244
   96SAPS  H18Y 9607   4.808   0.240   8.903 -0.6307 -1.3961 -0.3147
   96SAPS  H18Z 9608   4.787   0.127   8.765  0.6599 -0.0337 -1.0480
   97SAPS     N 9609   2.526   5.010   6.184 -0.6533 -0.1677 -0.2011
   97SAPS   HN1 9610   2.473   4.949   6.119 -0.2541  0.0554 -0.7444
   97SAPS   HN2 9611   2.603   4.972   6.242 -1.0379  1.1936  1.2936
   97SAPS   HN3 9612   2.455   5.041   6.254  0.5353 -2.2652  2.0679
   97SAPS   C12 9613   2.586   5.134   6.126  1.4636 -0.3824  0.0627
   97SAPS  H12A 9614   2.652   5.108   6.044  0.2009 -0.6241 -0.9231
   97SAPS   C13 9615   2.481   5.241   6.078  0.3835  0.5667 -0.4915
   97SAPS  O13A 9616   2.360   5.226   6.096  0.7588  0.3907  0.3324
   97SAPS  O13B 9617   2.523   5.326   5.993  0.4503  0.4765  0.1779
   97SAPS   C11 9618   2.671   5.200   6.239 -0.2473 -0.1241 -0.2435
   97SAPS  H11A 9619   2.601   5.231   6.319 -1.2399 -3.0887  0.1537
   97SAPS  H11B 9620   2.718   5.294   6.203 -1.4245  0.1423 -1.1475
   97SAPS     P 9621   2.864   5.169   6.399  0.1778 -0.4133 -0.6042
   97SAPS   O13 9622   2.988   5.193   6.317 -0.3914  0.3632  0.2959
   97SAPS   O14 9623   2.813   5.280   6.482  0.1684 -0.5817 -0.0205
   97SAPS   O12 9624   2.756   5.102   6.304 -0.5854 -0.7706  0.3230
   97SAPS   O11 9625   2.893   5.042   6.489  0.1331  0.0865 -0.0089
   97SAPS    C1 9626   2.816   5.000   6.600  0.6450 -0.1464  0.0738
   97SAPS    HA 9627   2.713   5.042   6.591  0.9525  0.4413 -0.8454
   97SAPS    HB 9628   2.813   4.889   6.604  1.6698 -0.1465  1.3907
   97SAPS    C2 9629   2.880   5.030   6.744 -0.9614  0.0657 -0.8096
   97SAPS    HS 9630   2.813   4.970   6.809  0.1628 -2.5647 -1.9451
   97SAPS   O21 9631   2.880   5.167   6.775 -0.1780 -0.2124  0.0794
   97SAPS   C21 9632   2.753   5.225   6.785  0.3373 -0.0316 -0.0751
   97SAPS   O22 9633   2.645   5.173   6.780 -0.0490 -0.3946 -0.1844
   97SAPS   C22 9634   2.767   5.370   6.835 -0.3292 -0.3391  0.4068
   97SAPS   H2R 9635   2.810   5.435   6.757  0.8671  0.0418  1.3515
   97SAPS   H2S 9636   2.669   5.416   6.861 -1.7458 -1.7570 -2.0967
   97SAPS    C3 9637   3.028   4.979   6.746  0.1474 -0.0469  0.5576
   97SAPS    HX 9638   3.080   5.036   6.667  0.7095 -0.2250  0.7959
   97SAPS    HY 9639   3.035   4.872   6.719 -0.2979  0.1662 -0.4582
   97SAPS   O31 9640   3.103   5.020   6.867  0.2400 -0.1394 -0.6070
   97SAPS   C31 9641   3.143   4.928   6.956  0.0248 -0.8761  0.3129
   97SAPS   O32 9642   3.122   4.808   6.951 -0.9206 -0.2065 -0.1807
   97SAPS   C32 9643   3.238   5.002   7.058 -0.2643 -0.4673 -0.3696
   97SAPS   H2X 9644   3.234   5.112   7.049  1.9724 -0.4711 -2.3448
   97SAPS   H2Y 9645   3.334   4.974   7.010  0.6453  0.5187  0.8351
   97SAPS   C23 9646   2.857   5.385   6.963  0.4128 -0.6689  0.1139
   97SAPS   H3R 9647   2.829   5.484   7.003  1.9420  0.4661 -1.4752
   97SAPS   H3S 9648   2.962   5.395   6.926  1.0273  0.4114  2.0110
   97SAPS   C24 9649   2.839   5.271   7.070  0.3103 -0.5996 -0.1381
   97SAPS   H4R 9650   2.923   5.275   7.142  0.1716  2.6424 -0.0062
   97SAPS   H4S 9651   2.865   5.174   7.021  0.3280 -1.2323  1.0724
   97SAPS   C25 9652   2.707   5.276   7.145 -0.0125 -0.6343 -0.7146
   97SAPS   H5R 9653   2.619   5.234   7.093 -0.4540  0.6903 -1.0774
   97SAPS   C26 9654   2.684   5.330   7.271 -0.4896 -0.2759  0.2820
   97SAPS   H6R 9655   2.587   5.329   7.323  0.4348  0.5229  2.1119
   97SAPS   C27 9656   2.785   5.391   7.362  0.5208 -0.7472 -0.2590
   97SAPS   H7R 9657   2.746   5.488   7.400 -0.7371 -0.8031 -1.3103
   97SAPS   H7S 9658   2.877   5.423   7.309  0.0729  0.7391 -0.1944
   97SAPS   C28 9659   2.820   5.306   7.483 -0.7155  0.9974 -0.4927
   97SAPS   H8R 9660   2.830   5.200   7.456 -0.5383  0.5101  1.3887
   97SAPS   C29 9661   2.840   5.356   7.607  0.0226  0.2532 -0.0504
   97SAPS   H9R 9662   2.873   5.282   7.682  0.6870 -1.1050 -1.6204
   97SAPS  C210 9663   2.815   5.497   7.651 -0.1959  0.0623 -0.4296
   97SAPS  H10R 9664   2.842   5.564   7.566  0.0231 -0.0519 -0.4515
   97SAPS  H10S 9665   2.889   5.534   7.726 -1.4039 -0.7702  1.2353
   97SAPS  C211 9666   2.679   5.525   7.698  0.0088  0.0905  0.1662
   97SAPS  H11R 9667   2.600   5.521   7.622 -0.1898 -1.5812  0.4230
   97SAPS  C212 9668   2.643   5.553   7.824  0.9607 -0.0009 -0.1462
   97SAPS  H12R 9669   2.537   5.565   7.848  0.9370  0.1362 -0.3180
   97SAPS  C213 9670   2.737   5.559   7.945 -0.0432  0.1301 -1.0654
   97SAPS  H13R 9671   2.753   5.663   7.981 -0.0025 -0.1279 -0.3121
   97SAPS  H13S 9672   2.824   5.495   7.921 -2.0637 -2.9737 -0.6958
   97SAPS  C214 9673   2.672   5.474   8.057  0.1089  0.0684  0.8278
   97SAPS  H14R 9674   2.634   5.375   8.026  0.0371  0.0744  0.8988
   97SAPS  C215 9675   2.689   5.476   8.190 -0.6127  0.5396 -0.1248
   97SAPS  H15R 9676   2.638   5.406   8.258  0.4393  0.4975  0.6594
   97SAPS  C216 9677   2.779   5.576   8.262  0.3598 -0.3406  0.5000
   97SAPS  H16R 9678   2.808   5.656   8.191  0.9228  0.9375  2.1064
   97SAPS  H16S 9679   2.879   5.534   8.284  0.6856 -0.0780 -0.4447
   97SAPS  C217 9680   2.704   5.640   8.388 -0.5165 -0.3975  0.7448
   97SAPS  H17R 9681   2.625   5.702   8.343 -1.1721 -1.3715  0.5336
   97SAPS  H17S 9682   2.788   5.696   8.434  3.1721 -1.7902 -3.5473
   97SAPS  C218 9683   2.631   5.544   8.484 -0.2874 -0.1766 -0.1168
   97SAPS  H18R 9684   2.551   5.493   8.427 -1.1471  0.2426  0.6887
   97SAPS  H18S 9685   2.598   5.616   8.561  1.0525  0.5826 -0.2075
   97SAPS  C219 9686   2.734   5.443   8.549 -0.3968  0.0964  0.9737
   97SAPS  H19R 9687   2.837   5.486   8.550 -0.8376  1.2485  2.5099
   97SAPS  H19S 9688   2.726   5.356   8.481 -1.5591  0.8598  0.0909
   97SAPS  C220 9689   2.699   5.394   8.688 -0.1728  0.0621 -0.0439
   97SAPS  H20R 9690   2.746   5.295   8.708 -0.6372 -0.0158  0.7107
   97SAPS  H20S 9691   2.593   5.380   8.716 -0.0774 -3.0337 -0.8850
   97SAPS  H20T 9692   2.746   5.453   8.770 -0.9797 -1.5819  1.6734
   97SAPS   C33 9693   3.233   4.941   7.199 -0.0024 -0.1691 -0.7297
   97SAPS   H3X 9694   3.334   4.954   7.244 -0.2858 -0.6592  0.0565
   97SAPS   H3Y 9695   3.215   4.832   7.188  0.1555 -0.2635 -0.0813
   97SAPS   C34 9696   3.125   5.007   7.283 -0.3868  0.5152 -0.1326
   97SAPS   H4X 9697   3.026   4.989   7.234 -0.3917 -1.4476  0.4897
   97SAPS   H4Y 9698   3.144   5.116   7.276 -0.8857  0.7945  2.0399
   97SAPS   C35 9699   3.107   4.948   7.421 -0.2284  0.2481  0.1424
   97SAPS   H5X 9700   3.083   4.839   7.424 -1.2004  0.4629  3.2162
   97SAPS   H5Y 9701   3.023   4.996   7.475  0.1483  0.9077  0.1571
   97SAPS   C36 9702   3.231   4.980   7.508  0.5267  0.1929  0.4185
   97SAPS   H6X 9703   3.275   5.081   7.497 -0.2967  0.5812  0.6273
   97SAPS   H6Y 9704   3.319   4.917   7.481 -1.4005 -2.3091 -0.3529
   97SAPS   C37 9705   3.214   4.969   7.661  0.8448  0.0463  0.0286
   97SAPS   H7X 9706   3.315   4.953   7.705  0.5895  0.4637  0.7791
   97SAPS   H7Y 9707   3.146   4.888   7.696 -0.5175  1.4930  0.8833
   97SAPS   C38 9708   3.160   5.100   7.709  0.0276 -0.5840  0.1655
   97SAPS   H8X 9709   3.063   5.121   7.661 -0.7306 -2.5956  0.6932
   97SAPS   H8Y 9710   3.237   5.176   7.683 -0.5988  0.1842  0.5090
   97SAPS   C39 9711   3.137   5.117   7.863 -0.3548 -0.4228  0.5494
   97SAPS   H9X 9712   3.100   5.016   7.892  1.0250 -0.9671  0.5157
   97SAPS   H9Y 9713   3.061   5.194   7.886  0.1103 -0.2757  1.6202
   97SAPS  C310 9714   3.263   5.139   7.951 -0.1547 -0.5311  0.1759
   97SAPS  H10X 9715   3.321   5.222   7.905  0.0323 -1.1904 -0.8226
   97SAPS  H10Y 9716   3.321   5.044   7.945  1.7645  0.3167  3.1664
   97SAPS  C311 9717   3.230   5.150   8.098  0.3825 -0.1261 -0.8929
   97SAPS  H11X 9718   3.213   5.059   8.159 -0.1633  1.2619  1.1325
   97SAPS  H11Y 9719   3.143   5.217   8.112 -0.7256 -1.6268 -0.3767
   97SAPS  C312 9720   3.337   5.229   8.168 -0.0858  0.1606 -0.2385
   97SAPS  H12X 9721   3.345   5.336   8.140 -1.9692  0.0959 -1.1871
   97SAPS  H12Y 9722   3.431   5.177   8.139  0.8606  1.1782  0.8860
   97SAPS  C313 9723   3.330   5.226   8.318  0.3868  0.0493  0.6146
   97SAPS  H13X 9724   3.427   5.261   8.361 -1.2948  2.8089  2.5503
   97SAPS  H13Y 9725   3.310   5.125   8.359 -1.9700  0.5079  0.7484
   97SAPS  C314 9726   3.230   5.324   8.379 -0.4396 -0.0522  0.5567
   97SAPS  H14X 9727   3.127   5.297   8.349  0.4337 -1.5622 -1.3542
   97SAPS  H14Y 9728   3.239   5.425   8.335 -0.9983 -0.8793 -1.6127
   97SAPS  C315 9729   3.248   5.330   8.532  0.4372 -0.0488  0.0317
   97SAPS  H15X 9730   3.328   5.405   8.552 -0.4428  0.9521 -0.1486
   97SAPS  H15Y 9731   3.285   5.231   8.568 -0.2208 -0.9333 -1.6080
   97SAPS  C316 9732   3.129   5.378   8.608 -0.1804 -0.3217 -0.8797
   97SAPS  H16X 9733   3.043   5.309   8.593 -0.6301 -0.8238  2.9706
   97SAPS  H16Y 9734   3.104   5.477   8.563  0.5315  0.2760 -0.0063
   97SAPS  C317 9735   3.161   5.422   8.753  0.4283 -0.5847  0.0080
   97SAPS  H17X 9736   3.249   5.490   8.750 -1.5134  2.1667  0.4751
   97SAPS  H17Y 9737   3.178   5.329   8.811 -2.5533 -1.2137  0.0291
   97SAPS  C318 9738   3.045   5.497   8.815 -0.5755 -0.0386 -0.0136
   97SAPS  H18X 9739   3.066   5.540   8.916 -1.6782  1.6713 -0.4572
   97SAPS  H18Y 9740   2.963   5.425   8.835  2.6874 -3.8449  0.8596
   97SAPS  H18Z 9741   3.028   5.586   8.750  1.8255  0.8209  0.4028
   98SAPS     N 9742   3.223   6.327   6.201  0.4617 -0.0458  0.2328
   98SAPS   HN1 9743   3.222   6.241   6.261 -1.5894 -1.4369 -1.6052
   98SAPS   HN2 9744   3.282   6.286   6.126 -1.1240 -1.4033 -0.3521
   98SAPS   HN3 9745   3.262   6.405   6.258  1.1039 -1.7283  2.2363
   98SAPS   C12 9746   3.077   6.347   6.175  0.5981  0.5676  0.3600
   98SAPS  H12A 9747   3.025   6.405   6.250 -1.3735  1.0619 -1.2956
   98SAPS   C13 9748   3.054   6.414   6.041  0.2762 -0.9241  0.8876
   98SAPS  O13A 9749   3.146   6.426   5.958  0.4003  0.2508  0.5821
   98SAPS  O13B 9750   2.933   6.449   6.015 -0.0881 -0.0440  0.5342
   98SAPS   C11 9751   3.013   6.209   6.153  0.3448 -0.4777 -0.6491
   98SAPS  H11A 9752   3.069   6.143   6.084  0.2492 -1.4735  0.1968
   98SAPS  H11B 9753   2.916   6.210   6.098 -0.0870  0.4340  0.0829
   98SAPS     P 9754   2.897   6.167   6.384  0.2569 -0.3975  0.1875
   98SAPS   O13 9755   2.790   6.245   6.309 -0.0149 -0.1407 -0.8570
   98SAPS   O14 9756   2.871   6.030   6.437 -0.0468 -0.0896  0.3630
   98SAPS   O12 9757   3.012   6.143   6.277 -0.1946  0.7467  0.2570
   98SAPS   O11 9758   2.968   6.269   6.490  0.1798 -0.3416  0.1087
   98SAPS    C1 9759   3.085   6.223   6.569  0.3921  0.1833  0.3149
   98SAPS    HA 9760   3.146   6.158   6.502  0.6120  2.0429 -1.3893
   98SAPS    HB 9761   3.160   6.302   6.590 -0.1017  1.0576 -1.0616
   98SAPS    C2 9762   3.046   6.146   6.696 -0.1238 -0.6078  0.0486
   98SAPS    HS 9763   2.966   6.075   6.666  0.6425 -1.5337  0.1577
   98SAPS   O21 9764   2.990   6.257   6.775 -0.4753  0.3897 -0.7382
   98SAPS   C21 9765   2.864   6.238   6.817  0.6221  0.7883  0.6167
   98SAPS   O22 9766   2.792   6.142   6.794  0.9843 -0.2717  0.8395
   98SAPS   C22 9767   2.816   6.351   6.901 -0.4163 -0.2736  0.9322
   98SAPS   H2R 9768   2.905   6.385   6.958  0.0353 -0.5475  0.4033
   98SAPS   H2S 9769   2.796   6.440   6.838 -0.0634  0.3413  1.6834
   98SAPS    C3 9770   3.168   6.094   6.775 -0.4955 -0.4882  0.2813
   98SAPS    HX 9771   3.240   6.179   6.775  0.7236 -1.4275 -1.6272
   98SAPS    HY 9772   3.211   6.020   6.704  0.2023  1.5148 -1.4923
   98SAPS   O31 9773   3.133   6.045   6.910 -0.5141  0.1760  0.2757
   98SAPS   C31 9774   3.075   5.924   6.916  0.5353 -0.9061 -0.0015
   98SAPS   O32 9775   3.052   5.851   6.820 -0.4147  0.0645  0.2207
   98SAPS   C32 9776   3.022   5.918   7.061  0.2856  0.2307  0.2975
   98SAPS   H2X 9777   2.985   6.019   7.090 -1.4916 -0.3878  0.2827
   98SAPS   H2Y 9778   3.105   5.870   7.119  1.8130 -1.0070 -2.7202
   98SAPS   C23 9779   2.703   6.321   6.991  0.1836  0.1957  0.0123
   98SAPS   H3R 9780   2.618   6.290   6.926 -0.5618 -0.1417  1.1244
   98SAPS   H3S 9781   2.663   6.411   7.043 -1.1463 -1.5435  2.1827
   98SAPS   C24 9782   2.718   6.207   7.107 -0.0354 -0.4230  0.6582
   98SAPS   H4R 9783   2.733   6.105   7.063 -1.8739  0.6807 -2.9481
   98SAPS   H4S 9784   2.616   6.203   7.152 -0.3265 -2.0635 -0.0718
   98SAPS   C25 9785   2.826   6.240   7.211 -0.6441  0.3953  0.0144
   98SAPS   H5R 9786   2.928   6.229   7.173 -0.6949  0.6191 -0.1866
   98SAPS   C26 9787   2.803   6.288   7.329  0.0118  0.5840  0.5422
   98SAPS   H6R 9788   2.894   6.310   7.388  0.2168 -0.6933  0.7374
   98SAPS   C27 9789   2.663   6.315   7.383  0.1722  0.1336 -0.3025
   98SAPS   H7R 9790   2.628   6.213   7.410  1.0377 -0.6222 -1.9208
   98SAPS   H7S 9791   2.585   6.346   7.310 -1.2161  1.1576  1.5170
   98SAPS   C28 9792   2.665   6.409   7.498  0.2703 -0.2916  0.0078
   98SAPS   H8R 9793   2.740   6.490   7.488 -0.7711  0.6786 -0.1143
   98SAPS   C29 9794   2.584   6.397   7.606 -0.3893 -0.7580  0.6650
   98SAPS   H9R 9795   2.592   6.472   7.686  1.6087  0.5199 -0.6295
   98SAPS  C210 9796   2.476   6.293   7.627  0.6541  0.0679 -0.3286
   98SAPS  H10R 9797   2.463   6.231   7.536  1.1580 -2.5791  1.3053
   98SAPS  H10S 9798   2.391   6.360   7.650  0.9167  1.2169 -2.4487
   98SAPS  C211 9799   2.527   6.213   7.738 -0.5234  1.2360 -0.5089
   98SAPS  H11R 9800   2.575   6.121   7.704  0.3142  1.4249  0.1341
   98SAPS  C212 9801   2.508   6.234   7.872 -0.8665  0.1173 -0.0170
   98SAPS  H12R 9802   2.538   6.156   7.944  1.0578  0.7940 -0.0300
   98SAPS  C213 9803   2.431   6.345   7.942  1.0524  0.4517  0.6631
   98SAPS  H13R 9804   2.347   6.372   7.875  2.3479 -1.6704 -2.0378
   98SAPS  H13S 9805   2.492   6.437   7.938 -0.0130  1.1114 -1.2840
   98SAPS  C214 9806   2.385   6.312   8.083 -0.3538  0.0462 -0.5385
   98SAPS  H14R 9807   2.312   6.232   8.095 -0.6327  0.4698  0.6567
   98SAPS  C215 9808   2.442   6.363   8.193  0.6501  0.3029  0.1775
   98SAPS  H15R 9809   2.417   6.318   8.290  0.3622 -0.0691 -0.0685
   98SAPS  C216 9810   2.553   6.464   8.208 -0.3140  0.7014  0.8250
   98SAPS  H16R 9811   2.584   6.516   8.115  2.5217 -1.8948  0.1847
   98SAPS  H16S 9812   2.642   6.404   8.234 -0.7289  0.4438  1.7024
   98SAPS  C217 9813   2.522   6.563   8.320  0.2555 -0.0242 -0.4345
   98SAPS  H17R 9814   2.421   6.607   8.310 -0.1760 -0.7806  0.4181
   98SAPS  H17S 9815   2.604   6.637   8.328  1.7716 -1.6334 -0.2736
   98SAPS  C218 9816   2.525   6.513   8.467  0.1758 -0.2345 -0.3465
   98SAPS  H18R 9817   2.436   6.450   8.491  0.2338 -0.1559  0.0871
   98SAPS  H18S 9818   2.532   6.599   8.537  1.5098  0.3074 -1.1220
   98SAPS  C219 9819   2.650   6.422   8.493 -0.0841 -0.3315  0.3489
   98SAPS  H19R 9820   2.732   6.482   8.446 -1.6166  1.1670 -0.5353
   98SAPS  H19S 9821   2.648   6.320   8.451 -1.1970  0.2983 -1.2560
   98SAPS  C220 9822   2.664   6.398   8.645 -0.6474  0.6369 -0.0103
   98SAPS  H20R 9823   2.763   6.352   8.669 -0.4126  1.0800 -0.1040
   98SAPS  H20S 9824   2.584   6.337   8.692  0.6568 -1.2336 -0.1028
   98SAPS  H20T 9825   2.679   6.492   8.702  1.7546  0.4712 -0.2514
   98SAPS   C33 9826   2.901   5.821   7.072  0.2254  0.1526 -0.4074
   98SAPS   H3X 9827   2.906   5.747   6.989  1.8347 -0.9159  0.5815
   98SAPS   H3Y 9828   2.800   5.869   7.067 -0.9423 -2.1928 -5.3277
   98SAPS   C34 9829   2.902   5.723   7.195  0.3076 -0.0385 -0.0193
   98SAPS   H4X 9830   2.998   5.669   7.207 -0.6728 -1.7277  0.6783
   98SAPS   H4Y 9831   2.828   5.643   7.172  1.5606 -1.1762 -0.2307
   98SAPS   C35 9832   2.865   5.785   7.335  0.2351 -0.3862 -0.1388
   98SAPS   H5X 9833   2.802   5.709   7.385 -2.5609  0.6339 -1.8249
   98SAPS   H5Y 9834   2.799   5.874   7.322  2.6436  1.6009  0.5548
   98SAPS   C36 9835   2.985   5.817   7.419 -0.2474 -0.0342  0.6027
   98SAPS   H6X 9836   3.043   5.902   7.378  1.1594 -1.4831 -0.5890
   98SAPS   H6Y 9837   3.047   5.724   7.417 -0.4225 -0.1806  1.7096
   98SAPS   C37 9838   2.962   5.839   7.570  0.4790  0.3013  0.3476
   98SAPS   H7X 9839   3.056   5.889   7.601  0.4520  0.4236  0.2352
   98SAPS   H7Y 9840   2.944   5.748   7.632 -0.3797  0.4992  0.4053
   98SAPS   C38 9841   2.830   5.912   7.600  0.1012 -0.1249  0.2514
   98SAPS   H8X 9842   2.744   5.871   7.543 -1.0767  0.8145  1.3003
   98SAPS   H8Y 9843   2.842   6.019   7.573  0.3289 -0.7494 -2.3419
   98SAPS   C39 9844   2.799   5.891   7.750 -1.0511 -0.0821 -0.2284
   98SAPS   H9X 9845   2.792   5.783   7.775  3.3943 -0.5824 -0.3069
   98SAPS   H9Y 9846   2.698   5.934   7.760 -0.0972  1.9392  1.3305
   98SAPS  C310 9847   2.899   5.954   7.845  0.2456 -0.2693 -0.5118
   98SAPS  H10X 9848   2.914   6.062   7.825 -1.1024 -0.1046 -0.7011
   98SAPS  H10Y 9849   2.997   5.904   7.860  0.5955  0.9826  1.9792
   98SAPS  C311 9850   2.841   5.952   7.992 -0.2904  0.5831  0.2566
   98SAPS  H11X 9851   2.834   5.852   8.040 -3.3340 -1.2904 -3.5020
   98SAPS  H11Y 9852   2.733   5.978   7.995 -0.7567 -1.2486  1.1331
   98SAPS  C312 9853   2.930   6.039   8.076  0.1206 -0.7784  0.1549
   98SAPS  H12X 9854   2.910   6.143   8.044  0.5500 -0.7540 -0.0374
   98SAPS  H12Y 9855   3.037   6.017   8.057  0.2922  0.6861 -0.6971
   98SAPS  C313 9856   2.890   6.024   8.227 -0.6847 -0.0011 -0.1636
   98SAPS  H13X 9857   2.908   6.119   8.282 -1.1332 -1.3436  2.4220
   98SAPS  H13Y 9858   2.946   5.939   8.270 -0.8740 -0.9182 -1.6438
   98SAPS  C314 9859   2.746   6.005   8.252 -0.3373  0.1731 -0.2199
   98SAPS  H14X 9860   2.716   5.904   8.218 -0.4088  1.1459 -3.3056
   98SAPS  H14Y 9861   2.684   6.089   8.213  0.1383  0.5093 -0.2607
   98SAPS  C315 9862   2.718   6.014   8.408 -0.3021 -0.0540  0.1855
   98SAPS  H15X 9863   2.752   6.112   8.447 -1.4551  0.3652  0.1570
   98SAPS  H15Y 9864   2.785   5.945   8.464 -0.2648  0.7195  1.1141
   98SAPS  C316 9865   2.576   5.988   8.463 -0.4084  0.7140 -0.1285
   98SAPS  H16X 9866   2.544   5.882   8.461 -0.4681  0.7330 -0.2035
   98SAPS  H16Y 9867   2.506   6.049   8.401 -0.1000  0.0935 -1.1112
   98SAPS  C317 9868   2.553   6.033   8.611 -0.2251  0.1953  0.1940
   98SAPS  H17X 9869   2.465   5.974   8.644  0.1370  0.1225  1.0607
   98SAPS  H17Y 9870   2.532   6.142   8.604 -2.1333 -0.0267  1.6688
   98SAPS  C318 9871   2.670   6.015   8.707 -0.0204 -0.1301  0.0211
   98SAPS  H18X 9872   2.655   6.020   8.817  1.1167  0.8316  0.1450
   98SAPS  H18Y 9873   2.761   6.073   8.680  0.8108 -0.3897  2.0714
   98SAPS  H18Z 9874   2.696   5.907   8.700 -1.2757 -0.3971 -1.0526
   99SAPS     N 9875   1.908   3.696   6.358 -0.7250  0.1435  0.0530
   99SAPS   HN1 9876   1.846   3.773   6.327 -2.8571 -0.7810  1.7216
   99SAPS   HN2 9877   1.850   3.633   6.417 -0.6802  1.3388  1.4377
   99SAPS   HN3 9878   1.980   3.733   6.423 -0.5764  0.0961 -0.0852
   99SAPS   C12 9879   1.963   3.637   6.239  0.1930 -0.4560  0.6144
   99SAPS  H12A 9880   1.988   3.535   6.265 -1.4643 -1.3433 -1.0240
   99SAPS   C13 9881   1.867   3.609   6.119 -0.7045 -0.4778 -0.8595
   99SAPS  O13A 9882   1.751   3.660   6.120  0.1567 -0.4664  0.0926
   99SAPS  O13B 9883   1.908   3.537   6.027  0.0218 -0.9638  0.1951
   99SAPS   C11 9884   2.090   3.723   6.195 -0.1872  0.4735 -0.9809
   99SAPS  H11A 9885   2.068   3.831   6.207  1.3095  0.7570 -0.5628
   99SAPS  H11B 9886   2.113   3.702   6.088 -1.0568  1.6279 -1.4129
   99SAPS     P 9887   2.321   3.777   6.316 -0.5427 -0.2934 -0.2169
   99SAPS   O13 9888   2.430   3.744   6.216  0.2367 -0.1519 -0.0824
   99SAPS   O14 9889   2.286   3.925   6.317 -0.8302  0.5493  0.1472
   99SAPS   O12 9890   2.196   3.683   6.291 -0.6366  0.7053 -0.3765
   99SAPS   O11 9891   2.370   3.736   6.458 -0.4390 -0.0433 -0.1760
   99SAPS    C1 9892   2.414   3.606   6.500  0.4577  0.4025 -0.5673
   99SAPS    HA 9893   2.457   3.547   6.417 -0.9868 -2.5124  0.5989
   99SAPS    HB 9894   2.493   3.617   6.577 -0.1261  1.1765 -0.0546
   99SAPS    C2 9895   2.300   3.529   6.577  0.2592  0.5703  0.5127
   99SAPS    HS 9896   2.236   3.494   6.494  0.5796  1.4864 -0.1430
   99SAPS   O21 9897   2.238   3.617   6.664  0.4588  0.3225  0.0205
   99SAPS   C21 9898   2.127   3.576   6.730 -0.5500  0.2322 -0.2431
   99SAPS   O22 9899   2.085   3.461   6.710 -0.2048 -0.0330 -0.1509
   99SAPS   C22 9900   2.068   3.672   6.833  0.2555 -0.6971  0.4822
   99SAPS   H2R 9901   2.139   3.757   6.848 -0.0129 -0.4309  0.2641
   99SAPS   H2S 9902   1.977   3.716   6.786  0.4058 -1.8465 -0.9633
   99SAPS    C3 9903   2.359   3.401   6.645  0.2402 -0.0834 -0.6756
   99SAPS    HX 9904   2.403   3.338   6.564  0.3598 -0.2500 -0.4838
   99SAPS    HY 9905   2.280   3.344   6.698 -1.9396  2.8761 -0.4711
   99SAPS   O31 9906   2.474   3.428   6.730 -0.1108  0.2811  0.9254
   99SAPS   C31 9907   2.444   3.446   6.860 -0.1138  1.0127  0.1567
   99SAPS   O32 9908   2.337   3.462   6.910  0.3331  0.3494  0.2331
   99SAPS   C32 9909   2.573   3.437   6.949 -0.5388  0.2691  0.6626
   99SAPS   H2X 9910   2.651   3.475   6.880 -0.5202 -0.4976  0.2476
   99SAPS   H2Y 9911   2.589   3.327   6.960 -3.1195 -0.0599  1.8076
   99SAPS   C23 9912   2.041   3.612   6.967  0.0114 -0.2077  1.1185
   99SAPS   H3R 9913   2.126   3.561   7.017  0.9641 -0.1842 -0.3981
   99SAPS   H3S 9914   1.964   3.534   6.947 -0.5421  0.4942  0.4174
   99SAPS   C24 9915   1.985   3.718   7.063  0.3890 -0.1716  0.4838
   99SAPS   H4R 9916   1.931   3.659   7.140 -2.0493  0.8033 -0.3576
   99SAPS   H4S 9917   1.895   3.762   7.014  0.0817  0.5296  1.6321
   99SAPS   C25 9918   2.078   3.821   7.118 -0.0277  0.2113 -0.0722
   99SAPS   H5R 9919   2.115   3.889   7.040 -0.9799  3.4726  2.1082
   99SAPS   C26 9920   2.109   3.843   7.249  0.5237  0.6392  0.2771
   99SAPS   H6R 9921   2.186   3.916   7.275 -0.9637  2.6743 -0.7645
   99SAPS   C27 9922   2.047   3.773   7.363  0.7920  1.1717 -0.4756
   99SAPS   H7R 9923   2.119   3.690   7.379 -0.3949  0.3632  0.9530
   99SAPS   H7S 9924   1.959   3.712   7.334  1.0860  1.0713 -1.1826
   99SAPS   C28 9925   2.004   3.844   7.485  0.4513  0.2775  0.0149
   99SAPS   H8R 9926   1.903   3.887   7.497 -0.2811 -1.2700 -0.3296
   99SAPS   C29 9927   2.084   3.840   7.598  0.4452  0.2552  1.0054
   99SAPS   H9R 9928   2.054   3.909   7.679 -1.0637  0.9047 -0.0524
   99SAPS  C210 9929   2.222   3.771   7.618  0.7170 -0.7253  0.7178
   99SAPS  H10R 9930   2.270   3.821   7.704  0.3848 -0.5402  0.7939
   99SAPS  H10S 9931   2.288   3.788   7.530 -0.0485 -0.4044  0.1856
   99SAPS  C211 9932   2.207   3.620   7.637  0.5992 -0.6826 -0.1513
   99SAPS  H11R 9933   2.110   3.571   7.619  0.9820 -1.4337 -0.2105
   99SAPS  C212 9934   2.308   3.545   7.678  0.0940  0.1463  0.4071
   99SAPS  H12R 9935   2.294   3.435   7.674  0.0813  0.1203  1.1109
   99SAPS  C213 9936   2.451   3.583   7.715 -0.4686 -0.0510 -0.5448
   99SAPS  H13R 9937   2.454   3.597   7.825  0.9246  0.6666 -0.6630
   99SAPS  H13S 9938   2.483   3.679   7.670  1.1759 -0.3214 -0.0166
   99SAPS  C214 9939   2.551   3.481   7.666  0.4144  0.5985  0.8635
   99SAPS  H14R 9940   2.527   3.427   7.573  1.1421 -1.5706  1.8626
   99SAPS  C215 9941   2.670   3.444   7.722  0.9420 -0.7529  0.3747
   99SAPS  H15R 9942   2.724   3.361   7.674 -0.6609 -1.4801 -0.2783
   99SAPS  C216 9943   2.730   3.501   7.842 -0.2359 -0.1798  0.7210
   99SAPS  H16R 9944   2.688   3.603   7.849 -0.9307 -0.5767  3.1839
   99SAPS  H16S 9945   2.839   3.524   7.835 -0.3629 -0.0223 -1.1269
   99SAPS  C217 9946   2.696   3.422   7.966 -0.2338 -0.5925 -0.0912
   99SAPS  H17R 9947   2.742   3.322   7.951  0.3290 -0.6482  1.7740
   99SAPS  H17S 9948   2.586   3.415   7.981 -0.4627  2.1185 -0.0325
   99SAPS  C218 9949   2.753   3.475   8.096  0.7200 -0.6236  0.6919
   99SAPS  H18R 9950   2.723   3.578   8.127  0.3771 -0.5550  0.1405
   99SAPS  H18S 9951   2.865   3.478   8.097  0.7513 -1.4251  1.9872
   99SAPS  C219 9952   2.719   3.381   8.215 -0.0246  0.5081 -0.3191
   99SAPS  H19R 9953   2.739   3.280   8.173  3.0306  1.3339 -1.1012
   99SAPS  H19S 9954   2.614   3.369   8.248  0.3559 -2.3217  0.1241
   99SAPS  C220 9955   2.802   3.406   8.336 -0.0937  0.1131 -0.1888
   99SAPS  H20R 9956   2.804   3.511   8.371  0.4603 -0.1119  0.4747
   99SAPS  H20S 9957   2.912   3.399   8.319  0.2544 -0.4698  1.9542
   99SAPS  H20T 9958   2.802   3.345   8.429 -0.3496  1.0888  0.4633
   99SAPS   C33 9959   2.559   3.508   7.087 -0.7679  0.5359 -0.3166
   99SAPS   H3X 9960   2.646   3.490   7.155 -0.5642 -1.8770 -1.1385
   99SAPS   H3Y 9961   2.474   3.459   7.138 -0.5441  0.3509 -0.1193
   99SAPS   C34 9962   2.524   3.657   7.079  0.3728  0.0296  0.4578
   99SAPS   H4X 9963   2.458   3.669   6.991 -3.0386 -0.9624  2.6476
   99SAPS   H4Y 9964   2.617   3.714   7.058  0.3554 -0.0977  0.0273
   99SAPS   C35 9965   2.454   3.714   7.200  0.0896  0.4348  0.0636
   99SAPS   H5X 9966   2.361   3.655   7.210  0.6049 -0.4291 -0.1564
   99SAPS   H5Y 9967   2.419   3.818   7.182 -3.3522 -0.3298  1.6579
   99SAPS   C36 9968   2.543   3.697   7.322  0.2220  0.2495 -0.0894
   99SAPS   H6X 9969   2.587   3.596   7.333  0.8392  0.3803 -1.1645
   99SAPS   H6Y 9970   2.468   3.701   7.404 -0.2723 -0.8472 -0.4598
   99SAPS   C37 9971   2.657   3.803   7.321  0.4212 -0.0252 -0.5776
   99SAPS   H7X 9972   2.616   3.904   7.298  0.2837  0.1582  0.3965
   99SAPS   H7Y 9973   2.727   3.771   7.242  1.1447  0.7256 -0.2530
   99SAPS   C38 9974   2.701   3.816   7.469 -0.6382  0.4325 -0.2890
   99SAPS   H8X 9975   2.805   3.855   7.477 -0.6193  0.0295  3.4292
   99SAPS   H8Y 9976   2.695   3.715   7.515 -1.5474  1.5159  2.1844
   99SAPS   C39 9977   2.615   3.912   7.554 -0.1295 -0.1561  0.0241
   99SAPS   H9X 9978   2.510   3.875   7.553 -0.6520  1.2189  0.4941
   99SAPS   H9Y 9979   2.620   4.017   7.516  0.0651 -0.6257 -1.2679
   99SAPS  C310 9980   2.670   3.925   7.702  0.5922  0.0934 -0.0772
   99SAPS  H10X 9981   2.769   3.975   7.694  0.6074  0.2594  1.0808
   99SAPS  H10Y 9982   2.694   3.828   7.750  0.0935 -0.4139 -0.8240
   99SAPS  C311 9983   2.571   3.999   7.791 -0.4389  0.1523  0.3328
   99SAPS  H11X 9984   2.476   3.941   7.795 -0.0098 -0.5966 -0.2205
   99SAPS  H11Y 9985   2.565   4.103   7.752  1.2880 -0.0553 -0.5829
   99SAPS  C312 9986   2.626   4.024   7.929  0.1445  0.4729  0.4377
   99SAPS  H12X 9987   2.708   4.098   7.921 -0.3377  0.8867 -0.8721
   99SAPS  H12Y 9988   2.674   3.930   7.964 -0.2955  0.1350  0.1448
   99SAPS  C313 9989   2.531   4.072   8.039 -1.2020  0.2056  0.5838
   99SAPS  H13X 9990   2.495   4.174   8.015 -2.2154 -0.6913 -1.9691
   99SAPS  H13Y 9991   2.585   4.077   8.136  1.4418 -1.1739 -0.7159
   99SAPS  C314 9992   2.405   3.981   8.070  0.2114  0.0478 -0.5527
   99SAPS  H14X 9993   2.342   4.015   7.986 -1.2708  1.9482  1.2391
   99SAPS  H14Y 9994   2.357   4.014   8.165  2.1835  0.1562  0.4659
   99SAPS  C315 9995   2.428   3.830   8.073  0.2309  0.0792 -0.5213
   99SAPS  H15X 9996   2.516   3.804   8.135  0.6638  0.4591 -0.9705
   99SAPS  H15Y 9997   2.436   3.796   7.968 -2.5238  1.7637 -1.3869
   99SAPS  C316 9998   2.313   3.743   8.128  0.0201 -0.3760 -0.7433
   99SAPS  H16X 9999   2.218   3.779   8.082  0.9260  2.3956 -0.6656
   99SAPS  H16Y10000   2.296   3.765   8.235 -0.1826 -1.5764 -0.5144
   99SAPS  C31710001   2.324   3.591   8.102 -0.0145  0.2224  0.2166
   99SAPS  H17X10002   2.429   3.556   8.108 -0.4022 -1.2740 -1.0570
   99SAPS  H17Y10003   2.281   3.568   8.002 -0.1508 -3.0101  0.9182
   99SAPS  C31810004   2.240   3.499   8.182 -1.0559  0.2874 -0.3369
   99SAPS  H18X10005   2.238   3.397   8.137  0.5450  0.5041 -0.9639
   99SAPS  H18Y10006   2.134   3.533   8.170 -0.8665  1.1906  0.4418
   99SAPS  H18Z10007   2.278   3.505   8.286 -2.4785 -0.1414  0.2314
  100SAPS     N10008   4.904   5.221   6.388  0.7210 -0.3919 -0.2318
  100SAPS   HN110009   4.829   5.272   6.438  0.2857  1.0522 -2.2227
  100SAPS   HN210010   4.935   5.146   6.452 -1.7302 -0.6738  0.7156
  100SAPS   HN310011   4.981   5.287   6.365  0.3429 -0.8496 -3.2913
  100SAPS   C1210012   4.842   5.171   6.265 -0.2921  0.2546  0.4980
  100SAPS  H12A10013   4.773   5.244   6.225  0.3416 -0.7870 -2.8119
  100SAPS   C1310014   4.933   5.147   6.141  1.0600  0.2039  0.6224
  100SAPS  O13A10015   5.053   5.189   6.142 -0.1454  0.0341 -0.6535
  100SAPS  O13B10016   4.873   5.128   6.030  0.5095  0.5607  0.0044
  100SAPS   C1110017   4.758   5.043   6.287 -0.3584  0.0971  0.4805
  100SAPS  H11A10018   4.821   4.958   6.320 -1.0288  0.3547  2.6162
  100SAPS  H11B10019   4.709   5.015   6.191 -2.3076 -1.3371  1.8051
  100SAPS     P10020   4.551   4.939   6.398  0.1528  0.0935  0.3854
  100SAPS   O1310021   4.421   4.965   6.333  0.5380 -0.5864  0.7109
  100SAPS   O1410022   4.616   4.809   6.364  0.2277  0.0240 -0.0418
  100SAPS   O1210023   4.653   5.058   6.384  0.3089  0.0911 -0.4478
  100SAPS   O1110024   4.523   4.939   6.554 -0.0524 -0.1954 -0.9484
  100SAPS    C110025   4.528   5.067   6.625 -0.3308  0.0893  0.5395
  100SAPS    HA10026   4.633   5.101   6.621 -0.9636  2.0921 -0.7206
  100SAPS    HB10027   4.464   5.143   6.576 -0.3020 -0.5857 -0.5931
  100SAPS    C210028   4.477   5.049   6.773  0.9251 -0.6158 -0.5903
  100SAPS    HS10029   4.528   5.125   6.836  0.2164 -1.0729  0.5836
  100SAPS   O2110030   4.510   4.918   6.830 -0.0747  0.4774  0.5320
  100SAPS   C2110031   4.630   4.886   6.857 -0.2249 -0.4752  1.0498
  100SAPS   O2210032   4.731   4.955   6.827  0.2735  0.0223 -0.7045
  100SAPS   C2210033   4.633   4.738   6.898  1.0779 -0.0616  0.7328
  100SAPS   H2R10034   4.614   4.664   6.818  0.3537 -1.3956  2.0930
  100SAPS   H2S10035   4.739   4.705   6.910  0.6518 -0.9965  2.1582
  100SAPS    C310036   4.323   5.078   6.785 -0.3813 -0.5207  0.1392
  100SAPS    HX10037   4.279   5.015   6.705  1.0991 -1.8566  0.3349
  100SAPS    HY10038   4.299   5.185   6.766  3.2742  0.8818  2.3503
  100SAPS   O3110039   4.265   5.041   6.909  0.1566  0.6638 -0.2617
  100SAPS   C3110040   4.312   5.107   7.017  0.1326  0.6104 -0.3926
  100SAPS   O3210041   4.391   5.202   7.008 -0.2925 -0.4947  0.0609
  100SAPS   C3210042   4.227   5.060   7.129  0.1774 -0.1322 -0.1175
  100SAPS   H2X10043   4.243   4.951   7.146  0.2949 -0.0069  0.6319
  100SAPS   H2Y10044   4.125   5.062   7.085 -0.2016 -1.1087  0.6642
  100SAPS   C2310045   4.539   4.696   7.014  0.0114  0.2189 -0.6137
  100SAPS   H3R10046   4.514   4.588   7.015 -2.9763  0.7804  2.6213
  100SAPS   H3S10047   4.450   4.761   7.002  1.2860  2.3342  0.7033
  100SAPS   C2410048   4.617   4.731   7.140 -0.2184  0.4279 -1.3675
  100SAPS   H4R10049   4.633   4.841   7.148  0.3738  0.2413  1.0393
  100SAPS   H4S10050   4.714   4.677   7.139  0.0147  0.8496 -1.6202
  100SAPS   C2510051   4.541   4.679   7.262 -0.5050  0.1109 -0.2736
  100SAPS   H5R10052   4.507   4.575   7.255  0.8902 -0.8395  4.1981
  100SAPS   C2610053   4.514   4.756   7.372  0.4976 -0.3886 -0.0853
  100SAPS   H6R10054   4.436   4.717   7.440  0.2586 -2.2132 -1.3470
  100SAPS   C2710055   4.537   4.897   7.408 -0.7102  0.1608  0.5013
  100SAPS   H7R10056   4.456   4.938   7.472 -1.4707 -0.0568 -0.3240
  100SAPS   H7S10057   4.529   4.956   7.314 -0.8494  0.0179  0.4259
  100SAPS   C2810058   4.681   4.920   7.468 -0.3794 -0.0407 -0.7624
  100SAPS   H8R10059   4.758   4.962   7.401 -1.2288  2.8454 -0.0545
  100SAPS   C2910060   4.726   4.906   7.598  0.3509  0.0165  0.1827
  100SAPS   H9R10061   4.829   4.935   7.623 -0.0361  0.4719  1.3435
  100SAPS  C21010062   4.640   4.863   7.711  0.3337  0.4119 -0.6867
  100SAPS  H10R10063   4.532   4.880   7.690 -0.1726 -1.4805  0.1415
  100SAPS  H10S10064   4.662   4.930   7.797  0.7127  1.8543 -1.8674
  100SAPS  C21110065   4.665   4.714   7.731  0.5492  0.4476 -0.5946
  100SAPS  H11R10066   4.638   4.652   7.645 -1.2158 -0.8500  0.8215
  100SAPS  C21210067   4.736   4.659   7.835  0.7215 -0.8898 -0.8108
  100SAPS  H12R10068   4.770   4.554   7.841  0.4049 -0.9149  1.3955
  100SAPS  C21310069   4.804   4.742   7.946 -0.7151 -0.2114  0.8765
  100SAPS  H13R10070   4.834   4.844   7.913 -0.5319 -0.4687  0.2306
  100SAPS  H13S10071   4.899   4.692   7.973  0.2190  0.2218 -1.3548
  100SAPS  C21410072   4.712   4.762   8.063 -0.0651  0.3624 -0.1810
  100SAPS  H14R10073   4.607   4.787   8.041 -0.7762 -0.6691  1.7853
  100SAPS  C21510074   4.732   4.741   8.194  0.2351 -0.3878  0.8886
  100SAPS  H15R10075   4.655   4.766   8.268  0.8401  0.2189  1.3261
  100SAPS  C21610076   4.862   4.696   8.247 -1.0020  0.4959  0.0375
  100SAPS  H16R10077   4.938   4.690   8.167 -0.3523  0.1523  0.6695
  100SAPS  H16S10078   4.856   4.594   8.290  0.7857 -0.0508 -0.9194
  100SAPS  C21710079   4.931   4.794   8.342  0.5572 -0.1857  0.5535
  100SAPS  H17R10080   4.917   4.901   8.313 -1.4382 -1.0152 -1.9173
  100SAPS  H17S10081   5.038   4.765   8.349  0.2200 -1.3184  1.3448
  100SAPS  C21810082   4.872   4.789   8.479  0.2688  0.0100 -0.1511
  100SAPS  H18R10083   4.863   4.679   8.491  1.7161 -0.2754 -1.3293
  100SAPS  H18S10084   4.768   4.830   8.479  0.1063 -0.4014 -0.0221
  100SAPS  C21910085   4.962   4.862   8.584 -0.0139  0.0385 -0.1724
  100SAPS  H19R10086   5.059   4.810   8.570 -0.4591 -0.0698 -3.9697
  100SAPS  H19S10087   4.920   4.848   8.686 -0.1344 -0.3459 -0.2735
  100SAPS  C22010088   4.995   5.007   8.568 -0.1737 -0.5589  0.0490
  100SAPS  H20R10089   5.051   5.044   8.657 -1.1257 -0.2775  0.5566
  100SAPS  H20S10090   4.903   5.069   8.562  0.9671  1.3758  1.4110
  100SAPS  H20T10091   5.039   5.027   8.469 -1.2725  1.1823 -0.1338
  100SAPS   C3310092   4.237   5.133   7.263  0.4353  0.1692 -0.6443
  100SAPS   H3X10093   4.197   5.236   7.254 -1.2054 -0.4274 -0.5629
  100SAPS   H3Y10094   4.341   5.118   7.300 -0.1686 -0.8690  0.7311
  100SAPS   C3410095   4.159   5.046   7.374  0.6025 -0.4942  0.4188
  100SAPS   H4X10096   4.201   4.943   7.377 -0.7327 -1.0873  4.1473
  100SAPS   H4Y10097   4.052   5.049   7.345  0.6325  1.3935  0.3602
  100SAPS   C3510098   4.197   5.100   7.515 -0.4702 -0.9637 -0.0117
  100SAPS   H5X10099   4.159   5.204   7.517 -1.6900 -1.3650 -0.9679
  100SAPS   H5Y10100   4.307   5.087   7.528 -0.1206  0.3173 -1.4249
  100SAPS   C3610101   4.127   5.023   7.626  0.2108  0.1653 -0.0533
  100SAPS   H6X10102   4.141   4.914   7.605  1.2807  0.0126  1.3712
  100SAPS   H6Y10103   4.019   5.052   7.626 -0.2531 -1.4060 -1.0940
  100SAPS   C3710104   4.175   5.047   7.771 -0.7010  0.0269  0.0667
  100SAPS   H7X10105   4.175   5.158   7.776  0.9227  0.0735 -0.1872
  100SAPS   H7Y10106   4.282   5.017   7.764 -0.3416  1.3794 -0.7817
  100SAPS   C3810107   4.095   4.966   7.878 -0.1738  0.3237  0.7329
  100SAPS   H8X10108   4.065   4.864   7.844 -0.7812  1.0590 -1.0063
  100SAPS   H8Y10109   3.993   5.005   7.899 -1.1246 -2.6226  2.2101
  100SAPS   C3910110   4.190   4.954   7.995  0.2311  1.0856  0.1670
  100SAPS   H9X10111   4.229   5.051   8.033 -0.8824  0.7972  2.1243
  100SAPS   H9Y10112   4.274   4.893   7.956 -0.1629  0.4343  0.3339
  100SAPS  C31010113   4.131   4.873   8.110  0.1181  0.3483  0.6077
  100SAPS  H10X10114   4.098   4.779   8.061  2.5774  0.0591 -0.6405
  100SAPS  H10Y10115   4.044   4.925   8.156 -1.8668 -2.7216  0.6252
  100SAPS  C31110116   4.238   4.841   8.214  0.5999  0.0765 -0.9214
  100SAPS  H11X10117   4.263   4.937   8.263 -0.2211  0.0054 -0.3468
  100SAPS  H11Y10118   4.325   4.787   8.170  0.7206 -0.0059 -0.5813
  100SAPS  C31210119   4.185   4.746   8.321  0.0968  0.5385 -0.5428
  100SAPS  H12X10120   4.270   4.703   8.378 -1.0581 -1.1603 -0.0010
  100SAPS  H12Y10121   4.131   4.661   8.274 -0.4458  0.1190  0.7741
  100SAPS  C31310122   4.093   4.819   8.418 -0.3835 -0.1364  0.3298
  100SAPS  H13X10123   4.019   4.870   8.352  1.1208  4.0079  1.5003
  100SAPS  H13Y10124   4.141   4.907   8.466  0.1188  0.2120 -0.7738
  100SAPS  C31410125   4.036   4.732   8.524  0.5194 -0.1022 -0.4167
  100SAPS  H14X10126   4.128   4.684   8.564  0.0681 -0.1794  0.5843
  100SAPS  H14Y10127   3.982   4.648   8.475 -0.4499  0.0615  0.3310
  100SAPS  C31510128   3.959   4.800   8.637  0.9921  0.6165  0.6436
  100SAPS  H15X10129   3.874   4.857   8.595 -0.6402 -2.3792 -0.3937
  100SAPS  H15Y10130   4.039   4.857   8.689  1.8957 -0.2975  0.3057
  100SAPS  C31610131   3.900   4.703   8.744  0.0056 -1.2587 -0.5134
  100SAPS  H16X10132   3.984   4.664   8.806  0.9769  0.6562 -0.5460
  100SAPS  H16Y10133   3.847   4.619   8.695 -0.2293  0.1127 -2.7437
  100SAPS  C31710134   3.807   4.775   8.845  0.0648 -0.8960  0.0463
  100SAPS  H17X10135   3.720   4.802   8.781 -0.4290  0.1845  1.1201
  100SAPS  H17Y10136   3.856   4.866   8.886 -1.5564 -0.4788  1.1720
  100SAPS  C31810137   3.771   4.682   8.966 -0.2612  0.0135  0.1099
  100SAPS  H18X10138   3.733   4.581   8.942 -1.9607  0.4043  0.9914
  100SAPS  H18Y10139   3.701   4.736   9.032 -0.5474  3.0465 -2.4113
  100SAPS  H18Z10140   3.863   4.665   9.026  0.8929  2.7988 -0.6684
  101OSM      N10141   6.144   5.732  11.307  0.4742  0.7600  0.2096
  101OSM    C1510142   6.144   5.867  11.355  0.6361  0.4690  0.0971
  101OSM   H15A10143   6.245   5.900  11.375  2.6880 -3.8869 -1.8100
  101OSM   H15B10144   6.083   5.881  11.443  0.8337  2.0608  0.0122
  101OSM   H15C10145   6.096   5.923  11.275  1.3333 -1.8226 -2.0723
  101OSM    C1410146   6.184   5.635  11.421  0.4632 -0.6120  0.2504
  101OSM   H14A10147   6.126   5.657  11.509 -2.2787 -0.5014 -1.4857
  101OSM   H14B10148   6.285   5.656  11.454 -0.2902 -0.9679  3.0065
  101OSM   H14C10149   6.165   5.536  11.383  0.4646  0.5266 -3.0393
  101OSM    C1310150   6.004   5.696  11.261 -0.6920 -0.2862 -0.5795
  101OSM   H13A10151   6.013   5.603  11.207  1.9595 -0.8863  0.7676
  101OSM   H13B10152   5.972   5.756  11.176 -3.1500 -0.0972  0.3821
  101OSM   H13C10153   5.926   5.706  11.335 -1.8955 -1.1509 -1.6795
  101OSM    C1210154   6.244   5.705  11.191  0.2835  0.3281  0.0498
  101OSM   H12A10155   6.340   5.739  11.228 -0.4550 -0.0133  2.4612
  101OSM   H12B10156   6.227   5.773  11.109  2.1828  0.7999  0.0030
  101OSM    C1110157   6.258   5.564  11.136  0.5425 -0.3023  0.0942
  101OSM   H11A10158   6.288   5.499  11.221  2.6480  0.2039 -0.2100
  101OSM   H11B10159   6.347   5.558  11.070  1.8431 -0.2440  1.7735
  101OSM      P10160   6.129   5.544  10.918 -0.0260 -0.3478  0.1312
  101OSM    O1310161   6.187   5.420  10.851 -0.3047  0.0963  0.3904
  101OSM    O1410162   5.996   5.589  10.872 -0.0986  0.0340  0.2262
  101OSM    O1110163   6.225   5.670  10.902  0.3232  0.1583 -0.3208
  101OSM    O1210164   6.136   5.515  11.076 -0.6894  0.0826 -0.6822
  101OSM    C1S10165   6.280   5.717  10.776 -0.8875  0.1816 -0.4540
  101OSM    H1S10166   6.331   5.632  10.725 -0.2405 -0.6277  1.4509
  101OSM    H1T10167   6.362   5.788  10.798 -0.4716  0.0524 -1.4979
  101OSM     NF10168   6.242   5.808  10.556 -0.0195  1.0077 -0.0985
  101OSM    HNF10169   6.293   5.892  10.540  1.4207  0.5795  1.9093
  101OSM    C2S10170   6.178   5.792  10.681 -0.1595  0.6162 -0.3178
  101OSM    H2S10171   6.103   5.710  10.678  1.6823 -1.1422 -0.5423
  101OSM    C3S10172   6.131   5.922  10.743 -0.5565 -0.0151  0.0562
  101OSM    H3S10173   6.213   5.997  10.742 -0.1114 -0.5073 -0.6469
  101OSM     O310174   6.092   5.901  10.883 -0.3710 -0.5360 -0.5123
  101OSM    HO310175   6.097   5.805  10.883 -0.3925 -0.5426  0.1031
  101OSM    C4S10176   6.019   5.978  10.655 -0.7953 -0.4528 -0.5156
  101OSM    H4S10177   6.030   6.085  10.632  1.0176 -0.2567  0.9412
  101OSM    C5S10178   5.913   5.911  10.614 -0.6021  0.3041  0.2183
  101OSM    H5S10179   5.895   5.803  10.626  0.5747 -0.5444 -4.0179
  101OSM    C6S10180   5.810   5.961  10.519  0.0876  0.1773  0.0643
  101OSM    H6S10181   5.711   5.978  10.566 -0.3266 -0.0864 -0.6887
  101OSM    H6T10182   5.773   5.875  10.459 -1.8627 -0.2394  1.7320
  101OSM    C7S10183   5.840   6.087  10.433 -0.1005  0.3866  0.5919
  101OSM    H7S10184   5.932   6.069  10.373 -1.0266  1.6793 -1.3376
  101OSM    H7T10185   5.850   6.173  10.501 -0.6087  1.2777 -0.4216
  101OSM    C8S10186   5.727   6.106  10.333 -0.7352  0.1113 -0.4099
  101OSM    H8S10187   5.640   6.153  10.384 -0.1855  1.3553 -0.5905
  101OSM    H8T10188   5.689   6.006  10.304  1.2039 -1.0177  0.7183
  101OSM    C9S10189   5.772   6.191  10.218  0.1114 -0.6161 -0.0008
  101OSM    H9S10190   5.880   6.168  10.210  0.0548 -1.1635  0.8184
  101OSM    H9T10191   5.759   6.298  10.244  0.5690 -0.5251 -0.1445
  101OSM   C10S10192   5.698   6.172  10.083  0.3366  0.0347 -0.1248
  101OSM   H10S10193   5.612   6.242  10.083 -0.7053 -1.2100 -0.7382
  101OSM   H10T10194   5.655   6.071  10.063 -1.3164  0.4676  1.0614
  101OSM   C11S10195   5.774   6.224   9.960 -0.3549 -0.1072 -0.4214
  101OSM   H11S10196   5.876   6.179   9.967  0.3166  1.5421  1.2321
  101OSM   H11T10197   5.784   6.334   9.960  0.8967 -0.1857 -1.8554
  101OSM   C12S10198   5.726   6.179   9.812 -0.5423 -0.1408 -1.1069
  101OSM   H12S10199   5.619   6.203   9.792 -0.2138  2.7906  0.1964
  101OSM   H12T10200   5.722   6.068   9.821 -0.8828  0.0819  3.7614
  101OSM   C13S10201   5.822   6.220   9.698  0.7021 -0.1360  0.2117
  101OSM   H13S10202   5.913   6.156   9.698 -0.3539 -1.6876  0.0242
  101OSM   H13T10203   5.849   6.327   9.710 -0.2894 -0.1247  3.0135
  101OSM   C14S10204   5.751   6.213   9.555  0.0361 -0.7660 -0.6518
  101OSM   H14S10205   5.668   6.288   9.556 -0.1602 -0.9828 -0.1025
  101OSM   H14T10206   5.718   6.107   9.553  2.5557 -1.6100 -1.3006
  101OSM   C15S10207   5.848   6.244   9.436 -0.5904  0.4960 -0.3193
  101OSM   H15S10208   5.934   6.176   9.455 -0.6833  0.7603  1.1562
  101OSM   H15T10209   5.894   6.345   9.433  1.5579 -0.3784  0.9893
  101OSM   C16S10210   5.777   6.224   9.299 -0.0661  1.1362 -0.5729
  101OSM   H16S10211   5.684   6.284   9.289 -0.2078  1.0003 -0.0948
  101OSM   H16T10212   5.755   6.115   9.298 -0.7387  1.2701 -0.5052
  101OSM   C17S10213   5.866   6.252   9.176 -0.3841  0.5242  0.0063
  101OSM   H17S10214   5.973   6.230   9.197  0.5833  2.8539 -2.0027
  101OSM   H17T10215   5.861   6.357   9.141 -1.6481 -0.1811 -2.1134
  101OSM   C18S10216   5.838   6.175   9.047  0.6574 -0.0054  0.1515
  101OSM   H18S10217   5.730   6.186   9.023  0.9281  0.5013 -0.9094
  101OSM   H18T10218   5.869   6.071   9.067  0.7461 -0.0910 -0.3926
  101OSM   H18U10219   5.895   6.215   8.960  0.8945 -1.2592 -0.2917
  101OSM    C1F10220   6.239   5.706  10.471 -0.8460 -0.6525  0.6450
  101OSM     OF10221   6.194   5.593  10.502 -0.4764  0.2428 -0.3038
  101OSM    C2F10222   6.306   5.724  10.337  0.5123  0.3926  0.9089
  101OSM    H2F10223   6.390   5.796  10.338 -1.4832  2.9143 -0.2116
  101OSM    H2G10224   6.226   5.758  10.267 -0.5277 -1.6921  1.0040
  101OSM    C3F10225   6.338   5.584  10.274  0.4284 -0.6074 -0.0991
  101OSM    H3F10226   6.245   5.526  10.254  0.1719 -0.8515  1.6624
  101OSM    H3G10227   6.401   5.525  10.344  3.9658  3.4008  0.5249
  101OSM    C4F10228   6.394   5.597  10.137 -0.7812  0.1758  0.1709
  101OSM    H4F10229   6.495   5.640  10.156 -0.3064 -1.4497  1.5921
  101OSM    H4G10230   6.335   5.663  10.070 -0.0756 -0.4287 -1.0767
  101OSM    C5F10231   6.413   5.459  10.062 -0.3162  0.1457 -0.4261
  101OSM    H5F10232   6.318   5.441  10.006 -0.6401  1.0953 -0.1923
  101OSM    H5G10233   6.429   5.372  10.129  1.1565 -0.5606 -1.6142
  101OSM    C6F10234   6.537   5.466   9.963  0.1385 -0.3118  0.3929
  101OSM    H6F10235   6.519   5.366   9.918 -0.3254  0.4584 -1.1996
  101OSM    H6G10236   6.642   5.469   9.999  0.0935 -0.7450  0.5612
  101OSM    C7F10237   6.519   5.577   9.856  0.2481 -0.2316  0.0562
  101OSM    H7F10238   6.544   5.673   9.906  1.4468 -0.8032  0.5990
  101OSM    H7G10239   6.418   5.577   9.811  0.7911 -1.5558 -1.2697
  101OSM    C8F10240   6.610   5.549   9.733  0.4136 -0.3194  0.2812
  101OSM    H8F10241   6.552   5.478   9.670  0.9892  1.0629 -1.8819
  101OSM    H8G10242   6.692   5.491   9.781 -1.7670 -2.6992  1.4366
  101OSM    C9F10243   6.655   5.676   9.660 -0.1213  0.8118  0.3788
  101OSM    H9F10244   6.722   5.739   9.721 -2.2596  0.8541  2.8388
  101OSM   C10F10245   6.636   5.713   9.534  0.2881  0.4907  0.3493
  101OSM   H10F10246   6.685   5.804   9.495  0.4641 -0.0416 -0.7046
  101OSM   C11F10247   6.562   5.637   9.426 -0.5463  0.1427  0.6263
  101OSM   H11F10248   6.476   5.685   9.373  0.0372  0.7084  0.1796
  101OSM   H11G10249   6.519   5.539   9.457 -0.3139 -0.5514 -1.0999
  101OSM   C12F10250   6.660   5.604   9.310  0.0997  0.5365 -0.2410
  101OSM   H12F10251   6.722   5.690   9.276  0.0136  0.1417 -1.4544
  101OSM   H12G10252   6.601   5.571   9.222 -0.0748 -2.0323  0.7662
  101OSM   C13F10253   6.744   5.475   9.334  0.5866  0.3497 -0.0927
  101OSM   H13F10254   6.678   5.389   9.362 -0.6026  1.1673 -0.2926
  101OSM   H13G10255   6.803   5.499   9.425 -0.5185  1.2270  0.4257
  101OSM   C14F10256   6.842   5.447   9.219 -0.3604 -0.0571  0.6528
  101OSM   H14F10257   6.797   5.449   9.117  1.5883 -2.8163 -0.3814
  101OSM   H14G10258   6.881   5.345   9.240 -0.5026  0.2599  2.5804
  101OSM   C15F10259   6.967   5.540   9.224 -0.2389  0.1327 -0.2290
  101OSM   H15F10260   7.004   5.540   9.328  0.5252 -1.4335 -0.4728
  101OSM   H15G10261   6.931   5.640   9.190  2.2360  0.9917 -0.4966
  101OSM   C16F10262   7.079   5.507   9.120 -0.0126  0.8208  0.3529
  101OSM   H16F10263   7.036   5.492   9.018 -1.7850  4.1226  0.4450
  101OSM   H16G10264   7.114   5.410   9.160 -1.3525  0.3223  0.3918
  101OSM   C17F10265   7.183   5.620   9.100 -0.0468  0.1997  0.1941
  101OSM   H17F10266   7.214   5.654   9.201  0.9520 -2.4992  0.8658
  101OSM   H17G10267   7.123   5.693   9.042 -1.4821 -0.8254  0.3239
  101OSM   C18F10268   7.305   5.579   9.017  0.5027 -0.4691 -0.4470
  101OSM   H18F10269   7.392   5.648   9.022 -0.8539  1.2274  1.1073
  101OSM   H18G10270   7.273   5.569   8.911  0.0910 -2.8178 -0.1694
  101OSM   H18H10271   7.346   5.482   9.052 -0.4206 -0.3527  1.0265
  102OSM      N10272   5.624   4.210  11.352 -0.0757  0.1159  0.9473
  102OSM    C1510273   5.740   4.290  11.293 -0.4600 -0.0864  0.1094
  102OSM   H15A10274   5.831   4.261  11.344 -0.7600  0.6404  1.0832
  102OSM   H15B10275   5.732   4.396  11.312 -1.9322 -0.1592  0.0031
  102OSM   H15C10276   5.746   4.261  11.189  1.6829 -1.8237  0.6290
  102OSM    C1410277   5.665   4.067  11.371  0.4409  0.4566 -0.6693
  102OSM   H14A10278   5.656   4.004  11.284  0.9415 -2.4435  1.2565
  102OSM   H14B10279   5.590   4.028  11.438  1.9204 -0.8073  0.3116
  102OSM   H14C10280   5.763   4.055  11.414  0.5858 -0.0388 -1.1204
  102OSM    C1310281   5.593   4.267  11.490 -0.2365  0.0144 -0.4073
  102OSM   H13A10282   5.580   4.374  11.484 -0.8833  0.0234  0.8817
  102OSM   H13B10283   5.670   4.246  11.562 -0.8069  0.0639  0.2323
  102OSM   H13C10284   5.496   4.233  11.524 -0.5096  0.5018 -0.6683
  102OSM    C1210285   5.498   4.214  11.269 -0.3217 -0.2711  0.9101
  102OSM   H12A10286   5.445   4.306  11.286  1.0005  0.6299  0.3640
  102OSM   H12B10287   5.420   4.144  11.293 -1.0748  0.0455 -0.5431
  102OSM    C1110288   5.518   4.205  11.110  0.1224  0.7731  1.1841
  102OSM   H11A10289   5.566   4.299  11.076 -0.6748  0.0642 -2.3229
  102OSM   H11B10290   5.418   4.211  11.061 -0.1740  2.1938  1.9064
  102OSM      P10291   5.509   3.957  11.025 -0.2916 -0.0443  0.5331
  102OSM    O1310292   5.538   3.842  11.111 -0.1133  0.0804 -0.1641
  102OSM    O1410293   5.362   3.990  11.014 -0.1440 -0.2051  0.0319
  102OSM    O1110294   5.563   3.918  10.876  0.0212  0.0932 -0.1288
  102OSM    O1210295   5.601   4.087  11.069 -0.0077  0.0902 -0.2346
  102OSM    C1S10296   5.681   3.982  10.826  0.0458 -0.3739  0.3203
  102OSM    H1S10297   5.773   3.955  10.882  1.8714  2.2515 -1.1750
  102OSM    H1T10298   5.670   4.093  10.822  1.1550 -0.2147  1.2525
  102OSM     NF10299   5.821   4.026  10.625  0.4319 -0.0090 -0.4805
  102OSM    HNF10300   5.799   4.081  10.544 -0.3803 -0.2232 -0.4075
  102OSM    C2S10301   5.712   3.945  10.676 -0.0139  0.3061  0.0421
  102OSM    H2S10302   5.750   3.841  10.670  1.5773  0.9248 -1.2365
  102OSM    C3S10303   5.581   3.939  10.593  0.7924 -0.5752  0.6784
  102OSM    H3S10304   5.534   4.039  10.595  0.1853 -0.8619  0.8373
  102OSM     O310305   5.486   3.836  10.638 -0.2214  0.1238  0.2096
  102OSM    HO310306   5.516   3.817  10.727 -0.0646  1.7499  0.5344
  102OSM    C4S10307   5.616   3.907  10.444 -0.1676  0.4816 -0.1531
  102OSM    H4S10308   5.643   3.801  10.429 -1.2436  0.1910 -0.1110
  102OSM    C5S10309   5.625   3.987  10.337  0.2067  0.5402  0.8307
  102OSM    H5S10310   5.596   4.093  10.339 -1.0281  0.2625 -0.3642
  102OSM    C6S10311   5.676   3.933  10.198  0.0724  0.5115 -0.2421
  102OSM    H6S10312   5.621   3.838  10.182  0.4807  0.2680 -0.2156
  102OSM    H6T10313   5.783   3.906  10.191 -0.3954 -1.7644  0.5435
  102OSM    C7S10314   5.663   4.033  10.086  0.0209  0.4703  0.2412
  102OSM    H7S10315   5.735   4.115  10.105  1.2488  0.0691 -2.2691
  102OSM    H7T10316   5.554   4.055  10.084 -0.4357 -1.2982 -3.3786
  102OSM    C8S10317   5.712   3.972   9.955 -0.8101  0.3387  0.0234
  102OSM    H8S10318   5.654   3.895   9.900  1.7018  0.1065 -2.5571
  102OSM    H8T10319   5.803   3.918   9.987 -2.0381 -0.9063  1.5639
  102OSM    C9S10320   5.755   4.087   9.860  0.7834 -0.7878  0.3523
  102OSM    H9S10321   5.789   4.044   9.763  1.5631  2.2081 -0.8202
  102OSM    H9T10322   5.830   4.155   9.905  0.2656  0.2736 -0.3289
  102OSM   C10S10323   5.642   4.186   9.809 -0.6056 -0.2338 -0.2207
  102OSM   H10S10324   5.691   4.261   9.744 -0.5734 -0.2324 -0.1941
  102OSM   H10T10325   5.604   4.229   9.904 -0.0141  2.9932 -1.3237
  102OSM   C11S10326   5.521   4.116   9.743  0.1528  0.7956 -0.1985
  102OSM   H11S10327   5.433   4.185   9.738 -0.9821 -0.5825 -0.0678
  102OSM   H11T10328   5.482   4.026   9.796 -3.7663  1.4518 -1.5778
  102OSM   C12S10329   5.561   4.077   9.602 -0.0878 -0.0983  0.0892
  102OSM   H12S10330   5.629   3.989   9.604  1.4646  1.0692  0.4640
  102OSM   H12T10331   5.623   4.156   9.554  0.6926 -2.1016 -2.4110
  102OSM   C13S10332   5.445   4.043   9.512  0.6641  0.3667  0.7365
  102OSM   H13S10333   5.393   4.141   9.505 -1.2255 -0.6940 -1.4827
  102OSM   H13T10334   5.370   3.971   9.550  1.9053 -1.6788 -0.4830
  102OSM   C14S10335   5.487   4.008   9.371  0.7222  0.4169  0.5609
  102OSM   H14S10336   5.561   3.926   9.369  0.9558  0.5492  2.3995
  102OSM   H14T10337   5.534   4.095   9.321 -0.8649  1.4654  0.8129
  102OSM   C15S10338   5.369   3.964   9.287 -0.0651  0.6357  0.4773
  102OSM   H15S10339   5.288   4.038   9.275  1.5720  2.6257  1.1439
  102OSM   H15T10340   5.332   3.873   9.339 -0.5587  1.3076  1.3285
  102OSM   C16S10341   5.404   3.914   9.145 -0.2849 -0.7955  0.6307
  102OSM   H16S10342   5.480   3.834   9.154  0.7410  0.2659  1.6812
  102OSM   H16T10343   5.441   3.995   9.079 -3.6468  1.3758  1.1781
  102OSM   C17S10344   5.266   3.860   9.086 -1.2622  0.2590 -0.1954
  102OSM   H17S10345   5.207   3.953   9.069 -0.1127  0.7333 -1.8615
  102OSM   H17T10346   5.223   3.798   9.167  1.5627 -1.3788  0.1776
  102OSM   C18S10347   5.280   3.780   8.957 -0.2838  0.9664 -0.4812
  102OSM   H18S10348   5.313   3.837   8.868 -0.9813  0.0260 -1.3557
  102OSM   H18T10349   5.181   3.737   8.931  0.1887  0.1331 -0.9618
  102OSM   H18U10350   5.354   3.699   8.976 -0.8756  0.5016 -0.1343
  102OSM    C1F10351   5.936   4.028  10.693  0.4901  0.4160  0.6491
  102OSM     OF10352   5.974   3.941  10.769  0.2241 -0.4294 -0.3114
  102OSM    C2F10353   6.022   4.144  10.652 -0.4300  0.2286  0.0689
  102OSM    H2F10354   6.065   4.187  10.746  0.0828  0.5161 -0.2911
  102OSM    H2G10355   5.959   4.218  10.598  0.4757 -0.6185 -2.2631
  102OSM    C3F10356   6.142   4.106  10.558  0.7996 -0.5904 -0.3965
  102OSM    H3F10357   6.202   4.034  10.617  0.0155 -0.0212  1.1618
  102OSM    H3G10358   6.191   4.203  10.532 -1.1900  1.3309  2.4185
  102OSM    C4F10359   6.096   4.041  10.428 -0.4245 -0.0716  0.2635
  102OSM    H4F10360   6.032   3.950  10.433 -0.7804 -0.0092 -2.0233
  102OSM    H4G10361   6.183   4.010  10.367 -0.6447  0.5144 -0.3580
  102OSM    C5F10362   6.014   4.130  10.335 -0.7735 -0.1621 -0.5164
  102OSM    H5F10363   6.056   4.231  10.352  0.6871 -0.8905  0.4338
  102OSM    H5G10364   5.909   4.125  10.374 -0.3027 -2.3947  0.6465
  102OSM    C6F10365   6.024   4.094  10.186  0.1864 -0.3827 -0.1451
  102OSM    H6F10366   5.937   4.143  10.137 -2.3632 -4.6602 -0.4345
  102OSM    H6G10367   6.011   3.985  10.171 -2.7731 -0.0758 -0.5916
  102OSM    C7F10368   6.151   4.122  10.110  0.4725 -0.0920 -0.7717
  102OSM    H7F10369   6.235   4.058  10.142 -0.3488 -1.5962 -1.5402
  102OSM    H7G10370   6.171   4.231  10.125 -1.7216  0.1300  1.1037
  102OSM    C8F10371   6.119   4.092   9.963  0.1652  0.0837  0.6474
  102OSM    H8F10372   6.031   4.155   9.937 -0.7172 -0.3498  2.4652
  102OSM    H8G10373   6.089   3.987   9.944 -2.8414  1.1880 -1.6901
  102OSM    C9F10374   6.232   4.127   9.872  0.0784 -0.6732  0.3789
  102OSM    H9F10375   6.335   4.119   9.908  0.2123 -1.9651 -0.2201
  102OSM   C10F10376   6.213   4.160   9.739  0.2491 -0.7462  0.3188
  102OSM   H10F10377   6.303   4.198   9.688 -0.1628 -0.4470 -0.1967
  102OSM   C11F10378   6.081   4.165   9.658  0.5834 -0.7375 -0.7143
  102OSM   H11F10379   6.000   4.230   9.698  0.9227  0.5319 -1.9608
  102OSM   H11G10380   6.054   4.059   9.639  0.5740 -1.3129  2.1511
  102OSM   C12F10381   6.103   4.226   9.511  0.2009 -0.2566 -0.6437
  102OSM   H12F10382   6.196   4.183   9.469  1.2119  1.5350 -0.3262
  102OSM   H12G10383   6.123   4.334   9.525  1.2500 -0.6001  0.7008
  102OSM   C13F10384   5.984   4.209   9.419 -0.0724  0.1838  0.0275
  102OSM   H13F10385   5.897   4.242   9.479 -0.0469  0.1830  0.0651
  102OSM   H13G10386   5.967   4.100   9.405 -2.8067  0.2949  1.7255
  102OSM   C14F10387   5.987   4.263   9.283 -0.3880 -0.6382  0.8835
  102OSM   H14F10388   5.984   4.374   9.281  1.0422 -0.5117  2.8333
  102OSM   H14G10389   5.899   4.234   9.221 -0.5453  1.1893  0.1795
  102OSM   C15F10390   6.115   4.218   9.212 -0.5369  0.8469 -0.3291
  102OSM   H15F10391   6.126   4.108   9.207 -1.1237  0.7135  0.8814
  102OSM   H15G10392   6.205   4.260   9.262  1.7013 -0.5508 -2.9187
  102OSM   C16F10393   6.119   4.277   9.070  0.2159  0.0214  0.2863
  102OSM   H16F10394   6.224   4.309   9.053  0.2496 -0.7008 -0.9614
  102OSM   H16G10395   6.058   4.370   9.064  0.2978  0.0024 -0.9955
  102OSM   C17F10396   6.090   4.177   8.948  0.0870  0.6298 -0.8290
  102OSM   H17F10397   6.155   4.088   8.961 -1.1783  0.0283  2.3847
  102OSM   H17G10398   6.124   4.225   8.854 -1.4628  1.3467 -1.0542
  102OSM   C18F10399   5.955   4.127   8.935 -0.1157  0.0607  0.0340
  102OSM   H18F10400   5.899   4.099   9.027 -1.5221  1.2983 -0.4038
  102OSM   H18G10401   5.952   4.036   8.871 -1.8613 -1.3435  1.9830
  102OSM   H18H10402   5.903   4.217   8.895  0.1427  1.2613  2.2270
  103OSM      N10403   5.985   0.251  11.328  0.9343  0.4583  0.1558
  103OSM    C1510404   5.946   0.339  11.440 -0.6379  0.4026 -0.0564
  103OSM   H15A10405   6.017   0.335  11.522  1.1429 -0.5294 -1.5727
  103OSM   H15B10406   5.858   0.294  11.484  0.8148 -1.5089  1.0998
  103OSM   H15C10407   5.945   0.441  11.407  2.4915  0.5515 -0.0063
  103OSM    C1410408   6.115   0.295  11.274  0.2218 -1.0762 -0.2138
  103OSM   H14A10409   6.102   0.395  11.234  1.1404 -0.9667 -0.2577
  103OSM   H14B10410   6.132   0.236  11.186 -0.1989 -0.5983 -0.6268
  103OSM   H14C10411   6.204   0.295  11.335  0.8197  1.6082 -0.9206
  103OSM    C1310412   5.999   0.115  11.396  0.2034  0.1396  0.3004
  103OSM   H13A10413   6.047   0.039  11.336  2.8941  0.6724  1.6200
  103OSM   H13B10414   5.906   0.077  11.437 -0.3040  2.2073  1.1699
  103OSM   H13C10415   6.074   0.131  11.471  1.3714 -0.8245 -0.6104
  103OSM    C1210416   5.885   0.256  11.214 -0.5434  1.1535  0.5187
  103OSM   H12A10417   5.920   0.192  11.134 -1.9129  2.2335 -1.0178
  103OSM   H12B10418   5.894   0.357  11.176  0.2025  0.9586  0.1471
  103OSM    C1110419   5.737   0.211  11.245  0.4510  0.3004  0.0848
  103OSM   H11A10420   5.681   0.238  11.153 -0.7551  0.6792  0.8954
  103OSM   H11B10421   5.706   0.272  11.333  0.7898 -0.2442  0.5878
  103OSM      P10422   5.762  -0.042  11.153  0.0611 -0.6400  0.0885
  103OSM    O1310423   5.911  -0.040  11.127  0.2514  0.6905 -0.1696
  103OSM    O1410424   5.695  -0.172  11.182 -0.5975  0.5061 -0.1284
  103OSM    O1110425   5.699   0.023  11.015  0.0439  1.0467  0.0679
  103OSM    O1210426   5.722   0.066  11.271  0.8930  0.4329  0.7290
  103OSM    C1S10427   5.653  -0.076  10.914  0.0993 -0.4084 -1.4211
  103OSM    H1S10428   5.543  -0.073  10.921  0.1051 -0.6905 -1.2108
  103OSM    H1T10429   5.699  -0.176  10.932 -0.4692 -0.3666  0.4103
  103OSM     NF10430   5.664  -0.146  10.673 -0.5990  0.1927 -0.6759
  103OSM    HNF10431   5.740  -0.203  10.642 -1.0841  0.3803 -2.3054
  103OSM    C2S10432   5.695  -0.040  10.767 -0.1025 -0.4891 -0.3028
  103OSM    H2S10433   5.629   0.046  10.742  0.3573  0.1033  0.4762
  103OSM    C3S10434   5.836   0.016  10.756  0.0344  0.5683 -0.0513
  103OSM    H3S10435   5.903  -0.065  10.792 -1.4697 -2.9692 -4.2387
  103OSM     O310436   5.860   0.133  10.831 -0.1421  0.4754  0.3376
  103OSM    HO310437   5.789   0.135  10.895 -0.6423  0.1947 -0.2102
  103OSM    C4S10438   5.879   0.042  10.608 -0.7050  0.2516 -0.5026
  103OSM    H4S10439   5.815   0.120  10.563 -0.3459  1.1198  0.4581
  103OSM    C5S10440   5.988  -0.012  10.545 -0.0361  0.1126  0.3027
  103OSM    H5S10441   6.051  -0.081  10.604 -1.0573 -0.9173  0.2307
  103OSM    C6S10442   6.040   0.018  10.400  0.1431  0.5182 -0.7554
  103OSM    H6S10443   6.137  -0.032  10.378  0.2367  0.3720 -0.0417
  103OSM    H6T10444   6.058   0.128  10.393 -0.8853  0.7064 -0.6285
  103OSM    C7S10445   5.940  -0.022  10.295  0.6458 -0.0069  0.8193
  103OSM    H7S10446   5.845   0.031  10.316 -0.8376 -2.9996  2.2207
  103OSM    H7T10447   5.913  -0.130  10.305 -3.1824  0.7380 -0.0901
  103OSM    C8S10448   5.999   0.008  10.152  0.4716  0.7638 -0.2450
  103OSM    H8S10449   6.101  -0.035  10.146  0.2330  0.0588  0.5462
  103OSM    H8T10450   5.996   0.118  10.141 -1.5597  0.9071  1.1594
  103OSM    C9S10451   5.917  -0.060  10.042  0.1561 -0.4012 -0.0173
  103OSM    H9S10452   5.823  -0.001  10.034 -0.1207 -1.0886 -2.4424
  103OSM    H9T10453   5.894  -0.166  10.065  3.7295 -1.0728  1.2162
  103OSM   C10S10454   5.987  -0.044   9.906 -0.0312 -0.8220 -0.0315
  103OSM   H10S10455   6.090  -0.086   9.915  0.1982 -0.2189  0.2143
  103OSM   H10T10456   6.004   0.064   9.891 -0.0228 -0.9307 -0.8127
  103OSM   C11S10457   5.891  -0.092   9.789  0.5407 -0.5551  0.3380
  103OSM   H11S10458   5.791  -0.051   9.814 -0.1665 -1.7667 -0.3710
  103OSM   H11T10459   5.883  -0.203   9.792  2.9735 -0.7815  1.2572
  103OSM   C12S10460   5.945  -0.051   9.651 -0.2589 -0.2379  1.4427
  103OSM   H12S10461   6.033  -0.114   9.629 -0.3216 -0.6403  2.3256
  103OSM   H12T10462   5.973   0.056   9.650 -1.6863  0.2048 -0.8643
  103OSM   C13S10463   5.853  -0.082   9.537 -0.0058 -0.1149 -0.7576
  103OSM   H13S10464   5.757  -0.030   9.558  0.8057  0.9478  0.4526
  103OSM   H13T10465   5.837  -0.190   9.519 -0.6909 -0.0137 -0.7988
  103OSM   C14S10466   5.889  -0.020   9.399  0.4610 -0.1706  0.0372
  103OSM   H14S10467   5.988  -0.055   9.363  0.1101 -2.3436  0.9981
  103OSM   H14T10468   5.904   0.087   9.424  4.0063 -0.9119  1.6949
  103OSM   C15S10469   5.784  -0.057   9.289 -1.0631  0.3091  0.5759
  103OSM   H15S10470   5.688  -0.025   9.334 -1.3988  0.0617  0.0338
  103OSM   H15T10471   5.786  -0.168   9.280 -0.4659  0.1174  2.5353
  103OSM   C16S10472   5.802   0.019   9.157 -0.1090 -0.1488  0.2056
  103OSM   H16S10473   5.835   0.125   9.169 -0.7805  0.3763 -2.1033
  103OSM   H16T10474   5.710   0.014   9.095 -0.5802 -1.2508  0.9623
  103OSM   C17S10475   5.915  -0.049   9.078 -0.6845 -0.0253 -0.0269
  103OSM   H17S10476   5.894  -0.158   9.069 -0.6817  0.0342 -0.8784
  103OSM   H17T10477   6.002  -0.030   9.144 -0.5636  0.9811 -0.4640
  103OSM   C18S10478   5.932   0.006   8.935 -0.1238  0.3487  0.5588
  103OSM   H18S10479   5.944   0.116   8.926  4.9995 -0.0983 -1.1802
  103OSM   H18T10480   5.845  -0.024   8.873  0.8417 -1.2381 -0.1085
  103OSM   H18U10481   6.023  -0.034   8.885 -0.4740 -0.5778  0.6322
  103OSM    C1F10482   5.537  -0.193  10.655  0.4067 -0.3489 -0.6697
  103OSM     OF10483   5.441  -0.125  10.698  0.3327  0.5015  0.7072
  103OSM    C2F10484   5.530  -0.330  10.584 -0.5846 -0.2551  0.0969
  103OSM    H2F10485   5.493  -0.410  10.652 -0.9102 -0.1722  0.0179
  103OSM    H2G10486   5.638  -0.355  10.575 -0.7016 -1.0083  0.6801
  103OSM    C3F10487   5.454  -0.319  10.452 -0.8196  0.2370  0.2964
  103OSM    H3F10488   5.343  -0.320  10.459 -0.9569  1.3736 -1.2050
  103OSM    H3G10489   5.473  -0.414  10.398 -0.5681 -0.1778  1.0996
  103OSM    C4F10490   5.489  -0.192  10.365 -0.4788  0.4500  0.2852
  103OSM    H4F10491   5.599  -0.179  10.361 -0.7464  2.9783 -0.3640
  103OSM    H4G10492   5.434  -0.107  10.410  0.4437  0.4114  1.5219
  103OSM    C5F10493   5.437  -0.203  10.222  0.1249 -0.0310  0.5432
  103OSM    H5F10494   5.326  -0.206  10.222  0.0046  2.2534 -0.7859
  103OSM    H5G10495   5.480  -0.293  10.172  0.6687  0.7031 -0.3463
  103OSM    C6F10496   5.478  -0.083  10.134 -0.1993 -0.9642  0.6094
  103OSM    H6F10497   5.575  -0.044  10.171  1.1353 -1.8937 -1.6706
  103OSM    H6G10498   5.401  -0.003  10.137  1.4469  0.7483 -0.7215
  103OSM    C7F10499   5.483  -0.119   9.983 -0.1041  1.0022  0.4666
  103OSM    H7F10500   5.395  -0.181   9.954 -1.6971  3.8682 -1.3547
  103OSM    H7G10501   5.567  -0.191   9.981 -1.3582 -0.5402 -2.0992
  103OSM    C8F10502   5.511  -0.015   9.876 -0.3002  0.7084  0.2635
  103OSM    H8F10503   5.609   0.034   9.895 -0.4873  0.9831  0.5334
  103OSM    H8G10504   5.434   0.064   9.895 -0.9318  0.0874  0.3083
  103OSM    C9F10505   5.507  -0.065   9.733  0.1832 -0.3653 -0.3009
  103OSM    H9F10506   5.591  -0.133   9.715 -1.0136 -1.6793 -1.0937
  103OSM   C10F10507   5.421  -0.029   9.641  0.3429  0.2362  0.0616
  103OSM   H10F10508   5.425  -0.083   9.546  1.4214 -0.7558  0.6439
  103OSM   C11F10509   5.303   0.061   9.655  0.6667 -0.3018 -0.0546
  103OSM   H11F10510   5.282   0.076   9.763  1.2502  1.3828 -0.1391
  103OSM   H11G10511   5.209   0.021   9.614  1.5660 -1.0934 -1.4302
  103OSM   C12F10512   5.325   0.199   9.580 -0.3294  0.6000  0.3947
  103OSM   H12F10513   5.414   0.253   9.617  0.5986  0.2465 -1.2470
  103OSM   H12G10514   5.238   0.268   9.592 -1.3514 -0.5629 -0.1424
  103OSM   C13F10515   5.358   0.187   9.431 -0.0710  0.1127  0.3546
  103OSM   H13F10516   5.445   0.122   9.407 -0.1577 -0.1340  0.7022
  103OSM   H13G10517   5.265   0.133   9.400 -0.3707  0.1700  1.1292
  103OSM   C14F10518   5.343   0.311   9.341 -0.2085 -0.5283 -1.3560
  103OSM   H14F10519   5.409   0.391   9.382  1.4208 -3.4554  2.3331
  103OSM   H14G10520   5.238   0.345   9.354 -0.1761 -1.0040  0.3987
  103OSM   C15F10521   5.373   0.287   9.191 -0.6349 -0.0060 -0.8639
  103OSM   H15F10522   5.480   0.255   9.187  1.0179  4.7672 -1.6900
  103OSM   H15G10523   5.355   0.388   9.150 -0.4215 -0.0517 -1.0743
  103OSM   C16F10524   5.284   0.194   9.119  0.3826  0.2511  0.4799
  103OSM   H16F10525   5.174   0.205   9.131  0.3951  0.5491  0.3407
  103OSM   H16G10526   5.297   0.092   9.161  2.6467  0.5373  0.6267
  103OSM   C17F10527   5.309   0.205   8.963  0.2148  0.1795 -0.0293
  103OSM   H17F10528   5.261   0.305   8.953 -1.6955 -0.6678  0.2701
  103OSM   H17G10529   5.243   0.129   8.917  0.1536  0.5667 -0.5951
  103OSM   C18F10530   5.453   0.204   8.920 -0.3434 -0.1705 -0.1243
  103OSM   H18F10531   5.511   0.280   8.976 -2.6275  0.7294  1.1442
  103OSM   H18G10532   5.478   0.211   8.812  0.4601  0.5406  0.0997
  103OSM   H18H10533   5.489   0.102   8.946 -0.2886  0.1173  0.9724
  104OSM      N10534   3.594   5.942  10.938  0.2685 -0.1696 -0.1557
  104OSM    C1510535   3.525   5.850  11.037  0.8076 -0.3158  0.6331
  104OSM   H15A10536   3.442   5.803  10.986  0.7035  1.3828 -0.8513
  104OSM   H15B10537   3.484   5.911  11.117 -0.4702 -1.8327  1.1826
  104OSM   H15C10538   3.588   5.771  11.076  0.7546 -0.1307  1.1084
  104OSM    C1410539   3.705   6.002  11.010 -0.9886  0.5616  0.3114
  104OSM   H14A10540   3.674   6.044  11.105 -1.0531  2.1501 -0.3764
  104OSM   H14B10541   3.750   6.084  10.955 -1.0776  1.3343  1.3591
  104OSM   H14C10542   3.772   5.920  11.031 -0.2062  0.9544 -0.5618
  104OSM    C1310543   3.659   5.859  10.831 -0.2816  1.0610  0.1862
  104OSM   H13A10544   3.587   5.780  10.814  1.4000 -0.4916 -0.0727
  104OSM   H13B10545   3.747   5.819  10.880 -2.1245  1.8758  4.6569
  104OSM   H13C10546   3.669   5.910  10.737  2.0626  0.0220 -0.1992
  104OSM    C1210547   3.499   6.033  10.872 -0.2657 -0.4126 -0.3023
  104OSM   H12A10548   3.425   5.974  10.820 -1.3770 -0.7125  1.5129
  104OSM   H12B10549   3.549   6.067  10.783  1.0138 -0.4174  0.3970
  104OSM    C1110550   3.433   6.145  10.955 -1.2567  0.0726 -0.4967
  104OSM   H11A10551   3.368   6.206  10.888 -0.5935 -1.4559 -2.6611
  104OSM   H11B10552   3.513   6.214  10.990 -0.3897 -0.8676 -0.5792
  104OSM      P10553   3.216   6.038  11.061 -0.1616 -0.4425 -0.5139
  104OSM    O1310554   3.203   5.910  11.126 -0.0862 -0.2797 -0.3090
  104OSM    O1410555   3.133   6.152  11.120  0.5435  0.4254  0.4495
  104OSM    O1110556   3.175   6.024  10.909 -0.1657  0.7162 -0.0501
  104OSM    O1210557   3.361   6.100  11.063 -0.1395 -0.0779  0.7282
  104OSM    C1S10558   3.101   6.127  10.840  0.3819  0.3228 -0.3669
  104OSM    H1S10559   3.155   6.220  10.863 -1.2038  0.7256  2.1646
  104OSM    H1T10560   2.994   6.131  10.870 -0.3617  0.5082 -2.8021
  104OSM     NF10561   3.068   6.210  10.607  0.4312  0.1692 -0.2486
  104OSM    HNF10562   2.973   6.233  10.589 -0.0017 -0.2435  1.3440
  104OSM    C2S10563   3.093   6.087  10.687 -0.2670 -0.0577 -0.2095
  104OSM    H2S10564   3.194   6.050  10.658  0.7261  1.1708  1.4787
  104OSM    C3S10565   2.999   5.965  10.672 -0.2712 -0.7895  0.0256
  104OSM    H3S10566   2.898   5.990  10.709 -0.9852 -3.3722  0.0418
  104OSM     O310567   3.048   5.847  10.744  0.5274 -0.5262 -0.4074
  104OSM    HO310568   3.099   5.886  10.815  0.2613 -1.9936  0.6460
  104OSM    C4S10569   2.982   5.933  10.522 -0.4099 -0.7227 -0.1585
  104OSM    H4S10570   2.917   6.001  10.466 -0.3827 -1.2277 -0.8040
  104OSM    C5S10571   3.040   5.834  10.454  0.0379  0.1365  0.3456
  104OSM    H5S10572   3.114   5.775  10.510 -2.0587 -1.1829  1.8669
  104OSM    C6S10573   3.031   5.810  10.303  0.1831 -0.8275 -0.1964
  104OSM    H6S10574   2.980   5.712  10.285 -1.7416 -0.4289  2.4795
  104OSM    H6T10575   3.134   5.813  10.261  0.1474  1.4363 -0.2299
  104OSM    C7S10576   2.957   5.914  10.221 -0.3377 -0.5384 -0.2501
  104OSM    H7S10577   2.997   6.017  10.224 -0.9494 -0.3200  0.6641
  104OSM    H7T10578   2.857   5.930  10.266  0.0542  0.6200  0.2400
  104OSM    C8S10579   2.947   5.868  10.072 -0.2614 -0.6107 -0.8014
  104OSM    H8S10580   2.854   5.807  10.068  0.1286 -1.2070 -0.8414
  104OSM    H8T10581   3.042   5.813  10.056  0.9120  1.5692 -1.7094
  104OSM    C9S10582   2.935   5.983   9.973 -0.2796  0.0548  0.2317
  104OSM    H9S10583   3.030   6.040   9.969 -1.2760  1.7405 -0.8540
  104OSM    H9T10584   2.848   6.045  10.005 -1.6984 -1.5145 -0.4112
  104OSM   C10S10585   2.902   5.940   9.831  0.4788  0.3003  0.1491
  104OSM   H10S10586   2.808   5.883   9.839  1.4598 -1.2475  1.2589
  104OSM   H10T10587   2.981   5.874   9.788 -0.2785  1.3217 -3.0981
  104OSM   C11S10588   2.897   6.065   9.735  0.4032  0.4081  0.7085
  104OSM   H11S10589   2.985   6.126   9.764  1.4202  0.3738 -2.0639
  104OSM   H11T10590   2.805   6.127   9.736  0.8963  1.1778 -0.1091
  104OSM   C12S10591   2.906   6.016   9.588  0.0372 -0.3239 -0.0596
  104OSM   H12S10592   2.829   5.938   9.565 -0.4076 -0.0039  0.3138
  104OSM   H12T10593   3.002   5.965   9.568 -0.1608 -0.0072 -2.0352
  104OSM   C13S10594   2.901   6.120   9.476  0.1498  0.5655  0.0224
  104OSM   H13S10595   2.988   6.189   9.480  0.7151 -0.1910  2.1852
  104OSM   H13T10596   2.809   6.182   9.481 -1.3540 -1.3457 -1.7826
  104OSM   C14S10597   2.908   6.054   9.339 -0.2937  1.0817  0.1265
  104OSM   H14S10598   2.828   5.978   9.324  0.1112  0.2386  1.9330
  104OSM   H14T10599   2.999   5.994   9.319 -0.2676  1.4779 -0.9860
  104OSM   C15S10600   2.905   6.154   9.216 -0.3497  0.6649 -0.2308
  104OSM   H15S10601   2.993   6.221   9.206  0.2839 -0.2817 -1.2595
  104OSM   H15T10602   2.813   6.216   9.219 -0.3485  0.6471  0.2472
  104OSM   C16S10603   2.911   6.068   9.089  0.3921  0.1693  0.0692
  104OSM   H16S10604   2.813   6.021   9.067 -0.3444  1.9507 -0.6152
  104OSM   H16T10605   2.992   5.995   9.111 -0.4131 -0.4028  1.2711
  104OSM   C17S10606   2.959   6.130   8.967  0.6685 -0.0030  0.2597
  104OSM   H17S10607   3.039   6.203   8.991 -0.0101  1.3815 -1.3910
  104OSM   H17T10608   2.877   6.186   8.916  1.8184  0.7807 -0.8009
  104OSM   C18S10609   3.000   6.035   8.851 -0.1154 -0.0039 -0.6056
  104OSM   H18S10610   3.088   5.978   8.888  0.8897  1.6391 -0.3894
  104OSM   H18T10611   3.030   6.101   8.767 -0.9344  1.0378 -0.1032
  104OSM   H18U10612   2.918   5.964   8.825  1.1009 -2.1345  0.9801
  104OSM    C1F10613   3.163   6.298  10.582  0.3656 -0.0760 -1.1940
  104OSM     OF10614   3.275   6.282  10.630 -0.1804  0.0286 -0.7227
  104OSM    C2F10615   3.118   6.422  10.507 -0.2059 -0.2403  0.4840
  104OSM    H2F10616   3.182   6.508  10.535  0.5689 -0.8467  0.6383
  104OSM    H2G10617   3.009   6.441  10.508 -0.2316 -0.3802  0.4211
  104OSM    C3F10618   3.152   6.388  10.363  0.6617 -0.0850  0.4991
  104OSM    H3F10619   3.104   6.294  10.329  0.8398 -0.5880  1.6044
  104OSM    H3G10620   3.262   6.373  10.357  0.8981  1.8521 -0.8497
  104OSM    C4F10621   3.109   6.498  10.267 -0.1852  0.6696 -0.3755
  104OSM    H4F10622   3.155   6.589  10.312 -0.8427  0.7188  0.2147
  104OSM    H4G10623   2.998   6.508  10.271 -0.2641 -0.0621  3.7065
  104OSM    C5F10624   3.160   6.480  10.122 -0.2881  0.0146  0.1284
  104OSM    H5F10625   3.159   6.377  10.081 -2.5270 -0.6531  1.6510
  104OSM    H5G10626   3.258   6.531  10.116  1.2580 -2.5968  1.4749
  104OSM    C6F10627   3.069   6.554  10.016  0.2159  0.0109  0.3911
  104OSM    H6F10628   3.050   6.658  10.049 -0.4285  0.3443 -0.9621
  104OSM    H6G10629   2.974   6.498  10.029 -0.0068  0.0835 -0.8239
  104OSM    C7F10630   3.121   6.552   9.870  0.2364 -0.1081 -0.1628
  104OSM    H7F10631   3.228   6.581   9.879  0.8607 -2.0229 -0.7478
  104OSM    H7G10632   3.060   6.622   9.809 -0.0697 -1.4918 -1.4962
  104OSM    C8F10633   3.115   6.413   9.804  0.0338  0.0629 -0.3422
  104OSM    H8F10634   3.011   6.374   9.808  0.0087  0.1878  2.1722
  104OSM    H8G10635   3.176   6.342   9.865 -0.6595  1.3054  1.8933
  104OSM    C9F10636   3.181   6.416   9.670 -0.5080 -0.2314 -0.4253
  104OSM    H9F10637   3.285   6.384   9.658 -0.8783 -1.6264 -0.0325
  104OSM   C10F10638   3.122   6.459   9.557  0.3846 -0.4782  0.4256
  104OSM   H10F10639   3.174   6.457   9.461 -0.5747  1.7345 -0.2007
  104OSM   C11F10640   2.983   6.516   9.534 -0.7519  0.0304 -0.8431
  104OSM   H11F10641   2.984   6.627   9.537  0.3795  0.0119 -0.2288
  104OSM   H11G10642   2.919   6.476   9.616  0.4058  0.7689  0.4527
  104OSM   C12F10643   2.899   6.481   9.409  0.1173 -0.4243  0.5228
  104OSM   H12F10644   2.812   6.546   9.434 -0.6278 -1.3629  0.4385
  104OSM   H12G10645   2.869   6.375   9.398  0.6167 -0.5831  0.6735
  104OSM   C13F10646   2.976   6.531   9.284  0.3524  0.0349  0.7490
  104OSM   H13F10647   3.064   6.465   9.268 -1.2474 -2.4118  1.3923
  104OSM   H13G10648   3.000   6.639   9.284 -1.9244  0.5980 -0.1411
  104OSM   C14F10649   2.895   6.503   9.155 -0.7351 -0.1715  1.5458
  104OSM   H14F10650   2.817   6.580   9.137  1.8929  2.2294 -0.4376
  104OSM   H14G10651   2.839   6.407   9.159 -1.0290 -0.0431  0.7028
  104OSM   C15F10652   2.990   6.506   9.034  0.5944 -0.2279  0.0058
  104OSM   H15F10653   2.928   6.481   8.945  2.2593 -1.9856 -0.7526
  104OSM   H15G10654   3.062   6.425   9.060  0.6939  0.0172  0.4971
  104OSM   C16F10655   3.076   6.627   9.007  0.0614 -0.9234  0.0927
  104OSM   H16F10656   3.141   6.647   9.095  2.1555  0.4727 -1.6300
  104OSM   H16G10657   3.020   6.718   8.977  1.8426 -0.1704 -1.1361
  104OSM   C17F10658   3.169   6.594   8.885 -0.0982  0.0352 -0.4267
  104OSM   H17F10659   3.114   6.593   8.789  0.7654  0.9254 -0.9419
  104OSM   H17G10660   3.214   6.494   8.901 -1.7874 -0.7935 -0.6842
  104OSM   C18F10661   3.279   6.690   8.891 -0.3279  0.7598  0.3620
  104OSM   H18F10662   3.321   6.677   8.993 -2.7659 -2.1326  1.1379
  104OSM   H18G10663   3.242   6.793   8.870 -2.1309 -0.1887 -1.5224
  104OSM   H18H10664   3.366   6.664   8.827 -0.7095 -1.1248  0.5597
  105OSM      N10665   1.551   1.701  10.613  0.9058  0.6564  0.1614
  105OSM    C1510666   1.617   1.568  10.584  0.8363 -0.2176  0.1473
  105OSM   H15A10667   1.690   1.575  10.504  0.6091 -0.5749 -0.0982
  105OSM   H15B10668   1.538   1.506  10.543  1.6661 -0.0044 -1.9188
  105OSM   H15C10669   1.651   1.513  10.671  3.7648 -0.6775 -1.1645
  105OSM    C1410670   1.650   1.786  10.678  0.1040  0.1110  0.0126
  105OSM   H14A10671   1.671   1.747  10.776 -1.2139 -0.0080  0.2575
  105OSM   H14B10672   1.631   1.892  10.689 -0.9522  0.0708 -1.1767
  105OSM   H14C10673   1.730   1.777  10.606 -0.3992 -0.5986 -0.4582
  105OSM    C1310674   1.507   1.767  10.483 -0.0140  0.6835  0.2354
  105OSM   H13A10675   1.501   1.873  10.506  0.7630  0.2831  2.5509
  105OSM   H13B10676   1.409   1.739  10.449  0.4049 -2.3747  1.3017
  105OSM   H13C10677   1.573   1.737  10.402  0.5437  0.0352  0.9145
  105OSM    C1210678   1.422   1.683  10.693  0.2282 -0.1126  0.0079
  105OSM   H12A10679   1.375   1.776  10.722  0.4266 -0.5713  2.0090
  105OSM   H12B10680   1.444   1.633  10.787  0.5018  0.7447  0.4070
  105OSM    C1110681   1.301   1.592  10.639 -0.4474 -0.3062  0.2373
  105OSM   H11A10682   1.267   1.627  10.539 -1.3794 -0.8693  0.3489
  105OSM   H11B10683   1.213   1.611  10.703  0.2684 -0.6958  1.3684
  105OSM      P10684   1.285   1.339  10.724  0.3740  0.1754  0.0024
  105OSM    O1310685   1.374   1.222  10.693 -0.2904  0.3736 -0.5486
  105OSM    O1410686   1.257   1.380  10.864 -0.7841 -0.1810  0.0595
  105OSM    O1110687   1.143   1.313  10.660 -0.3671 -0.1668 -0.2826
  105OSM    O1210688   1.334   1.455  10.634 -0.2090 -0.1851 -0.0042
  105OSM    C1S10689   1.108   1.321  10.529  0.3618 -0.8128  0.1757
  105OSM    H1S10690   1.195   1.351  10.466  0.0079  0.0690  0.0818
  105OSM    H1T10691   1.026   1.396  10.516 -1.3117 -2.3808  1.2391
  105OSM     NF10692   0.997   1.198  10.329  0.1211  0.6978  0.2490
  105OSM    HNF10693   0.906   1.157  10.328  0.8117 -0.8704 -1.1095
  105OSM    C2S10694   1.044   1.189  10.471 -0.3422 -0.2669  0.2632
  105OSM    H2S10695   1.129   1.118  10.466 -0.7476 -0.6642 -1.6529
  105OSM    C3S10696   0.938   1.132  10.559 -0.3320  0.1425  0.2274
  105OSM    H3S10697   0.846   1.194  10.548 -0.6615 -0.7011 -2.6344
  105OSM     O310698   0.974   1.121  10.698 -0.2686  0.1602  0.2892
  105OSM    HO310699   1.064   1.156  10.697 -0.7424  1.4690 -0.8958
  105OSM    C4S10700   0.901   0.999  10.503 -0.2290  0.5689  0.1287
  105OSM    H4S10701   0.982   0.925  10.489 -0.0960  0.3391  1.9178
  105OSM    C5S10702   0.780   0.963  10.447 -0.2713 -0.1966 -0.0487
  105OSM    H5S10703   0.697   1.036  10.444 -1.6603 -1.3724  3.7097
  105OSM    C6S10704   0.759   0.830  10.386  0.1280  0.3040  0.3518
  105OSM    H6S10705   0.669   0.785  10.434 -0.1065  1.1060  0.6773
  105OSM    H6T10706   0.854   0.774  10.397 -0.3164 -0.6038 -0.2743
  105OSM    C7S10707   0.747   0.844  10.223 -0.0422 -0.1139 -0.7933
  105OSM    H7S10708   0.650   0.894  10.207 -1.5615 -2.9964 -1.2548
  105OSM    H7T10709   0.733   0.743  10.180 -0.7354  0.2783 -1.5177
  105OSM    C8S10710   0.869   0.906  10.151  0.4553  0.8865  0.2285
  105OSM    H8S10711   0.946   0.825  10.152 -0.0282  0.3864  2.9779
  105OSM    H8T10712   0.904   0.999  10.199  0.1296  0.1389  1.9950
  105OSM    C9S10713   0.836   0.922   9.999  0.3591  0.4234 -0.4681
  105OSM    H9S10714   0.922   0.965   9.945  0.9610 -0.8598 -0.5795
  105OSM    H9T10715   0.751   0.992   9.985 -0.0065  0.2626  0.7939
  105OSM   C10S10716   0.794   0.791   9.927 -0.2947  0.0371 -0.7277
  105OSM   H10S10717   0.699   0.753   9.970 -1.1326  1.9927 -0.7182
  105OSM   H10T10718   0.869   0.710   9.936 -1.4991 -1.2190 -1.6944
  105OSM   C11S10719   0.775   0.814   9.774 -0.6474 -0.6184  0.4068
  105OSM   H11S10720   0.692   0.884   9.753  1.2605  2.4191  2.3060
  105OSM   H11T10721   0.746   0.712   9.740 -0.5930 -1.0376  1.5667
  105OSM   C12S10722   0.899   0.859   9.696 -0.0069  0.5907 -0.4083
  105OSM   H12S10723   0.974   0.781   9.723 -2.5103 -1.8784 -0.1007
  105OSM   H12T10724   0.937   0.957   9.732  1.7934  0.0485 -0.7718
  105OSM   C13S10725   0.872   0.875   9.540  0.2236 -0.6632 -0.4140
  105OSM   H13S10726   0.810   0.967   9.538 -0.7343 -1.3088 -1.8253
  105OSM   H13T10727   0.815   0.781   9.524 -1.7761  0.5554 -0.8061
  105OSM   C14S10728   0.991   0.880   9.453 -0.1295 -0.2563  0.2319
  105OSM   H14S10729   1.053   0.797   9.491 -0.3374 -1.2869 -1.5744
  105OSM   H14T10730   1.044   0.977   9.463 -1.1774  0.4698 -0.9489
  105OSM   C15S10731   0.950   0.844   9.306 -0.4634 -0.1757  0.4055
  105OSM   H15S10732   0.893   0.749   9.298  0.3289 -0.6494  0.3065
  105OSM   H15T10733   1.039   0.824   9.242 -1.0453  2.1301 -1.2596
  105OSM   C16S10734   0.877   0.950   9.218  0.7116 -0.8265 -0.0458
  105OSM   H16S10735   0.925   1.049   9.235  1.3662 -1.3365  1.2551
  105OSM   H16T10736   0.771   0.959   9.247  1.0522  1.1970  0.7537
  105OSM   C17S10737   0.883   0.918   9.070 -0.0777  0.7843  0.5237
  105OSM   H17S10738   0.829   0.821   9.073  0.9129  0.1401 -1.1958
  105OSM   H17T10739   0.987   0.893   9.041 -0.5077  0.6582 -1.0305
  105OSM   C18S10740   0.819   1.007   8.968 -0.0872 -0.2058  0.0737
  105OSM   H18S10741   0.881   1.098   8.954  0.7644 -0.6062  1.1089
  105OSM   H18T10742   0.723   1.045   9.011  0.9220  0.3400  1.9491
  105OSM   H18U10743   0.799   0.960   8.869 -3.0304 -0.4043  0.6672
  105OSM    C1F10744   1.054   1.267  10.224  0.1012 -0.0856 -0.7363
  105OSM     OF10745   1.175   1.295  10.233  0.3269 -0.4289 -0.0948
  105OSM    C2F10746   0.963   1.313  10.120  0.3036  0.0363 -0.6368
  105OSM    H2F10747   0.932   1.419  10.134 -0.7162 -0.2448 -0.6529
  105OSM    H2G10748   0.873   1.248  10.115  0.1311  0.0678  1.2379
  105OSM    C3F10749   1.040   1.305   9.985 -0.3451  0.1604 -0.5095
  105OSM    H3F10750   1.074   1.200   9.973  1.6667  0.6576  0.4385
  105OSM    H3G10751   1.133   1.365   9.996  0.9956 -1.5347 -2.0310
  105OSM    C4F10752   0.964   1.358   9.859 -0.9657 -0.0532  0.0206
  105OSM    H4F10753   0.931   1.462   9.879 -1.0085  0.3739 -2.0616
  105OSM    H4G10754   0.877   1.290   9.843  0.5432 -1.8287 -0.9616
  105OSM    C5F10755   1.047   1.358   9.734 -0.2446  0.7051 -0.1646
  105OSM    H5F10756   1.110   1.266   9.726  0.1331  0.8633  0.9237
  105OSM    H5G10757   1.125   1.437   9.731  0.1620  0.2973 -0.5201
  105OSM    C6F10758   0.969   1.354   9.596  0.0095  0.0404  0.1405
  105OSM    H6F10759   0.930   1.454   9.566 -0.0663 -0.2227 -0.6879
  105OSM    H6G10760   0.886   1.281   9.605 -0.9139  1.0586 -0.0103
  105OSM    C7F10761   1.070   1.316   9.486 -0.7071 -0.2814  0.1141
  105OSM    H7F10762   1.108   1.212   9.499  0.5160 -0.4606 -3.6851
  105OSM    H7G10763   1.153   1.390   9.497 -1.2543  0.3288  0.2114
  105OSM    C8F10764   1.029   1.304   9.339 -0.1388 -0.4062  0.3471
  105OSM    H8F10765   0.933   1.249   9.333 -0.7502  0.7604 -1.4618
  105OSM    H8G10766   1.101   1.244   9.279 -2.3485 -0.7933 -2.1227
  105OSM    C9F10767   1.013   1.444   9.271 -0.1007 -0.3865 -0.1711
  105OSM    H9F10768   0.935   1.510   9.313 -0.7961 -0.6841 -0.9607
  105OSM   C10F10769   1.095   1.488   9.171  0.0332  0.6926 -0.4784
  105OSM   H10F10770   1.070   1.584   9.124 -0.0654  0.8038 -0.1962
  105OSM   C11F10771   1.218   1.416   9.105 -0.6036 -0.6040 -0.3172
  105OSM   H11F10772   1.274   1.350   9.175  0.8086 -0.0998 -0.9278
  105OSM   H11G10773   1.280   1.498   9.063 -0.1791 -0.3431  0.7899
  105OSM   C12F10774   1.172   1.324   8.995  0.5420  0.2589 -0.5026
  105OSM   H12F10775   1.130   1.372   8.905  1.3364 -1.3603 -1.7936
  105OSM   H12G10776   1.074   1.283   9.026 -0.2618  0.6333 -2.4438
  105OSM   C13F10777   1.270   1.215   8.956 -0.6313  0.0150  0.0880
  105OSM   H13F10778   1.373   1.257   8.960 -0.0437 -1.4327  1.6060
  105OSM   H13G10779   1.256   1.176   8.853 -2.3735 -0.1675  0.3672
  105OSM   C14F10780   1.254   1.095   9.051 -0.8208  0.4048  0.3769
  105OSM   H14F10781   1.146   1.069   9.060 -0.3102 -1.6840  0.9224
  105OSM   H14G10782   1.288   1.114   9.155  1.0369 -0.9476  0.0626
  105OSM   C15F10783   1.301   0.965   8.986  0.0955 -0.6313  0.0497
  105OSM   H15F10784   1.229   0.936   8.906  1.8672  0.8284 -2.2162
  105OSM   H15G10785   1.291   0.876   9.051  0.5279 -0.8705 -0.2072
  105OSM   C16F10786   1.447   0.970   8.925  0.4852  0.1916 -0.1180
  105OSM   H16F10787   1.436   1.048   8.846 -2.3358 -0.5258 -0.5484
  105OSM   H16G10788   1.467   0.877   8.869  1.2356 -0.6958  1.5580
  105OSM   C17F10789   1.558   0.986   9.023  0.2664 -0.0159 -0.6022
  105OSM   H17F10790   1.510   1.025   9.115  0.2746  1.6339 -1.2541
  105OSM   H17G10791   1.631   1.061   8.988  2.6013 -1.2354  1.4028
  105OSM   C18F10792   1.633   0.862   9.062 -0.3360  1.1657  0.2160
  105OSM   H18F10793   1.677   0.815   8.972 -0.6907 -0.6480  0.9510
  105OSM   H18G10794   1.552   0.795   9.100  0.2895  0.1860 -0.1381
  105OSM   H18H10795   1.705   0.871   9.146  1.4934  0.1732 -1.1934
  106OSM      N10796   3.838   5.083  11.082  0.1561  0.0573 -0.0985
  106OSM    C1510797   3.779   5.125  11.208 -0.1849  0.4103 -0.4933
  106OSM   H15A10798   3.695   5.191  11.192 -1.7428 -1.5670 -0.8358
  106OSM   H15B10799   3.857   5.163  11.272 -0.5220  1.9525 -0.9492
  106OSM   H15C10800   3.746   5.038  11.262  0.1825 -0.4092 -1.5565
  106OSM    C1410801   3.905   5.203  11.013 -0.1546  0.6677 -0.1497
  106OSM   H14A10802   3.831   5.277  10.985  1.6646  1.7343 -2.5039
  106OSM   H14B10803   3.962   5.175  10.926 -0.7231 -3.5968  0.6453
  106OSM   H14C10804   3.971   5.254  11.082 -0.9488  1.5024  0.0013
  106OSM    C1310805   3.935   4.978  11.117 -0.5479 -0.2277 -0.2604
  106OSM   H13A10806   4.011   5.001  11.191 -0.7907 -0.4001  0.0455
  106OSM   H13B10807   3.990   4.949  11.028  0.0029  1.1424 -0.3832
  106OSM   H13C10808   3.882   4.887  11.142 -0.7455 -0.9669 -3.0257
  106OSM    C1210809   3.731   5.014  10.995 -0.0495 -0.8461 -0.6520
  106OSM   H12A10810   3.663   4.955  11.054 -2.5065  1.5248 -0.8716
  106OSM   H12B10811   3.781   4.968  10.911  0.6987  0.7910 -1.1563
  106OSM    C1110812   3.639   5.118  10.928  1.2813  0.7088 -0.9991
  106OSM   H11A10813   3.562   5.061  10.871  0.6527 -0.8670  1.3224
  106OSM   H11B10814   3.698   5.185  10.862  2.3924  3.0028  2.0846
  106OSM      P10815   3.415   5.177  11.067 -0.0394  0.0526 -0.3960
  106OSM    O1310816   3.394   5.064  11.157  0.5041  0.0245 -0.0421
  106OSM    O1410817   3.364   5.308  11.110 -0.4675  0.7722  0.1505
  106OSM    O1110818   3.344   5.154  10.927 -0.3272 -0.3181  0.6375
  106OSM    O1210819   3.571   5.192  11.029  0.1436 -0.8946 -0.0545
  106OSM    C1S10820   3.211   5.182  10.886 -0.3809 -0.4702 -0.8162
  106OSM    H1S10821   3.184   5.287  10.910 -1.6262 -0.6696 -1.2631
  106OSM    H1T10822   3.138   5.107  10.924  0.2441  0.3476  2.2646
  106OSM     NF10823   3.063   5.206  10.692  0.2487 -0.5553  0.7725
  106OSM    HNF10824   2.992   5.137  10.706 -1.6243  1.2575  0.6625
  106OSM    C2S10825   3.198   5.157  10.728  0.8511  0.7006  0.5128
  106OSM    H2S10826   3.263   5.222  10.666  0.4889  0.8919  0.3314
  106OSM    C3S10827   3.232   5.013  10.695 -0.1416  0.2515  0.5586
  106OSM    H3S10828   3.187   4.936  10.761  1.9768  0.5156  2.4520
  106OSM     O310829   3.365   4.985  10.719  0.1148 -0.5040  0.3865
  106OSM    HO310830   3.383   5.047  10.791 -3.2632 -0.7453  1.6009
  106OSM    C4S10831   3.216   4.981  10.551 -0.5213  0.3757 -0.4830
  106OSM    H4S10832   3.293   5.029  10.489  0.8961 -1.5644 -0.3103
  106OSM    C5S10833   3.136   4.893  10.491  0.3183 -0.0069 -0.1363
  106OSM    H5S10834   3.075   4.835  10.562 -1.2283  1.4564 -0.1966
  106OSM    C6S10835   3.130   4.860  10.340 -0.6440  0.0874 -0.0061
  106OSM    H6S10836   3.034   4.882  10.289  0.0361 -0.3047 -1.4942
  106OSM    H6T10837   3.152   4.753  10.319  0.2706  0.5319 -1.4687
  106OSM    C7S10838   3.222   4.949  10.246 -0.0352  0.0062 -1.1444
  106OSM    H7S10839   3.327   4.919  10.268  0.0995  1.5588  0.6007
  106OSM    H7T10840   3.211   5.057  10.268 -1.1923 -0.4309  0.7238
  106OSM    C8S10841   3.207   4.913  10.102  0.0500  0.7734  0.0428
  106OSM    H8S10842   3.098   4.901  10.082 -0.2133 -1.2879  2.1743
  106OSM    H8T10843   3.254   4.815  10.080 -3.1750 -1.3804  1.8083
  106OSM    C9S10844   3.253   5.027  10.014  0.2856  0.3175 -0.4157
  106OSM    H9S10845   3.363   5.011  10.023  0.3922  1.5977  1.1511
  106OSM    H9T10846   3.224   5.127  10.052  0.2652  0.0181  0.3743
  106OSM   C10S10847   3.218   5.002   9.869 -0.5929  0.1298  0.6830
  106OSM   H10S10848   3.214   5.108   9.834 -0.6369  0.4814  1.7201
  106OSM   H10T10849   3.118   4.956   9.851 -1.1019 -0.1474  3.7358
  106OSM   C11S10850   3.324   4.916   9.796  0.4590  0.2674 -0.7842
  106OSM   H11S10851   3.326   4.817   9.848 -1.0568 -0.4709 -2.0422
  106OSM   H11T10852   3.423   4.962   9.816 -0.4376  1.4298  1.4075
  106OSM   C12S10853   3.278   4.889   9.652  0.3217 -0.4683  0.0254
  106OSM   H12S10854   3.274   4.987   9.601 -1.3739  0.0935  1.1631
  106OSM   H12T10855   3.173   4.852   9.647 -0.4644  1.7471 -1.4374
  106OSM   C13S10856   3.360   4.792   9.576 -0.2430  0.0049  0.4700
  106OSM   H13S10857   3.370   4.703   9.641 -1.6477  1.0850  2.2682
  106OSM   H13T10858   3.460   4.840   9.585 -0.9454  1.7548 -0.4919
  106OSM   C14S10859   3.323   4.756   9.432  0.0585  0.4169  0.6488
  106OSM   H14S10860   3.215   4.732   9.437  0.3023 -0.8146  0.3998
  106OSM   H14T10861   3.371   4.660   9.405  1.7199  2.0611 -2.7666
  106OSM   C15S10862   3.352   4.866   9.330 -0.4849  0.2912  0.3580
  106OSM   H15S10863   3.455   4.906   9.335  0.4513 -2.1208  1.8696
  106OSM   H15T10864   3.279   4.950   9.336 -0.0850  0.6526  0.1584
  106OSM   C16S10865   3.336   4.819   9.178 -0.5381  0.4205  0.2612
  106OSM   H16S10866   3.228   4.805   9.153 -0.1766  0.4121 -1.3689
  106OSM   H16T10867   3.386   4.720   9.177  0.9634  1.1574 -1.6504
  106OSM   C17S10868   3.416   4.912   9.087 -0.3373  0.0427 -0.4679
  106OSM   H17S10869   3.514   4.938   9.131 -1.2143 -0.1363  1.6906
  106OSM   H17T10870   3.378   5.016   9.086  1.2868  0.6858  0.8605
  106OSM   C18S10871   3.439   4.845   8.949  0.5587 -0.3655  0.5313
  106OSM   H18S10872   3.509   4.903   8.885 -0.5274 -0.1266 -0.4762
  106OSM   H18T10873   3.341   4.859   8.898  0.4251 -2.9070 -0.0123
  106OSM   H18U10874   3.463   4.737   8.960  0.8101 -0.7785 -2.9261
  106OSM    C1F10875   3.031   5.340  10.678 -0.3656  0.4191 -0.2161
  106OSM     OF10876   3.121   5.420  10.680  0.1523 -0.0028  0.6878
  106OSM    C2F10877   2.884   5.370  10.673 -0.0558  0.0634 -0.4225
  106OSM    H2F10878   2.852   5.367  10.780  0.1487  0.1392 -0.3609
  106OSM    H2G10879   2.839   5.282  10.622 -1.5967 -1.0098  2.5153
  106OSM    C3F10880   2.856   5.501  10.596 -0.6983  0.7785  0.1185
  106OSM    H3F10881   2.918   5.582  10.638 -0.0916  0.6952 -0.5917
  106OSM    H3G10882   2.751   5.531  10.618 -0.6573  1.1548 -0.1916
  106OSM    C4F10883   2.877   5.489  10.443  0.3657  0.2092  0.6626
  106OSM    H4F10884   2.981   5.462  10.415 -0.6937 -2.5553 -0.9639
  106OSM    H4G10885   2.865   5.590  10.399  0.8619  0.9432  2.1330
  106OSM    C5F10886   2.778   5.397  10.367  0.6378 -0.8298  0.9184
  106OSM    H5F10887   2.678   5.426  10.407  1.0914  0.0633  1.4275
  106OSM    H5G10888   2.802   5.290  10.386  1.0546 -1.1479 -1.1426
  106OSM    C6F10889   2.797   5.431  10.222  0.1566  0.1316 -0.0371
  106OSM    H6F10890   2.900   5.399  10.197  0.4406 -0.7826  2.0507
  106OSM    H6G10891   2.784   5.540  10.203  0.4444  0.5665  2.0181
  106OSM    C7F10892   2.700   5.351  10.133  0.1660 -0.5919  0.2259
  106OSM    H7F10893   2.599   5.397  10.143  1.1616  1.4108  1.7326
  106OSM    H7G10894   2.701   5.247  10.171  0.6198 -0.5633  0.2958
  106OSM    C8F10895   2.740   5.359   9.981 -0.7376  0.1372 -0.6085
  106OSM    H8F10896   2.689   5.266   9.948  0.0555  0.0848 -1.7386
  106OSM    H8G10897   2.847   5.331   9.963 -1.1809 -2.7528  0.5687
  106OSM    C9F10898   2.695   5.473   9.897  0.0408  0.1077  0.1555
  106OSM    H9F10899   2.729   5.571   9.934  0.9260  0.2365 -0.9224
  106OSM   C10F10900   2.631   5.474   9.778 -0.1013  0.3392  0.3096
  106OSM   H10F10901   2.618   5.571   9.728  2.3594  0.9238  0.6934
  106OSM   C11F10902   2.594   5.346   9.701 -0.4020 -0.1779 -0.6714
  106OSM   H11F10903   2.513   5.282   9.742  1.3549 -1.9223  0.3058
  106OSM   H11G10904   2.683   5.279   9.703  0.8790  1.3993  1.9305
  106OSM   C12F10905   2.551   5.359   9.553 -0.4983 -0.2671 -0.0892
  106OSM   H12F10906   2.627   5.416   9.497 -0.7715 -0.1361 -0.3267
  106OSM   H12G10907   2.465   5.428   9.542  0.1330  0.9188  1.9164
  106OSM   C13F10908   2.519   5.222   9.488  0.0350 -0.0922 -0.0817
  106OSM   H13F10909   2.421   5.197   9.533  0.8107 -1.2985  1.0210
  106OSM   H13G10910   2.594   5.145   9.518 -1.1465 -0.6963  1.4496
  106OSM   C14F10911   2.507   5.234   9.341 -0.3920 -0.2429 -0.0982
  106OSM   H14F10912   2.606   5.268   9.305  0.1103 -1.0830  0.4651
  106OSM   H14G10913   2.432   5.314   9.319  0.5266  0.5762 -0.3103
  106OSM   C15F10914   2.466   5.100   9.272 -0.4488  0.0424  0.1453
  106OSM   H15F10915   2.380   5.072   9.336 -0.7189 -0.3114 -0.3603
  106OSM   H15G10916   2.559   5.040   9.284 -0.2327  0.0508 -1.2666
  106OSM   C16F10917   2.432   5.097   9.119  0.1836 -0.0494 -0.5042
  106OSM   H16F10918   2.358   5.179   9.111 -2.3320 -2.3140 -2.7570
  106OSM   H16G10919   2.389   4.999   9.088  0.7755 -0.5723  0.2927
  106OSM   C17F10920   2.558   5.149   9.027  0.0592 -0.0486 -0.1989
  106OSM   H17F10921   2.649   5.113   9.077  0.8941  1.0066 -0.9043
  106OSM   H17G10922   2.554   5.260   9.035 -1.7807  0.0630 -1.8566
  106OSM   C18F10923   2.556   5.107   8.881 -0.6710 -0.4336  0.5909
  106OSM   H18F10924   2.649   5.132   8.825  0.5330 -1.5871  1.9941
  106OSM   H18G10925   2.470   5.159   8.834 -1.0925  0.0894  1.8811
  106OSM   H18H10926   2.544   4.998   8.868  0.2377 -0.4473 -0.1934
  107OSM      N10927   5.236   6.619  11.202  0.0014 -0.2308  0.1938
  107OSM    C1510928   5.188   6.737  11.280  0.2314 -0.2007  1.2598
  107OSM   H15A10929   5.116   6.793  11.222 -0.6342 -3.2489 -0.8681
  107OSM   H15B10930   5.266   6.801  11.319 -0.0121  0.8559  0.0598
  107OSM   H15C10931   5.131   6.691  11.359  2.1920 -3.0572  1.1612
  107OSM    C1410932   5.350   6.671  11.125 -0.3139  0.3468 -0.0853
  107OSM   H14A10933   5.333   6.751  11.055 -0.6638 -0.3761 -0.8334
  107OSM   H14B10934   5.397   6.595  11.065 -1.4537  0.5808 -1.3048
  107OSM   H14C10935   5.423   6.717  11.190 -0.8194  0.3900  0.4592
  107OSM    C1310936   5.262   6.516  11.308  0.1651 -1.2463  0.3378
  107OSM   H13A10937   5.171   6.486  11.358  1.1169 -1.3327  2.0647
  107OSM   H13B10938   5.332   6.558  11.379  2.7885 -0.8897 -2.2555
  107OSM   H13C10939   5.305   6.431  11.257 -0.6009 -0.9111 -0.9357
  107OSM    C1210940   5.131   6.568  11.101 -0.0574  0.5817 -0.4029
  107OSM   H12A10941   5.183   6.488  11.051  0.4085 -0.5753  1.8530
  107OSM   H12B10942   5.118   6.652  11.034  1.8050 -0.1582 -1.7984
  107OSM    C1110943   4.994   6.522  11.151 -0.0705  0.3844 -0.6669
  107OSM   H11A10944   5.012   6.443  11.227 -1.9825  1.8849  1.4716
  107OSM   H11B10945   4.934   6.477  11.068 -0.2057  2.4936 -1.7727
  107OSM      P10946   4.862   6.738  11.126 -0.1336  0.1602  0.3238
  107OSM    O1310947   4.758   6.817  11.192  0.0906 -0.3641 -0.5771
  107OSM    O1410948   4.980   6.815  11.075 -0.1879  0.0093  0.9701
  107OSM    O1110949   4.798   6.666  11.007 -0.4511 -0.4678 -0.2377
  107OSM    O1210950   4.916   6.623  11.218 -0.3802 -0.1415  0.1959
  107OSM    C1S10951   4.735   6.732  10.896 -0.1763  1.0142  0.5129
  107OSM    H1S10952   4.815   6.755  10.823 -1.4608  0.8086 -1.0243
  107OSM    H1T10953   4.676   6.819  10.931 -1.1872  0.1398  1.0513
  107OSM     NF10954   4.579   6.700  10.702 -0.1765 -0.4570  0.7541
  107OSM    HNF10955   4.490   6.743  10.699  0.1966  0.2722 -0.5740
  107OSM    C2S10956   4.635   6.629  10.822 -0.5074  0.1607  0.1752
  107OSM    H2S10957   4.688   6.538  10.785 -0.2099  1.1872 -2.1044
  107OSM    C3S10958   4.528   6.573  10.926 -0.1012 -0.4746 -0.2662
  107OSM    H3S10959   4.474   6.665  10.959  2.5174  1.2441 -0.4326
  107OSM     O310960   4.583   6.523  11.049 -0.1515  0.5258 -0.2759
  107OSM    HO310961   4.670   6.563  11.051 -0.0031  0.2309 -0.5951
  107OSM    C4S10962   4.433   6.479  10.860  0.3315 -0.7393  0.0308
  107OSM    H4S10963   4.380   6.527  10.776  3.6300  1.9512 -0.7430
  107OSM    C5S10964   4.417   6.348  10.870  0.0954  1.1019  0.5177
  107OSM    H5S10965   4.477   6.288  10.941 -0.1289  0.4762  0.1888
  107OSM    C6S10966   4.313   6.279  10.779  0.6155  1.0363  0.2736
  107OSM    H6S10967   4.253   6.352  10.721  0.4006  1.6951  1.3141
  107OSM    H6T10968   4.238   6.235  10.848  2.3799 -2.3537  0.2822
  107OSM    C7S10969   4.364   6.167  10.683 -0.2218 -0.6887 -0.0531
  107OSM    H7S10970   4.274   6.138  10.624 -0.8188 -1.3408  1.1360
  107OSM    H7T10971   4.417   6.083  10.732  2.1088  0.0580 -1.1484
  107OSM    C8S10972   4.467   6.217  10.583 -0.8299 -0.2946  0.7846
  107OSM    H8S10973   4.518   6.137  10.526 -1.3368 -0.8819  1.1441
  107OSM    H8T10974   4.551   6.265  10.638 -0.1133 -2.3162  1.5454
  107OSM    C9S10975   4.415   6.318  10.479 -0.3659 -0.0764 -0.2812
  107OSM    H9S10976   4.386   6.409  10.536  1.0502  0.3542 -0.2040
  107OSM    H9T10977   4.332   6.264  10.429  0.8762 -1.0848 -1.3073
  107OSM   C10S10978   4.512   6.367  10.371  0.1043 -0.2743  0.2489
  107OSM   H10S10979   4.611   6.373  10.421  0.4950  1.1720 -0.6484
  107OSM   H10T10980   4.476   6.462  10.327  0.0479  0.5840  2.0845
  107OSM   C11S10981   4.514   6.269  10.253 -0.3067  0.4969  0.3910
  107OSM   H11S10982   4.411   6.252  10.216  1.1124 -1.0515 -3.3785
  107OSM   H11T10983   4.563   6.177  10.291  0.6934 -0.0672 -2.0631
  107OSM   C12S10984   4.594   6.317  10.136 -0.2035  0.3615 -0.0795
  107OSM   H12S10985   4.582   6.427  10.126  1.1685  0.7361  1.7686
  107OSM   H12T10986   4.568   6.261  10.044 -1.3103 -2.2147  1.6784
  107OSM   C13S10987   4.750   6.323  10.164 -0.0576 -0.3481  0.8402
  107OSM   H13S10988   4.785   6.223  10.197  1.3279 -0.4265 -0.7120
  107OSM   H13T10989   4.773   6.390  10.250  0.9401  0.2658  0.1193
  107OSM   C14S10990   4.828   6.378  10.045 -0.1038 -0.1377  0.3980
  107OSM   H14S10991   4.797   6.318   9.956  0.8076  0.6320 -0.4602
  107OSM   H14T10992   4.933   6.345  10.061 -0.0091 -0.6425 -1.1141
  107OSM   C15S10993   4.816   6.534  10.026  0.7100  0.2795  0.3578
  107OSM   H15S10994   4.836   6.589  10.121 -1.6093  3.0875 -0.6439
  107OSM   H15T10995   4.714   6.568   9.996 -0.5451 -3.3724  0.0057
  107OSM   C16S10996   4.925   6.582   9.928  0.3189  0.1626 -0.1138
  107OSM   H16S10997   5.026   6.569   9.972  0.6618  0.1409 -0.8933
  107OSM   H16T10998   4.902   6.687   9.902 -0.8231 -0.2084 -0.6898
  107OSM   C17S10999   4.923   6.511   9.783  0.1060  0.3105 -0.3795
  107OSM   H17S11000   4.821   6.501   9.741 -1.0249 -0.1675  2.2850
  107OSM   H17T11001   4.963   6.410   9.805 -1.0667 -0.5438 -1.9504
  107OSM   C18S11002   5.034   6.567   9.696  0.3588 -0.6260  0.5717
  107OSM   H18S11003   5.133   6.555   9.745 -0.0976 -2.4764  1.1356
  107OSM   H18T11004   5.022   6.673   9.666 -0.2624 -0.2291  2.1385
  107OSM   H18U11005   5.028   6.505   9.603  1.2472  1.4418 -0.9365
  107OSM    C1F11006   4.656   6.712  10.591 -0.0696 -0.0541  0.4118
  107OSM     OF11007   4.760   6.651  10.586  0.0693  0.0277 -0.2015
  107OSM    C2F11008   4.593   6.787  10.480  0.7138  0.4644  0.6511
  107OSM    H2F11009   4.615   6.896  10.489  1.7918  0.2066  1.3394
  107OSM    H2G11010   4.486   6.756  10.480  1.0996 -0.9491  1.1388
  107OSM    C3F11011   4.645   6.726  10.337 -0.1589  0.4302 -0.2217
  107OSM    H3F11012   4.623   6.617  10.327  1.5045 -0.1196  1.4146
  107OSM    H3G11013   4.755   6.741  10.342 -0.2132  0.5735  1.0430
  107OSM    C4F11014   4.591   6.797  10.211  0.4593  0.3161  0.6373
  107OSM    H4F11015   4.668   6.783  10.132 -1.1971 -0.9713 -0.8351
  107OSM    H4G11016   4.580   6.907  10.218 -2.9369  0.0063  2.2515
  107OSM    C5F11017   4.465   6.735  10.148  0.2192  0.1013  0.1422
  107OSM    H5F11018   4.379   6.746  10.218  0.0486  2.3215 -0.3391
  107OSM    H5G11019   4.487   6.626  10.159 -1.7213 -0.6161 -2.0573
  107OSM    C6F11020   4.430   6.775  10.004  0.3007 -0.2968 -0.4310
  107OSM    H6F11021   4.425   6.885   9.988  1.9630 -0.5433 -3.2844
  107OSM    H6G11022   4.336   6.723   9.975  0.8390 -1.6389  0.1565
  107OSM    C7F11023   4.531   6.725   9.894  0.7104 -0.5968  0.1187
  107OSM    H7F11024   4.534   6.614   9.902  0.0781 -0.6777 -0.6426
  107OSM    H7G11025   4.634   6.765   9.904  1.3419 -1.9210 -0.8136
  107OSM    C8F11026   4.473   6.757   9.755  0.0867  0.2131  0.1544
  107OSM    H8F11027   4.476   6.868   9.744  0.4008  0.1841 -0.0430
  107OSM    H8G11028   4.367   6.725   9.749 -0.1558  0.5717  1.8582
  107OSM    C9F11029   4.561   6.712   9.641 -0.0059 -0.0038 -1.2286
  107OSM    H9F11030   4.657   6.766   9.632  0.1439 -0.2497 -1.1176
  107OSM   C10F11031   4.531   6.617   9.555  1.0220 -0.1787  0.4489
  107OSM   H10F11032   4.612   6.600   9.482  1.0643 -0.2535  0.5126
  107OSM   C11F11033   4.409   6.529   9.538 -0.3750 -0.0679 -0.5968
  107OSM   H11F11034   4.334   6.557   9.615  1.6771 -0.8229  1.8371
  107OSM   H11G11035   4.442   6.426   9.567 -1.0472  0.1705  1.1508
  107OSM   C12F11036   4.349   6.534   9.398 -0.6295  0.5789 -0.2481
  107OSM   H12F11037   4.335   6.640   9.368 -0.6050  0.4679 -0.6577
  107OSM   H12G11038   4.247   6.489   9.399 -1.5459  2.5670  0.9521
  107OSM   C13F11039   4.431   6.458   9.289  0.2014 -0.0692  0.3271
  107OSM   H13F11040   4.523   6.407   9.326 -0.9110 -2.7854 -0.4095
  107OSM   H13G11041   4.452   6.526   9.203 -0.3207  0.5499  0.6758
  107OSM   C14F11042   4.351   6.339   9.222 -0.4921  0.1821 -0.0144
  107OSM   H14F11043   4.260   6.373   9.169  1.0802  4.0253 -0.5884
  107OSM   H14G11044   4.314   6.286   9.312 -1.8813  2.5532  0.9033
  107OSM   C15F11045   4.431   6.264   9.120 -0.0636  0.1542  0.0515
  107OSM   H15F11046   4.512   6.204   9.166 -0.2314 -0.7313 -0.7805
  107OSM   H15G11047   4.498   6.331   9.061 -1.1010 -0.6359 -2.1317
  107OSM   C16F11048   4.346   6.174   9.024 -0.1690  0.5244  0.2575
  107OSM   H16F11049   4.418   6.122   8.957  0.4559 -2.7647  3.2086
  107OSM   H16G11050   4.284   6.244   8.965 -1.9282 -2.6189 -1.9207
  107OSM   C17F11051   4.268   6.055   9.087 -0.5499 -0.0823 -0.4272
  107OSM   H17F11052   4.198   6.090   9.165  3.8192  1.4050  3.2777
  107OSM   H17G11053   4.338   5.992   9.147  0.4106  1.4203  0.0850
  107OSM   C18F11054   4.199   5.976   8.981  0.0124 -0.1452  1.2227
  107OSM   H18F11055   4.167   6.033   8.891 -1.8831 -1.1350  1.2129
  107OSM   H18G11056   4.117   5.908   9.011 -0.4086 -0.5401 -0.6849
  107OSM   H18H11057   4.277   5.906   8.944  0.9695  1.4684  0.0600
  108OSM      N11058   2.427   5.375  11.366  0.6699  0.5650  0.4690
  108OSM    C1511059   2.342   5.253  11.338 -0.1813 -0.1013 -0.1383
  108OSM   H15A11060   2.275   5.234  11.421 -0.8217 -2.7424 -1.1794
  108OSM   H15B11061   2.407   5.168  11.325 -0.5106 -0.9874  3.0822
  108OSM   H15C11062   2.265   5.268  11.265 -0.0118 -0.1514 -0.3277
  108OSM    C1411063   2.331   5.479  11.418 -0.1647 -0.0387  0.2143
  108OSM   H14A11064   2.379   5.544  11.488  1.4368 -1.0997  0.1504
  108OSM   H14B11065   2.245   5.434  11.466 -0.9213 -0.1699 -1.1967
  108OSM   H14C11066   2.303   5.551  11.342 -0.1082 -0.7265 -0.4830
  108OSM    C1311067   2.527   5.350  11.473  0.2015 -0.2192  0.2201
  108OSM   H13A11068   2.588   5.433  11.504  2.1726 -1.5516  0.1311
  108OSM   H13B11069   2.600   5.274  11.449  1.0818  1.0805 -1.4629
  108OSM   H13C11070   2.481   5.314  11.563 -0.9537 -1.4239 -0.8004
  108OSM    C1211071   2.490   5.423  11.238 -0.2211  0.2147  0.2667
  108OSM   H12A11072   2.572   5.355  11.219  0.2321  0.2872  1.8110
  108OSM   H12B11073   2.532   5.521  11.255 -0.0724  0.1285  0.3953
  108OSM    C1111074   2.403   5.441  11.105 -0.4351  0.9170  0.7979
  108OSM   H11A11075   2.357   5.342  11.085 -2.6317  1.7102  1.5901
  108OSM   H11B11076   2.468   5.443  11.015 -0.9987 -0.6964  0.3042
  108OSM      P11077   2.328   5.690  11.072  0.1201  0.1636 -0.0680
  108OSM    O1311078   2.277   5.777  11.177  0.2406  0.2905 -0.1398
  108OSM    O1411079   2.462   5.711  11.027  0.7230 -0.1900  0.0424
  108OSM    O1111080   2.242   5.731  10.947  0.0512  0.2152  0.2705
  108OSM    O1211081   2.296   5.540  11.113 -0.1732 -0.6972  0.6466
  108OSM    C1S11082   2.252   5.646  10.826 -0.2055  0.0222  0.0694
  108OSM    H1S11083   2.224   5.542  10.851  0.8510 -0.3355 -0.1880
  108OSM    H1T11084   2.357   5.638  10.791 -0.4037  0.6757 -0.7294
  108OSM     NF11085   2.207   5.631  10.581  0.3409 -0.4513  0.1873
  108OSM    HNF11086   2.245   5.688  10.509  1.4007 -0.5544  0.6465
  108OSM    C2S11087   2.164   5.693  10.702 -0.8268 -0.1175  0.3020
  108OSM    H2S11088   2.062   5.658  10.730 -1.0233  0.6139  0.5396
  108OSM    C3S11089   2.151   5.848  10.692  0.0728 -0.3980  0.0972
  108OSM    H3S11090   2.255   5.887  10.681  0.2851 -0.4780  1.5488
  108OSM     O311091   2.102   5.906  10.812  0.1083  0.0882  0.5436
  108OSM    HO311092   2.108   5.837  10.879  1.7534 -0.6388 -0.2737
  108OSM    C4S11093   2.066   5.891  10.578  0.7959  0.0027 -0.6233
  108OSM    H4S11094   1.959   5.883  10.602  0.5806  2.9020 -0.2134
  108OSM    C5S11095   2.107   5.944  10.455  0.5007 -0.3475 -0.3247
  108OSM    H5S11096   2.209   5.973  10.424  0.1031  1.6157  0.0348
  108OSM    C6S11097   1.998   5.972  10.351  0.2302 -0.9463  0.2723
  108OSM    H6S11098   1.940   6.064  10.375 -0.2860 -1.2762  0.3029
  108OSM    H6T11099   1.922   5.892  10.361 -0.7555 -0.1420 -0.5145
  108OSM    C7S11100   2.066   5.976  10.215  0.2534 -0.4591 -0.1240
  108OSM    H7S11101   2.134   5.889  10.208 -1.0589 -1.6003  0.8270
  108OSM    H7T11102   2.132   6.065  10.228 -1.4837  0.9120 -0.2722
  108OSM    C8S11103   1.975   5.993  10.095  0.3830 -0.3682 -0.0717
  108OSM    H8S11104   1.884   6.050  10.126  0.0786  0.2288 -1.9340
  108OSM    H8T11105   1.928   5.898  10.061  0.4239  0.4376 -2.5423
  108OSM    C9S11106   2.051   6.057   9.970 -0.7442 -0.8876 -0.5082
  108OSM    H9S11107   2.158   6.029   9.968 -0.7724 -1.5562  2.1733
  108OSM    H9T11108   2.054   6.166   9.992 -0.9610 -0.7859 -0.9653
  108OSM   C10S11109   1.978   6.036   9.836 -0.2617 -0.0323 -0.0516
  108OSM   H10S11110   1.877   6.079   9.856  1.1369  2.8359  1.3695
  108OSM   H10T11111   1.972   5.926   9.818  0.4891  0.0305 -0.7200
  108OSM   C11S11112   2.037   6.123   9.724 -0.8732 -0.8566 -0.7611
  108OSM   H11S11113   2.146   6.098   9.721 -0.9089 -1.1079 -0.0891
  108OSM   H11T11114   2.026   6.229   9.755  0.3814 -1.1953  1.0237
  108OSM   C12S11115   1.978   6.087   9.594 -0.1633 -0.2949  0.1211
  108OSM   H12S11116   1.868   6.077   9.604 -0.4609  1.1136 -1.2507
  108OSM   H12T11117   2.004   5.981   9.574  0.1283 -0.2938  0.4949
  108OSM   C13S11118   2.037   6.175   9.481 -0.0941 -0.4355 -0.1054
  108OSM   H13S11119   2.139   6.143   9.451  0.3563  1.1375 -0.3674
  108OSM   H13T11120   2.031   6.279   9.520 -0.3647 -0.2133 -0.7170
  108OSM   C14S11121   1.955   6.166   9.347 -0.0616 -0.2017  0.0573
  108OSM   H14S11122   2.023   6.227   9.284  0.7382 -0.4508  0.6641
  108OSM   H14T11123   1.862   6.226   9.350  0.4917  0.8436 -1.9050
  108OSM   C15S11124   1.931   6.023   9.303 -0.4236 -0.4112  0.1814
  108OSM   H15S11125   1.864   5.966   9.371  0.2373  0.6420  1.7584
  108OSM   H15T11126   2.029   5.972   9.306 -1.1331 -1.8388  0.1580
  108OSM   C16S11127   1.855   6.009   9.164 -0.0828 -0.0722  0.3392
  108OSM   H16S11128   1.912   6.053   9.079 -0.4733  1.2644  0.7379
  108OSM   H16T11129   1.769   6.079   9.170  0.2211  0.1960  1.7908
  108OSM   C17S11130   1.825   5.862   9.132 -0.1800 -0.1615 -0.4584
  108OSM   H17S11131   1.770   5.829   9.223  0.7148  0.3516  0.2853
  108OSM   H17T11132   1.914   5.796   9.126  1.1806  1.5417  0.2721
  108OSM   C18S11133   1.741   5.850   9.003  0.6508  0.4318 -0.1983
  108OSM   H18S11134   1.804   5.800   8.925  2.7141  2.8117 -0.1805
  108OSM   H18T11135   1.696   5.947   8.974  0.0100  0.8870  2.1559
  108OSM   H18U11136   1.659   5.777   9.019 -1.5342  2.5020 -1.4603
  108OSM    C1F11137   2.203   5.502  10.559 -0.0290 -0.0212  0.5897
  108OSM     OF11138   2.153   5.429  10.640 -0.2314 -0.4650  0.0504
  108OSM    C2F11139   2.261   5.444  10.432 -0.5207 -0.5681 -0.3963
  108OSM    H2F11140   2.341   5.508  10.388  0.6374 -1.4133  0.4033
  108OSM    H2G11141   2.178   5.435  10.360 -0.6939  1.8161 -0.5719
  108OSM    C3F11142   2.329   5.308  10.472 -0.3342  0.2065 -0.1751
  108OSM    H3F11143   2.261   5.230  10.514  1.5627 -2.6611 -2.0490
  108OSM    H3G11144   2.397   5.306  10.559 -1.4032 -0.5751  0.6775
  108OSM    C4F11145   2.395   5.237  10.351  0.2335 -0.1416 -0.0134
  108OSM    H4F11146   2.424   5.137  10.387  3.2703 -0.1859 -2.2398
  108OSM    H4G11147   2.485   5.295  10.320  1.6700 -3.1059 -1.7979
  108OSM    C5F11148   2.290   5.206  10.240 -0.1935  0.1673  0.0463
  108OSM    H5F11149   2.247   5.302  10.205  0.8067  1.3044  1.7943
  108OSM    H5G11150   2.205   5.150  10.283 -0.9245  1.9774  1.0665
  108OSM    C6F11151   2.335   5.113  10.124 -0.1104 -0.0023 -0.0361
  108OSM    H6F11152   2.386   5.021  10.158 -0.0399 -0.1696 -0.5870
  108OSM    H6G11153   2.410   5.171  10.067  0.5068 -0.8545 -0.1104
  108OSM    C7F11154   2.224   5.073  10.026 -0.1676 -0.6056 -0.0102
  108OSM    H7F11155   2.198   5.173   9.985 -0.3888 -0.0814  1.3543
  108OSM    H7G11156   2.143   5.021  10.080  0.0990 -2.4265 -1.2590
  108OSM    C8F11157   2.268   4.979   9.907 -0.4906  0.1242  0.5444
  108OSM    H8F11158   2.379   4.982   9.905 -0.4885 -0.0744 -1.4591
  108OSM    H8G11159   2.235   5.034   9.816 -0.8750  1.4858  1.4644
  108OSM    C9F11160   2.207   4.846   9.919  0.4634  0.1545 -0.3206
  108OSM    H9F11161   2.161   4.811  10.013  1.0286 -2.8886 -1.0404
  108OSM   C10F11162   2.206   4.760   9.817 -0.4333 -0.6599 -0.0063
  108OSM   H10F11163   2.176   4.657   9.843 -3.3106  0.2934  0.7854
  108OSM   C11F11164   2.257   4.799   9.679 -0.1728 -0.3305  0.6202
  108OSM   H11F11165   2.262   4.909   9.664 -0.6002 -0.2396  1.1322
  108OSM   H11G11166   2.184   4.768   9.601  1.3943 -1.0780 -0.6369
  108OSM   C12F11167   2.392   4.740   9.636 -0.4153 -0.6860  0.6482
  108OSM   H12F11168   2.373   4.631   9.644 -0.3370 -0.6769  0.9630
  108OSM   H12G11169   2.473   4.761   9.709  0.1870 -0.5574 -0.0411
  108OSM   C13F11170   2.432   4.784   9.496  0.2055 -0.1235 -0.4043
  108OSM   H13F11171   2.464   4.890   9.491 -1.9794  0.5863 -0.5878
  108OSM   H13G11172   2.335   4.769   9.445 -0.0966 -2.7679  0.7823
  108OSM   C14F11173   2.545   4.702   9.441 -0.2959 -0.6237 -0.5809
  108OSM   H14F11174   2.519   4.595   9.426 -1.5994 -0.4614  0.4111
  108OSM   H14G11175   2.625   4.706   9.518 -0.9035  0.3479  0.0164
  108OSM   C15F11176   2.602   4.752   9.312 -0.3658 -0.8225  0.9413
  108OSM   H15F11177   2.627   4.860   9.305  1.2258 -1.2231 -0.2822
  108OSM   H15G11178   2.525   4.738   9.233  0.1577  0.7036  0.1239
  108OSM   C16F11179   2.721   4.668   9.265  0.8335 -0.2176  0.5136
  108OSM   H16F11180   2.696   4.562   9.244  2.1470 -0.1213 -1.9843
  108OSM   H16G11181   2.796   4.655   9.347  0.0642  2.1237  1.6830
  108OSM   C17F11182   2.798   4.731   9.142  0.3773 -0.2074  0.1152
  108OSM   H17F11183   2.843   4.832   9.159 -1.6689  1.3271 -2.6352
  108OSM   H17G11184   2.729   4.765   9.062  1.3209  1.1384 -0.1652
  108OSM   C18F11185   2.899   4.630   9.092 -0.3050  0.3979 -0.2921
  108OSM   H18F11186   2.974   4.606   9.171  2.1051  1.7783 -2.0238
  108OSM   H18G11187   2.956   4.661   9.002  0.2866 -1.1779 -0.4931
  108OSM   H18H11188   2.840   4.541   9.062 -1.7618  0.3185  2.4247
  109OSM      N11189   1.135   1.268  11.221 -0.1075  0.2668  0.1402
  109OSM    C1511190   1.082   1.158  11.302 -0.6443 -0.1266  0.4754
  109OSM   H15A11191   1.152   1.077  11.310  0.3143  0.1688 -3.2320
  109OSM   H15B11192   0.989   1.123  11.261  1.6646 -2.8136 -3.0546
  109OSM   H15C11193   1.076   1.183  11.407  0.1844  0.1320  0.4735
  109OSM    C1411194   1.032   1.376  11.232  0.1464  0.4417  0.5396
  109OSM   H14A11195   0.932   1.343  11.208  0.3297  0.0527  0.2903
  109OSM   H14B11196   1.055   1.468  11.179  0.0095  0.0849 -0.1575
  109OSM   H14C11197   1.032   1.416  11.332 -2.5591  2.1304 -0.0004
  109OSM    C1311198   1.270   1.309  11.266  0.0942  0.3177 -0.2348
  109OSM   H13A11199   1.264   1.342  11.369  4.2129 -1.9615  0.9723
  109OSM   H13B11200   1.302   1.394  11.208 -0.8609  1.5213  0.9446
  109OSM   H13C11201   1.343   1.231  11.251  1.8488  1.5267  1.5893
  109OSM    C1211202   1.126   1.223  11.071  0.2710 -0.7680 -0.1056
  109OSM   H12A11203   1.201   1.279  11.018  1.6011 -1.5115  0.9279
  109OSM   H12B11204   1.028   1.237  11.027  0.8777 -1.5109 -1.7346
  109OSM    C1111205   1.167   1.069  11.040  0.1437  0.3390 -0.1317
  109OSM   H11A11206   1.183   1.056  10.931  0.0271  1.1773 -0.2620
  109OSM   H11B11207   1.084   1.006  11.080  0.0344  1.1475  0.9935
  109OSM      P11208   1.321   0.905  11.153  0.3052 -0.0928  0.3885
  109OSM    O1311209   1.467   0.895  11.168  0.1134  0.3672  0.2427
  109OSM    O1411210   1.237   0.872  11.276 -0.3237 -0.6654 -0.1212
  109OSM    O1111211   1.266   0.818  11.032  0.1012 -0.7787  0.4163
  109OSM    O1211212   1.293   1.050  11.105 -0.1561 -0.6040 -0.4755
  109OSM    C1S11213   1.364   0.800  10.927 -0.2497 -0.3409  0.2653
  109OSM    H1S11214   1.460   0.757  10.964  1.5440  2.5673 -0.6633
  109OSM    H1T11215   1.391   0.898  10.883 -0.1711  0.0177  1.1053
  109OSM     NF11216   1.404   0.727  10.696  0.3310  0.2133  0.2265
  109OSM    HNF11217   1.371   0.780  10.618 -0.1812  0.7432  0.7870
  109OSM    C2S11218   1.309   0.716  10.808  0.3892  0.3655  0.3670
  109OSM    H2S11219   1.310   0.606  10.825  0.7418  0.0531 -1.4101
  109OSM    C3S11220   1.164   0.760  10.759  0.4227 -0.5366  0.4721
  109OSM    H3S11221   1.169   0.866  10.725 -1.0842 -0.7860 -0.5705
  109OSM     O311222   1.060   0.759  10.854 -0.0502  0.1213 -0.5640
  109OSM    HO311223   1.105   0.741  10.937 -0.5912 -2.4908 -0.7617
  109OSM    C4S11224   1.134   0.682  10.634 -0.3262  0.2934  0.3620
  109OSM    H4S11225   1.162   0.744  10.548 -1.8719 -0.4473 -0.7354
  109OSM    C5S11226   1.065   0.567  10.619 -0.7578  0.5622  0.1546
  109OSM    H5S11227   1.034   0.514  10.710 -0.4450  1.2631  0.6821
  109OSM    C6S11228   1.037   0.496  10.487  0.6872  0.1528  0.0117
  109OSM    H6S11229   0.933   0.514  10.454  1.0831 -0.0641 -1.4353
  109OSM    H6T11230   1.047   0.386  10.501  2.4049  0.3970  1.0457
  109OSM    C7S11231   1.122   0.524  10.359 -0.0909 -0.2309 -0.4018
  109OSM    H7S11232   1.122   0.634  10.347 -1.3978 -0.0191  1.1955
  109OSM    H7T11233   1.057   0.486  10.277 -0.6785 -0.6552  0.2550
  109OSM    C8S11234   1.253   0.445  10.348  0.0031  0.0992 -0.8632
  109OSM    H8S11235   1.232   0.341  10.381 -3.5446 -0.1539 -3.3960
  109OSM    H8T11236   1.332   0.487  10.414 -0.8255 -0.1225  0.3095
  109OSM    C9S11237   1.315   0.462  10.210  0.6186  0.7169  0.6360
  109OSM    H9S11238   1.231   0.459  10.138 -0.4047 -2.7389  1.7599
  109OSM    H9T11239   1.376   0.372  10.186 -1.5461  0.1813 -4.0288
  109OSM   C10S11240   1.384   0.597  10.196  0.4633 -0.3238 -0.1921
  109OSM   H10S11241   1.470   0.602  10.266  1.8124 -2.0212 -1.6341
  109OSM   H10T11242   1.320   0.684  10.222  0.4738 -0.2302 -0.4789
  109OSM   C11S11243   1.446   0.608  10.062 -0.0704 -0.3709  0.0993
  109OSM   H11S11244   1.542   0.552  10.063  1.6832  2.4665  1.0167
  109OSM   H11T11245   1.482   0.710  10.037  0.5726 -0.1184  1.9074
  109OSM   C12S11246   1.366   0.547   9.951  0.5802 -0.0575 -0.0611
  109OSM   H12S11247   1.260   0.574   9.966 -0.2405 -3.1507  0.4640
  109OSM   H12T11248   1.359   0.437   9.965 -1.6704  0.0176 -0.3245
  109OSM   C13S11249   1.424   0.594   9.811  0.2161  0.9598 -0.3005
  109OSM   H13S11250   1.535   0.592   9.820  0.1636 -0.0937  0.1945
  109OSM   H13T11251   1.390   0.699   9.795  3.4408  1.8379 -2.3674
  109OSM   C14S11252   1.384   0.510   9.693  0.2342  0.0651  0.6921
  109OSM   H14S11253   1.276   0.512   9.668  0.3468  1.2865  0.2612
  109OSM   H14T11254   1.417   0.408   9.723  1.2720  1.1709  3.6056
  109OSM   C15S11255   1.448   0.541   9.553 -0.0302  0.1712 -0.4190
  109OSM   H15S11256   1.411   0.474   9.472 -1.1337 -0.5145  0.6120
  109OSM   H15T11257   1.558   0.527   9.557  0.1456  1.4080 -0.4766
  109OSM   C16S11258   1.421   0.683   9.524  0.3529  0.5925 -0.0080
  109OSM   H16S11259   1.484   0.739   9.596 -1.2606  1.1555  1.0013
  109OSM   H16T11260   1.315   0.702   9.549 -1.1755 -0.1540 -4.7754
  109OSM   C17S11261   1.428   0.717   9.370  0.3801 -0.1496 -0.0631
  109OSM   H17S11262   1.510   0.653   9.330 -0.1692 -1.1864  0.4177
  109OSM   H17T11263   1.452   0.823   9.346  2.0146  0.2702  2.9382
  109OSM   C18S11264   1.291   0.682   9.302  0.0764  0.0756  0.3666
  109OSM   H18S11265   1.255   0.583   9.338 -0.8791  0.0973 -0.4944
  109OSM   H18T11266   1.305   0.677   9.192  0.8251 -0.1531  0.4642
  109OSM   H18U11267   1.222   0.762   9.337 -1.3928 -0.1596 -1.8106
  109OSM    C1F11268   1.528   0.679  10.703  0.7386 -0.4132  0.3715
  109OSM     OF11269   1.548   0.592  10.779  0.5313 -0.0653  0.0808
  109OSM    C2F11270   1.636   0.740  10.610 -0.5925  0.3440  0.4763
  109OSM    H2F11271   1.726   0.775  10.665 -0.6035  1.9584 -0.4698
  109OSM    H2G11272   1.593   0.825  10.554  1.6702  1.5271  0.3931
  109OSM    C3F11273   1.696   0.636  10.515 -0.0530  0.4469  0.2738
  109OSM    H3F11274   1.620   0.572  10.465  1.2094 -1.0548  0.1875
  109OSM    H3G11275   1.764   0.575  10.577 -0.8659 -1.0391 -0.2542
  109OSM    C4F11276   1.778   0.694  10.395 -0.1631 -0.6463 -0.0422
  109OSM    H4F11277   1.876   0.728  10.437 -0.3186 -1.5308  1.0860
  109OSM    H4G11278   1.731   0.792  10.372  1.5612  0.7800  2.0139
  109OSM    C5F11279   1.800   0.606  10.284  0.9101 -0.2001 -0.0206
  109OSM    H5F11280   1.706   0.591  10.226  1.2246 -2.5334 -0.0183
  109OSM    H5G11281   1.824   0.503  10.317 -0.2413 -0.5155 -0.1332
  109OSM    C6F11282   1.894   0.654  10.171 -0.1259  0.4761  0.2342
  109OSM    H6F11283   1.993   0.656  10.220 -0.5690  0.5444  1.1486
  109OSM    H6G11284   1.875   0.762  10.152 -1.2026  0.3813  0.7238
  109OSM    C7F11285   1.880   0.578  10.038  0.4694 -0.0899 -0.1872
  109OSM    H7F11286   1.773   0.571  10.010  0.5749 -2.0504 -0.2301
  109OSM    H7G11287   1.903   0.471  10.057 -0.7740 -0.2556  0.5243
  109OSM    C8F11288   1.971   0.618   9.923 -0.4540 -0.3181  0.3359
  109OSM    H8F11289   1.934   0.553   9.841  0.8563 -0.8019  0.0926
  109OSM    H8G11290   2.078   0.596   9.947 -0.4736 -0.1948  0.5421
  109OSM    C9F11291   1.964   0.760   9.874 -0.0203  1.1098 -0.6573
  109OSM    H9F11292   1.926   0.839   9.940 -0.2184 -0.7222  1.5326
  109OSM   C10F11293   2.005   0.795   9.749 -0.9087 -0.7213 -0.2322
  109OSM   H10F11294   2.015   0.903   9.734  1.8389 -0.6626  1.3036
  109OSM   C11F11295   2.051   0.707   9.639 -0.0860 -0.1530 -0.2073
  109OSM   H11F11296   2.058   0.605   9.685  1.4628  0.0431  0.0468
  109OSM   H11G11297   2.150   0.734   9.596 -0.0200 -0.2743 -0.1343
  109OSM   C12F11298   1.949   0.694   9.528  0.1555  0.0642  1.2428
  109OSM   H12F11299   1.910   0.794   9.501 -2.3440 -1.1282  0.0948
  109OSM   H12G11300   1.877   0.622   9.573 -0.0849  0.7222  1.9433
  109OSM   C13F11301   2.017   0.640   9.398  0.2606  0.4169 -0.5594
  109OSM   H13F11302   2.050   0.535   9.413 -1.3791 -0.1027 -0.3132
  109OSM   H13G11303   2.099   0.708   9.368 -0.4626  1.6483  0.1469
  109OSM   C14F11304   1.919   0.641   9.280  0.3390  0.4284  0.0587
  109OSM   H14F11305   1.889   0.744   9.255 -1.2070  0.0913  0.4627
  109OSM   H14G11306   1.828   0.586   9.310 -1.1932  3.0944  0.5248
  109OSM   C15F11307   1.982   0.587   9.148  0.0758 -0.6347  0.0694
  109OSM   H15F11308   2.017   0.482   9.161  1.6496 -0.2437 -0.6942
  109OSM   H15G11309   2.076   0.641   9.123 -0.9680  0.9765 -0.4863
  109OSM   C16F11310   1.896   0.592   9.023  0.3743  0.5202  0.5083
  109OSM   H16F11311   1.912   0.689   8.972  1.8124 -1.3736 -2.9534
  109OSM   H16G11312   1.787   0.587   9.047  0.0127 -0.6214 -1.1812
  109OSM   C17F11313   1.920   0.473   8.927 -0.0680 -0.0504 -0.2465
  109OSM   H17F11314   1.826   0.457   8.870  2.4202 -2.2511 -4.2272
  109OSM   H17G11315   1.944   0.386   8.991 -1.0635  1.2195  1.9864
  109OSM   C18F11316   2.031   0.496   8.828  0.0267 -0.1740 -0.0763
  109OSM   H18F11317   2.120   0.494   8.894  0.3164 -0.3772 -0.4690
  109OSM   H18G11318   2.009   0.592   8.775  1.6660 -0.5531 -1.5327
  109OSM   H18H11319   2.043   0.418   8.750 -3.2340  0.6851 -1.6335
  110OSM      N11320   4.519   4.350  11.012  0.0513  0.0622 -0.0840
  110OSM    C1511321   4.628   4.252  11.023 -0.0314 -0.4446  0.0424
  110OSM   H15A11322   4.597   4.152  10.995  1.7103 -1.2705  0.8977
  110OSM   H15B11323   4.681   4.264  11.116 -0.0625 -0.3249  0.0443
  110OSM   H15C11324   4.702   4.273  10.948 -0.5314 -1.6432 -0.8320
  110OSM    C1411325   4.407   4.297  11.101  0.3178  0.8199  0.3615
  110OSM   H14A11326   4.438   4.290  11.204  1.4454  1.2284  0.0675
  110OSM   H14B11327   4.378   4.197  11.072 -1.8462  1.0653  1.4595
  110OSM   H14C11328   4.324   4.361  11.079 -0.6341 -0.5602 -0.2388
  110OSM    C1311329   4.564   4.477  11.072 -0.6813  0.2373 -0.9014
  110OSM   H13A11330   4.547   4.476  11.178  1.2625  0.5483 -0.5580
  110OSM   H13B11331   4.518   4.560  11.020  0.4751 -0.0448 -2.4466
  110OSM   H13C11332   4.669   4.499  11.063 -0.3805 -1.4643 -2.0237
  110OSM    C1211333   4.474   4.365  10.866 -0.7904 -0.3987  0.5227
  110OSM   H12A11334   4.465   4.265  10.826  2.2200 -0.5168 -0.0923
  110OSM   H12B11335   4.561   4.406  10.819  1.4796 -2.9486  2.2028
  110OSM    C1111336   4.363   4.462  10.824 -0.1351 -0.1036  0.1324
  110OSM   H11A11337   4.271   4.413  10.863  0.2914 -0.9690  0.0790
  110OSM   H11B11338   4.343   4.448  10.716  0.0454  0.7797 -0.0196
  110OSM      P11339   4.265   4.673  10.931  0.2286  0.1783 -0.1654
  110OSM    O1311340   4.188   4.585  11.027  0.1263  0.0549 -0.0015
  110OSM    O1411341   4.322   4.797  10.993  0.3834  0.0455  0.3881
  110OSM    O1111342   4.168   4.706  10.809 -0.1001 -0.4144 -0.4252
  110OSM    O1211343   4.386   4.595  10.867  0.3198  0.3293  0.7732
  110OSM    C1S11344   4.210   4.793  10.704 -1.1627 -0.7779  0.6732
  110OSM    H1S11345   4.295   4.756  10.643  0.7354  0.6263  2.3335
  110OSM    H1T11346   4.260   4.884  10.742  2.4523 -1.1915 -2.4466
  110OSM     NF11347   4.131   4.915  10.511  0.1236  0.7849  0.9642
  110OSM    HNF11348   4.144   5.012  10.529  1.7129  0.6742  0.5661
  110OSM    C2S11349   4.087   4.841  10.625  0.6131  0.5062  0.4582
  110OSM    H2S11350   4.031   4.754  10.584 -1.3615  2.8231 -2.1959
  110OSM    C3S11351   3.998   4.920  10.722 -0.4059 -1.2232  0.6356
  110OSM    H3S11352   4.053   5.011  10.755  0.5361 -0.8679 -1.6849
  110OSM     O311353   3.948   4.858  10.836  0.4159 -0.3691  0.3057
  110OSM    HO311354   4.012   4.791  10.863  0.2569 -1.5431 -1.9685
  110OSM    C4S11355   3.869   4.962  10.650  0.2633  0.1567  0.3095
  110OSM    H4S11356   3.802   4.881  10.615  0.2312 -0.3236  1.4419
  110OSM    C5S11357   3.847   5.085  10.607  0.1244  1.0497  0.7014
  110OSM    H5S11358   3.924   5.163  10.618  0.6559  0.1850  4.3968
  110OSM    C6S11359   3.710   5.109  10.544  0.0562 -0.0468 -0.2096
  110OSM    H6S11360   3.659   5.202  10.578 -2.0915 -1.2863  0.1722
  110OSM    H6T11361   3.637   5.026  10.560  0.5602 -1.2865 -3.5084
  110OSM    C7S11362   3.721   5.117  10.382 -0.0540  0.6091  0.0836
  110OSM    H7S11363   3.784   5.203  10.348  1.9547 -0.8278 -0.0249
  110OSM    H7T11364   3.618   5.138  10.346 -0.5656 -2.7738 -0.7461
  110OSM    C8S11365   3.742   4.985  10.308 -0.0611 -0.6005 -0.5394
  110OSM    H8S11366   3.712   4.903  10.376  1.8252 -2.0621 -1.3670
  110OSM    H8T11367   3.851   4.967  10.295  0.7488  2.1564  1.4312
  110OSM    C9S11368   3.666   4.976  10.174  0.1708  0.1425 -0.2840
  110OSM    H9S11369   3.694   5.051  10.096  1.1622 -1.1953 -1.2708
  110OSM    H9T11370   3.558   4.974  10.201  0.5321 -1.2102  1.2432
  110OSM   C10S11371   3.698   4.840  10.104 -0.0839 -0.1430  0.5324
  110OSM   H10S11372   3.676   4.756  10.173 -2.3267 -1.5012 -1.6647
  110OSM   H10T11373   3.806   4.843  10.077 -0.3288  0.8465 -0.3785
  110OSM   C11S11374   3.610   4.825   9.980 -0.1605 -1.0532  0.0089
  110OSM   H11S11375   3.622   4.907   9.906 -2.6814 -0.3299  0.3016
  110OSM   H11T11376   3.508   4.840  10.022 -0.2296  1.2685 -0.8710
  110OSM   C12S11377   3.605   4.683   9.912  0.4920 -0.0828  0.6662
  110OSM   H12S11378   3.500   4.665   9.882 -0.1390  4.1729 -0.3183
  110OSM   H12T11379   3.634   4.607   9.987  0.0809  0.6334  1.5638
  110OSM   C13S11380   3.692   4.677   9.789  0.4612 -0.5409  0.2816
  110OSM   H13S11381   3.799   4.695   9.815  0.3679  1.2441 -0.4252
  110OSM   H13T11382   3.659   4.749   9.712  1.2888 -0.9040 -0.4334
  110OSM   C14S11383   3.674   4.547   9.708 -0.4304 -0.0579 -0.3313
  110OSM   H14S11384   3.570   4.509   9.715 -0.3627 -0.1966 -0.0733
  110OSM   H14T11385   3.730   4.469   9.763 -0.4654  0.4961  0.5126
  110OSM   C15S11386   3.716   4.544   9.563  0.9651 -0.0977  0.7375
  110OSM   H15S11387   3.824   4.567   9.550  1.1718 -1.4051 -0.0165
  110OSM   H15T11388   3.658   4.620   9.507  1.2605 -1.7793 -2.0097
  110OSM   C16S11389   3.688   4.411   9.493  0.0341 -0.4479 -0.3701
  110OSM   H16S11390   3.578   4.403   9.500 -0.0701  0.7213 -0.5034
  110OSM   H16T11391   3.744   4.327   9.540  3.6272  2.1827  0.4982
  110OSM   C17S11392   3.724   4.404   9.340 -0.0997 -0.4018 -0.1626
  110OSM   H17S11393   3.720   4.296   9.315  0.6806 -1.0479  2.2017
  110OSM   H17T11394   3.832   4.429   9.333 -0.0888 -0.6033 -0.7517
  110OSM   C18S11395   3.654   4.482   9.236 -0.1477 -0.8311 -0.0397
  110OSM   H18S11396   3.665   4.445   9.132 -2.7780 -1.8532 -0.0083
  110OSM   H18T11397   3.689   4.588   9.240  0.8054 -1.1650  1.0169
  110OSM   H18U11398   3.546   4.474   9.258 -0.5679  1.7685 -0.8643
  110OSM    C1F11399   4.197   4.852  10.412 -1.0179 -0.2394 -0.2809
  110OSM     OF11400   4.207   4.725  10.413  0.2015  0.9731 -0.0550
  110OSM    C2F11401   4.255   4.943  10.302  0.3529  0.1808 -0.3359
  110OSM    H2F11402   4.316   4.878  10.235 -0.2764 -0.8482  0.0668
  110OSM    H2G11403   4.319   5.024  10.343  2.2279 -1.1792 -0.4454
  110OSM    C3F11404   4.144   5.016  10.221 -0.0942 -1.0580  0.2073
  110OSM    H3F11405   4.088   5.085  10.288  0.7804  1.0300 -1.0892
  110OSM    H3G11406   4.073   4.948  10.171 -1.9981  1.5980 -0.9583
  110OSM    C4F11407   4.199   5.113  10.113 -0.4087  0.4993  0.3274
  110OSM    H4F11408   4.265   5.061  10.040 -0.1845  0.7659  0.3348
  110OSM    H4G11409   4.267   5.192  10.153  0.2264 -0.8404  2.0513
  110OSM    C5F11410   4.090   5.190  10.042 -0.8924  0.3506  0.3262
  110OSM    H5F11411   4.152   5.245   9.968  1.7436 -1.3551  1.0821
  110OSM    H5G11412   4.034   5.271  10.093 -0.4878  1.3529 -0.7655
  110OSM    C6F11413   3.996   5.106   9.955 -0.4881 -0.5466 -0.0467
  110OSM    H6F11414   3.934   5.047  10.026  0.4256 -2.4584 -0.7639
  110OSM    H6G11415   4.062   5.028   9.910  0.1977  0.3185 -0.5573
  110OSM    C7F11416   3.924   5.188   9.855 -0.8281  0.3553  0.0108
  110OSM    H7F11417   4.009   5.230   9.797  0.3153  1.1142  2.1265
  110OSM    H7G11418   3.865   5.274   9.893 -1.0276  0.5866 -0.7997
  110OSM    C8F11419   3.838   5.101   9.758  0.3917  0.3708  0.4958
  110OSM    H8F11420   3.755   5.054   9.815  2.8752 -2.7227  1.8750
  110OSM    H8G11421   3.898   5.013   9.726 -0.6755 -0.5301  0.8878
  110OSM    C9F11422   3.785   5.185   9.645 -0.1911 -0.1021 -0.1228
  110OSM    H9F11423   3.783   5.292   9.668 -1.5078 -0.1786  0.2072
  110OSM   C10F11424   3.747   5.134   9.527  0.0327  0.2406 -0.2602
  110OSM   H10F11425   3.701   5.200   9.452 -0.2952 -0.8644 -1.0566
  110OSM   C11F11426   3.759   5.000   9.465 -0.2165 -0.0546 -0.2505
  110OSM   H11F11427   3.662   4.949   9.478  0.3658 -1.0338  0.3456
  110OSM   H11G11428   3.838   4.941   9.517 -0.1060  0.7487  0.5166
  110OSM   C12F11429   3.782   5.002   9.311  0.2167 -0.3893 -0.0340
  110OSM   H12F11430   3.704   5.066   9.264  0.3253  0.1543  0.5156
  110OSM   H12G11431   3.775   4.901   9.264  1.3738 -1.0124  1.0628
  110OSM   C13F11432   3.920   5.060   9.267  0.6522  0.8538 -0.6889
  110OSM   H13F11433   4.000   5.000   9.315 -1.5627 -0.4383  1.6643
  110OSM   H13G11434   3.933   5.154   9.325 -0.0639  0.3098  0.3951
  110OSM   C14F11435   3.932   5.092   9.117 -0.3338  0.2591 -0.1416
  110OSM   H14F11436   3.862   5.175   9.092  0.1160  1.2674  1.7112
  110OSM   H14G11437   3.907   4.999   9.062  0.0585  0.9759 -1.5655
  110OSM   C15F11438   4.080   5.131   9.084 -0.1030 -0.3186 -0.6675
  110OSM   H15F11439   4.076   5.126   8.973  1.4902 -2.6653 -0.6923
  110OSM   H15G11440   4.155   5.053   9.110 -0.0567  0.4166  1.6016
  110OSM   C16F11441   4.110   5.273   9.141  0.3572  0.3457  0.3224
  110OSM   H16F11442   4.105   5.272   9.252 -2.5239 -0.2094  0.2463
  110OSM   H16G11443   4.035   5.335   9.088  0.3536 -2.0102 -2.7488
  110OSM   C17F11444   4.246   5.322   9.098 -0.8925 -1.1906 -0.0678
  110OSM   H17F11445   4.320   5.270   9.163 -0.5298  1.5875  1.9183
  110OSM   H17G11446   4.254   5.429   9.125  1.3140 -1.3624  0.1701
  110OSM   C18F11447   4.281   5.297   8.954  0.2654  0.1995  0.6382
  110OSM   H18F11448   4.310   5.190   8.945  2.0896  0.6874  0.3887
  110OSM   H18G11449   4.374   5.352   8.927 -1.6896  3.4171 -0.1717
  110OSM   H18H11450   4.196   5.324   8.888  1.1878  0.8264 -0.3387
  111OSM      N11451   4.324   1.840  10.976 -0.3104  0.7562  0.5645
  111OSM    C1511452   4.411   1.715  10.975  0.5654 -0.0624  0.2421
  111OSM   H15A11453   4.487   1.723  11.051  0.0495 -0.6871  0.8316
  111OSM   H15B11454   4.447   1.693  10.875 -0.7348 -1.2618  0.0082
  111OSM   H15C11455   4.351   1.627  10.993 -1.2163  0.7414 -1.5186
  111OSM    C1411456   4.200   1.801  10.899  0.7919  0.3677  0.3816
  111OSM   H14A11457   4.143   1.889  10.870  2.2307  1.0565 -0.5081
  111OSM   H14B11458   4.144   1.720  10.941 -0.6600  0.3486 -1.4869
  111OSM   H14C11459   4.232   1.772  10.800 -0.7447  1.1305 -0.3689
  111OSM    C1311460   4.293   1.864  11.117  0.3562  0.3368 -0.1524
  111OSM   H13A11461   4.236   1.954  11.138  1.3489  0.7437  0.8492
  111OSM   H13B11462   4.385   1.854  11.172 -1.0580 -0.4125  2.1912
  111OSM   H13C11463   4.245   1.773  11.150  1.4603 -1.5682 -3.3456
  111OSM    C1211464   4.411   1.950  10.921 -0.2812 -0.4125 -0.0665
  111OSM   H12A11465   4.439   1.925  10.819 -0.6163  3.6873 -1.3475
  111OSM   H12B11466   4.504   1.964  10.975 -0.5483  1.7389 -0.0859
  111OSM    C1111467   4.356   2.096  10.908  0.3491  0.3621  0.9724
  111OSM   H11A11468   4.438   2.153  10.861  0.1257  0.6248  0.8956
  111OSM   H11B11469   4.340   2.146  11.006  1.3756 -0.0515  1.3552
  111OSM      P11470   4.105   2.169  10.834  0.0007 -0.2207 -0.1291
  111OSM    O1311471   4.001   2.090  10.763  0.3216 -0.2345  0.4185
  111OSM    O1411472   4.080   2.188  10.976  0.0393 -0.5299  0.6933
  111OSM    O1111473   4.128   2.306  10.773  0.1263 -0.3510 -0.4461
  111OSM    O1211474   4.240   2.089  10.821 -0.1537  0.3525  0.3819
  111OSM    C1S11475   4.213   2.343  10.672  0.0878  0.0379  0.1629
  111OSM    H1S11476   4.291   2.266  10.658  1.3524  1.3063 -0.0357
  111OSM    H1T11477   4.271   2.435  10.695  0.1207 -0.5660  2.7068
  111OSM     NF11478   4.218   2.360  10.426 -0.2224  0.1103  1.2355
  111OSM    HNF11479   4.269   2.444  10.409 -0.1609 -0.3933 -1.6202
  111OSM    C2S11480   4.127   2.363  10.544  0.2100 -0.0772 -0.2416
  111OSM    H2S11481   4.054   2.279  10.539 -0.6988  0.6937 -0.1803
  111OSM    C3S11482   4.043   2.486  10.558  0.2756 -0.4791  0.2165
  111OSM    H3S11483   4.112   2.568  10.588  1.1127 -1.3814  0.8177
  111OSM     O311484   3.952   2.480  10.672  0.7367  0.5822  0.6613
  111OSM    HO311485   4.016   2.447  10.736 -0.1444 -2.3833  0.1722
  111OSM    C4S11486   3.972   2.522  10.422 -0.0664  0.3991  0.6344
  111OSM    H4S11487   3.886   2.460  10.391  0.0312  0.1442  0.8673
  111OSM    C5S11488   3.997   2.631  10.346  0.5792  0.1856 -0.3386
  111OSM    H5S11489   4.071   2.705  10.377  1.2182  0.2236 -1.9091
  111OSM    C6S11490   3.920   2.656  10.220 -0.0363 -0.6480  0.3387
  111OSM    H6S11491   3.872   2.756  10.215  0.1028 -0.6131 -0.5972
  111OSM    H6T11492   3.835   2.588  10.199 -2.0789  2.3559 -2.0277
  111OSM    C7S11493   4.017   2.649  10.099  0.4933 -0.6622  0.0536
  111OSM    H7S11494   4.079   2.740  10.109  0.6530 -0.9597  2.1405
  111OSM    H7T11495   3.967   2.658  10.000  2.8572 -0.6637 -1.2097
  111OSM    C8S11496   4.100   2.522  10.090 -0.8943  0.3582 -0.9606
  111OSM    H8S11497   4.030   2.445  10.130  0.3149 -0.7785 -0.9575
  111OSM    H8T11498   4.185   2.515  10.162 -0.3373 -3.7523 -1.7427
  111OSM    C9S11499   4.159   2.489   9.953  0.3991  0.3255 -0.4233
  111OSM    H9S11500   4.223   2.401   9.974  0.1443  0.0157 -0.9287
  111OSM    H9T11501   4.229   2.573   9.932  2.1746 -0.0667  3.1265
  111OSM   C10S11502   4.057   2.459   9.843  0.6649  0.0115  0.5238
  111OSM   H10S11503   3.988   2.543   9.822 -0.7595 -1.6958 -2.0527
  111OSM   H10T11504   3.993   2.371   9.864 -0.8659  0.4428 -1.9656
  111OSM   C11S11505   4.122   2.438   9.699  0.9342 -0.4476 -0.3950
  111OSM   H11S11506   4.199   2.358   9.703  2.0199  0.5384 -0.9447
  111OSM   H11T11507   4.185   2.527   9.677  2.6458 -2.5010 -5.0187
  111OSM   C12S11508   4.023   2.419   9.585 -0.1138 -0.3361  0.1729
  111OSM   H12S11509   3.948   2.500   9.596  0.2101 -0.3470  3.3220
  111OSM   H12T11510   3.976   2.319   9.597  0.7571 -0.5908  1.7289
  111OSM   C13S11511   4.104   2.423   9.453  0.0504  0.5456 -0.2857
  111OSM   H13S11512   4.178   2.340   9.457 -2.0233 -1.3335  3.0904
  111OSM   H13T11513   4.164   2.516   9.460  1.6433 -0.5820  2.7736
  111OSM   C14S11514   4.006   2.422   9.335  0.4994 -0.4150  0.3139
  111OSM   H14S11515   3.955   2.521   9.329 -2.0945 -1.7062 -0.1971
  111OSM   H14T11516   3.929   2.343   9.345 -0.0712 -0.0232 -0.8283
  111OSM   C15S11517   4.072   2.374   9.204  0.3119 -0.2031 -0.1784
  111OSM   H15S11518   4.106   2.270   9.227  1.3247 -0.7316 -3.4869
  111OSM   H15T11519   4.157   2.439   9.175  0.2700 -1.0702 -2.4121
  111OSM   C16S11520   3.974   2.362   9.082 -0.8641  0.5010 -0.0640
  111OSM   H16S11521   3.909   2.452   9.084  0.6170  1.6203  2.4361
  111OSM   H16T11522   3.911   2.271   9.097  1.1203 -1.0421 -0.7027
  111OSM   C17S11523   4.048   2.342   8.945  0.3974  0.4863 -0.0311
  111OSM   H17S11524   4.105   2.436   8.924  0.7301  0.4871  0.8285
  111OSM   H17T11525   3.975   2.328   8.863 -2.3471  0.0586  2.3146
  111OSM   C18S11526   4.133   2.218   8.943 -0.5072 -0.0884 -0.0417
  111OSM   H18S11527   4.180   2.208   8.843  0.6661  0.9427  0.3692
  111OSM   H18T11528   4.080   2.127   8.977 -0.2632  0.0747  0.8185
  111OSM   H18U11529   4.224   2.232   9.005  0.0101  0.3495 -0.8860
  111OSM    C1F11530   4.272   2.247  10.387 -0.8495  0.1291 -0.9022
  111OSM     OF11531   4.239   2.143  10.449 -0.4653 -0.8512  0.1689
  111OSM    C2F11532   4.382   2.254  10.292 -0.4375 -0.4201  0.1345
  111OSM    H2F11533   4.461   2.320  10.335  0.5149  0.2064 -2.3770
  111OSM    H2G11534   4.340   2.306  10.203  2.3675  2.0940  0.1084
  111OSM    C3F11535   4.438   2.113  10.249  0.3201  0.5779  0.5154
  111OSM    H3F11536   4.367   2.049  10.192  0.0303  1.9644 -0.7431
  111OSM    H3G11537   4.469   2.063  10.343  0.1050  1.3112  0.9837
  111OSM    C4F11538   4.558   2.135  10.161  0.1695 -0.8445  0.7087
  111OSM    H4F11539   4.610   2.039  10.143 -1.4541 -1.6741  0.2686
  111OSM    H4G11540   4.631   2.204  10.209 -1.1992  0.0109  1.6425
  111OSM    C5F11541   4.536   2.190  10.020  1.2448  0.4768 -0.4219
  111OSM    H5F11542   4.629   2.217   9.964  0.9719 -0.8166 -1.5499
  111OSM    H5G11543   4.480   2.286  10.020  0.6335  0.1425  1.0514
  111OSM    C6F11544   4.459   2.094   9.929  0.3090 -0.0493 -0.6528
  111OSM    H6F11545   4.369   2.055   9.980 -1.5413 -0.2727 -3.8133
  111OSM    H6G11546   4.525   2.006   9.917 -0.1331 -0.2881 -1.3787
  111OSM    C7F11547   4.421   2.150   9.797  0.1603  0.4135 -0.1058
  111OSM    H7F11548   4.509   2.182   9.736 -0.4587  2.7130  0.1209
  111OSM    H7G11549   4.356   2.240   9.807 -0.6035  0.1100 -1.9757
  111OSM    C8F11550   4.347   2.049   9.705  0.2616 -0.9380  0.9451
  111OSM    H8F11551   4.256   2.029   9.765  0.5237 -1.3949  1.2004
  111OSM    H8G11552   4.408   1.956   9.702 -1.6224 -2.2094  0.2911
  111OSM    C9F11553   4.327   2.114   9.571 -0.0324 -0.0281  0.1449
  111OSM    H9F11554   4.346   2.222   9.575  0.6344 -0.1811  1.7363
  111OSM   C10F11555   4.286   2.044   9.464 -0.1087 -0.0698 -0.2434
  111OSM   H10F11556   4.263   2.105   9.375  1.4636  2.4279  0.9653
  111OSM   C11F11557   4.260   1.895   9.456  0.0168 -0.1680  0.6090
  111OSM   H11F11558   4.171   1.866   9.516  1.2234 -1.8629  1.6926
  111OSM   H11G11559   4.342   1.836   9.502 -0.7933 -2.8867 -1.2421
  111OSM   C12F11560   4.245   1.842   9.308 -0.0800  0.1192  0.0450
  111OSM   H12F11561   4.328   1.877   9.244 -0.1042  1.2400  0.6047
  111OSM   H12G11562   4.154   1.875   9.253  0.6766  0.0799 -1.2627
  111OSM   C13F11563   4.244   1.692   9.296  0.4197  0.9250 -0.2813
  111OSM   H13F11564   4.174   1.653   9.373  3.5094 -0.9196  1.8549
  111OSM   H13G11565   4.345   1.664   9.332  1.4490 -0.0500 -3.5785
  111OSM   C14F11566   4.230   1.625   9.159  0.8661  0.1346  0.6034
  111OSM   H14F11567   4.320   1.647   9.098  0.8568 -1.0366  0.1496
  111OSM   H14G11568   4.154   1.665   9.089  0.5154 -1.3302  0.1369
  111OSM   C15F11569   4.205   1.479   9.170  0.0321  0.0446 -0.4218
  111OSM   H15F11570   4.123   1.467   9.244 -1.4286 -1.9486 -2.2154
  111OSM   H15G11571   4.296   1.432   9.214  0.0973  0.9194  0.4113
  111OSM   C16F11572   4.166   1.428   9.030  0.2785  0.0155 -0.2835
  111OSM   H16F11573   4.263   1.393   8.986  0.2139 -0.8912  0.2606
  111OSM   H16G11574   4.116   1.508   8.972 -0.1977 -0.3867 -0.4278
  111OSM   C17F11575   4.078   1.298   9.040 -0.7452 -0.0281  0.8307
  111OSM   H17F11576   3.989   1.328   9.100 -1.6388  1.5349 -1.1688
  111OSM   H17G11577   4.145   1.228   9.094  0.3211  0.3244 -0.0123
  111OSM   C18F11578   4.042   1.239   8.906 -0.5395  0.2242  0.4815
  111OSM   H18F11579   4.123   1.228   8.831 -1.3556  0.7128 -0.4943
  111OSM   H18G11580   3.971   1.306   8.851  0.7316 -1.1139 -3.0653
  111OSM   H18H11581   3.994   1.139   8.913 -2.8178  1.1335 -0.7536
  112OSM      N11582   5.755   6.188  11.084  0.1806 -0.2736 -0.0123
  112OSM    C1511583   5.891   6.213  11.146 -0.0497 -0.1974 -0.4679
  112OSM   H15A11584   5.879   6.244  11.249 -0.0782  2.6119 -1.2304
  112OSM   H15B11585   5.941   6.287  11.087 -1.3048  0.1973 -1.0637
  112OSM   H15C11586   5.948   6.121  11.140 -1.9677 -1.3686 -1.8959
  112OSM    C1411587   5.772   6.165  10.936 -0.5044  0.3074 -0.3613
  112OSM   H14A11588   5.826   6.252  10.901 -0.2618  0.6131  0.7429
  112OSM   H14B11589   5.678   6.148  10.885 -1.2681  1.0913  0.7287
  112OSM   H14C11590   5.830   6.076  10.913 -0.6573 -0.2797  1.3352
  112OSM    C1311591   5.709   6.059  11.147 -0.0849  0.5247  0.3551
  112OSM   H13A11592   5.771   5.977  11.114  1.1289  0.9482  1.5074
  112OSM   H13B11593   5.605   6.038  11.126  0.6861 -1.6522 -1.7414
  112OSM   H13C11594   5.718   6.049  11.254  0.3613  0.4317  0.3103
  112OSM    C1211595   5.651   6.295  11.120  0.5417 -0.1775 -0.3236
  112OSM   H12A11596   5.690   6.394  11.137 -1.2618  0.6797 -0.9579
  112OSM   H12B11597   5.612   6.271  11.217 -0.8171 -1.5988 -1.1888
  112OSM    C1111598   5.530   6.317  11.024 -0.1937 -0.1309  0.1656
  112OSM   H11A11599   5.564   6.347  10.923  0.6228  0.9996  0.7523
  112OSM   H11B11600   5.470   6.404  11.059  1.1172 -0.3397  3.2181
  112OSM      P11601   5.357   6.140  11.091  0.3713  0.3577 -0.3954
  112OSM    O1311602   5.314   6.003  11.049 -0.6630  0.0644  0.4101
  112OSM    O1411603   5.398   6.155  11.233 -0.2485  0.3481  0.6693
  112OSM    O1111604   5.241   6.241  11.061  0.8366  0.2601 -0.4093
  112OSM    O1211605   5.463   6.195  10.995  0.2563  0.2576 -0.1023
  112OSM    C1S11606   5.204   6.267  10.920 -0.9427  0.5048 -0.8202
  112OSM    H1S11607   5.294   6.277  10.856 -0.5607  1.8424 -0.1129
  112OSM    H1T11608   5.147   6.363  10.917  0.5808  1.4405 -3.6623
  112OSM     NF11609   5.087   6.185  10.718 -0.1248  0.4494  0.0900
  112OSM    HNF11610   5.014   6.250  10.696 -0.6802 -0.8686 -2.2813
  112OSM    C2S11611   5.117   6.159  10.861  0.5705  0.1447 -0.4977
  112OSM    H2S11612   5.168   6.063  10.884  2.3572  0.3500 -3.1439
  112OSM    C3S11613   4.985   6.151  10.937 -0.5427 -0.0483  0.4862
  112OSM    H3S11614   4.929   6.246  10.936  0.7927  0.7565  0.3137
  112OSM     O311615   4.998   6.125  11.077 -0.4373 -0.3969 -0.0242
  112OSM    HO311616   5.090   6.146  11.095 -0.2645 -1.8568  0.9160
  112OSM    C4S11617   4.903   6.035  10.876 -0.4923 -0.0752  0.3597
  112OSM    H4S11618   4.952   5.936  10.871  1.3213  0.8157 -0.3916
  112OSM    C5S11619   4.779   6.037  10.833  0.8412 -0.3234  0.2901
  112OSM    H5S11620   4.723   6.132  10.829  1.0920 -0.2127 -0.9936
  112OSM    C6S11621   4.711   5.916  10.774  0.6207 -0.0570  0.0442
  112OSM    H6S11622   4.612   5.943  10.730  1.3456 -1.7378 -2.9023
  112OSM    H6T11623   4.685   5.842  10.853  0.1809 -0.0297 -0.0680
  112OSM    C7S11624   4.774   5.843  10.658  0.5977 -0.0159  0.0764
  112OSM    H7S11625   4.720   5.748  10.641  0.2641  0.3275 -0.8267
  112OSM    H7T11626   4.882   5.829  10.681  0.8800  2.9342  1.0078
  112OSM    C8S11627   4.774   5.939  10.542  0.0369  0.4911 -0.0974
  112OSM    H8S11628   4.832   6.033  10.554  0.4965  0.4291 -1.6148
  112OSM    H8T11629   4.674   5.963  10.498  0.5507  0.8042 -1.1332
  112OSM    C9S11630   4.831   5.860  10.429 -0.0396  0.9191  0.4826
  112OSM    H9S11631   4.758   5.782  10.396  1.5607 -0.7315  0.6840
  112OSM    H9T11632   4.924   5.806  10.458  0.0430  1.2301  0.8105
  112OSM   C10S11633   4.877   5.937  10.306  0.4792 -0.1332 -0.1695
  112OSM   H10S11634   4.983   5.911  10.283  0.1768 -1.2016 -0.4029
  112OSM   H10T11635   4.869   6.047  10.318 -0.6502 -0.1774 -0.3997
  112OSM   C11S11636   4.799   5.906  10.179  0.3621  0.4356 -0.2766
  112OSM   H11S11637   4.692   5.934  10.187  0.3618  0.3415  0.0280
  112OSM   H11T11638   4.798   5.796  10.162  1.6059 -0.1672  2.9517
  112OSM   C12S11639   4.852   5.982  10.049 -0.0763  0.1538  0.4602
  112OSM   H12S11640   4.959   5.954  10.039 -0.1509  0.0446 -0.0453
  112OSM   H12T11641   4.846   6.092  10.061  2.5408  0.5806 -1.3074
  112OSM   C13S11642   4.771   5.951   9.926 -0.5537 -0.0595  0.0523
  112OSM   H13S11643   4.672   6.000   9.937  0.3938  1.9192  0.1381
  112OSM   H13T11644   4.752   5.842   9.918  1.1652 -0.3430 -0.7094
  112OSM   C14S11645   4.834   5.998   9.795  0.1088  0.6047  0.4025
  112OSM   H14S11646   4.941   5.967   9.794 -0.1980 -0.4852  0.7233
  112OSM   H14T11647   4.830   6.109   9.787  2.3694  0.7430  0.4887
  112OSM   C15S11648   4.767   5.949   9.662 -0.3989  0.2186 -0.1294
  112OSM   H15S11649   4.663   5.986   9.676 -0.1775 -0.1215  3.2258
  112OSM   H15T11650   4.773   5.839   9.649 -1.9241  0.1959 -0.9159
  112OSM   C16S11651   4.826   6.018   9.536  0.6587 -0.5935 -0.6441
  112OSM   H16S11652   4.763   5.985   9.450 -1.1869  1.6166 -0.2667
  112OSM   H16T11653   4.933   6.005   9.511  0.9006  3.7277 -2.8877
  112OSM   C17S11654   4.799   6.168   9.524 -0.0756 -0.6527  0.3859
  112OSM   H17S11655   4.819   6.228   9.616  1.3066 -0.7821  0.1922
  112OSM   H17T11656   4.692   6.197   9.513  1.1521  4.3892 -1.1217
  112OSM   C18S11657   4.871   6.225   9.402 -0.3739  0.2223  0.4976
  112OSM   H18S11658   4.839   6.153   9.324 -1.3881  0.8846  0.2822
  112OSM   H18T11659   4.982   6.224   9.402 -0.1031 -4.6763 -2.5321
  112OSM   H18U11660   4.833   6.327   9.378  2.3302  0.9576 -1.1259
  112OSM    C1F11661   5.179   6.179  10.626 -0.2559  0.6155 -0.7633
  112OSM     OF11662   5.300   6.142  10.652 -0.3354  0.7674 -0.2050
  112OSM    C2F11663   5.134   6.220  10.493  0.0144 -0.7798  0.3300
  112OSM    H2F11664   5.149   6.329  10.478 -0.1166 -1.0901 -2.5371
  112OSM    H2G11665   5.023   6.220  10.485 -0.1132  1.6306  1.2631
  112OSM    C3F11666   5.201   6.155  10.374 -0.0106  0.8494  0.8989
  112OSM    H3F11667   5.173   6.048  10.365  0.8544  0.6415  0.5447
  112OSM    H3G11668   5.312   6.149  10.374 -0.0681 -0.7425 -0.0484
  112OSM    C4F11669   5.161   6.225  10.238  0.3821 -0.0860 -0.6343
  112OSM    H4F11670   5.223   6.317  10.235 -1.5759  1.5431  3.0867
  112OSM    H4G11671   5.052   6.242  10.238  0.4093  0.2217  1.2078
  112OSM    C5F11672   5.200   6.142  10.113  0.1773  0.3720 -0.3728
  112OSM    H5F11673   5.153   6.041  10.112 -1.3299  1.0475 -1.5763
  112OSM    H5G11674   5.310   6.126  10.122  0.2355  1.4996  1.5900
  112OSM    C6F11675   5.162   6.214   9.983  0.1978 -0.0421 -0.5233
  112OSM    H6F11676   5.182   6.323   9.994  0.1861 -0.2714  3.0200
  112OSM    H6G11677   5.052   6.210   9.974  0.1310 -2.0603  0.6535
  112OSM    C7F11678   5.229   6.160   9.853  0.5901 -0.5258 -0.0355
  112OSM    H7F11679   5.218   6.050   9.851  0.0506 -0.4790 -2.1912
  112OSM    H7G11680   5.335   6.189   9.838  0.5226 -0.2687 -0.0249
  112OSM    C8F11681   5.158   6.211   9.727 -0.0636 -0.0669 -0.5364
  112OSM    H8F11682   5.160   6.322   9.727 -0.4567 -0.0209 -2.6407
  112OSM    H8G11683   5.049   6.192   9.724  0.1985 -1.8180  0.1367
  112OSM    C9F11684   5.212   6.145   9.602 -0.9012 -1.1969  0.5787
  112OSM    H9F11685   5.193   6.037   9.600 -0.1417 -1.3408 -0.5925
  112OSM   C10F11686   5.264   6.205   9.493 -0.1841  0.4421  0.4342
  112OSM   H10F11687   5.315   6.143   9.418 -0.8868 -1.2903  1.3273
  112OSM   C11F11688   5.286   6.348   9.470  0.5390  0.2326  0.9655
  112OSM   H11F11689   5.374   6.370   9.534  2.2350 -1.7186 -0.5443
  112OSM   H11G11690   5.205   6.417   9.501 -0.8779  0.0262 -1.8676
  112OSM   C12F11691   5.327   6.395   9.330  0.2472  0.4353  0.7137
  112OSM   H12F11692   5.245   6.374   9.259 -1.2385 -2.7496  3.1432
  112OSM   H12G11693   5.405   6.326   9.291  0.3473  1.1899 -0.4883
  112OSM   C13F11694   5.383   6.538   9.316 -0.1193  0.0662 -0.0978
  112OSM   H13F11695   5.482   6.544   9.366 -0.0906  0.1910 -0.1669
  112OSM   H13G11696   5.319   6.617   9.362  2.3406  1.2568  1.4964
  112OSM   C14F11697   5.410   6.572   9.172 -0.3315  0.0215  0.4586
  112OSM   H14F11698   5.466   6.668   9.164  1.4802 -0.8963  1.5869
  112OSM   H14G11699   5.314   6.599   9.123 -0.6157  0.3959  1.1933
  112OSM   C15F11700   5.500   6.483   9.087 -0.1516  0.3493 -0.5188
  112OSM   H15F11701   5.465   6.379   9.073 -1.4622  0.9487 -2.1130
  112OSM   H15G11702   5.599   6.474   9.136  0.3797  0.7172 -1.5017
  112OSM   C16F11703   5.535   6.553   8.956 -0.2723 -0.0307  0.2501
  112OSM   H16F11704   5.581   6.652   8.976 -1.1151  0.1164  1.5679
  112OSM   H16G11705   5.439   6.573   8.905  1.1326  2.7578 -1.5562
  112OSM   C17F11706   5.613   6.470   8.857 -0.7824  0.0806  0.1737
  112OSM   H17F11707   5.554   6.380   8.830  0.2931 -0.7162  0.3877
  112OSM   H17G11708   5.713   6.435   8.890  0.3685  1.6309 -1.5226
  112OSM   C18F11709   5.638   6.549   8.727  0.6131  0.0587 -0.1592
  112OSM   H18F11710   5.631   6.658   8.745 -0.2851  0.2766 -1.6948
  112OSM   H18G11711   5.553   6.532   8.658 -0.5756  2.4968  0.6206
  112OSM   H18H11712   5.735   6.525   8.678  0.3030 -0.0095 -0.7455
  113OSM      N11713   1.843   4.776  11.161  0.2129 -0.7219 -0.1486
  113OSM    C1511714   1.843   4.683  11.278  0.1946  0.1290 -0.0782
  113OSM   H15A11715   1.740   4.655  11.292  0.2434 -0.4465 -0.8087
  113OSM   H15B11716   1.880   4.732  11.367 -0.2721 -3.0900  2.0473
  113OSM   H15C11717   1.897   4.590  11.266 -2.5506 -1.4039 -1.3225
  113OSM    C1411718   1.977   4.845  11.163 -0.0890  0.3769  0.2846
  113OSM   H14A11719   1.988   4.910  11.248 -1.2196 -0.5246  1.1615
  113OSM   H14B11720   1.982   4.918  11.084  2.5428  1.1543  1.0983
  113OSM   H14C11721   2.059   4.775  11.163 -1.0034 -0.7275  0.8119
  113OSM    C1311722   1.836   4.689  11.044 -0.1671  0.6093  0.6805
  113OSM   H13A11723   1.816   4.744  10.953 -0.4331  1.9506  1.5183
  113OSM   H13B11724   1.745   4.632  11.059 -1.8629  2.6410 -1.2005
  113OSM   H13C11725   1.925   4.628  11.040 -0.5725  0.0263  0.3432
  113OSM    C1211726   1.727   4.876  11.162 -0.8949 -0.1307  0.1719
  113OSM   H12A11727   1.741   4.947  11.081  1.3924 -1.2499 -0.5250
  113OSM   H12B11728   1.746   4.936  11.249  1.1853  1.3844 -1.2154
  113OSM    C1111729   1.582   4.827  11.172  0.4483 -0.8489 -0.1215
  113OSM   H11A11730   1.578   4.767  11.078  2.2729  0.0187 -0.7849
  113OSM   H11B11731   1.518   4.918  11.170  0.1077 -1.0915 -0.6296
  113OSM      P11732   1.427   4.663  11.292  0.3963  0.2493 -0.0586
  113OSM    O1311733   1.460   4.522  11.329 -0.2946 -0.2325  0.1381
  113OSM    O1411734   1.338   4.737  11.387 -0.3480  0.5564 -0.2696
  113OSM    O1111735   1.361   4.664  11.149 -0.3002  0.2197  0.4732
  113OSM    O1211736   1.562   4.745  11.283 -0.2107  0.1620 -0.5250
  113OSM    C1S11737   1.391   4.579  11.040  0.4158  0.0106 -0.6491
  113OSM    H1S11738   1.361   4.477  11.072  0.2394  0.7926  1.8694
  113OSM    H1T11739   1.501   4.573  11.028  0.5869 -2.1334  1.3304
  113OSM     NF11740   1.354   4.513  10.808 -0.0453 -0.2746  0.1772
  113OSM    HNF11741   1.430   4.540  10.748 -1.0813 -0.2899 -1.1894
  113OSM    C2S11742   1.318   4.614  10.901 -0.4392 -0.8513 -0.1136
  113OSM    H2S11743   1.207   4.616  10.912 -0.6879 -1.8792 -2.0120
  113OSM    C3S11744   1.365   4.756  10.866  0.3257  0.2753 -0.6385
  113OSM    H3S11745   1.475   4.773  10.871  0.0078  2.3033  0.8276
  113OSM     O311746   1.329   4.851  10.967  0.1604  0.1821  0.5307
  113OSM    HO311747   1.299   4.801  11.043  1.4053 -0.5406  0.5656
  113OSM    C4S11748   1.311   4.803  10.739  0.1143  0.3805  0.6993
  113OSM    H4S11749   1.205   4.829  10.725  0.4703  0.2250 -4.2955
  113OSM    C5S11750   1.387   4.815  10.629 -0.0648  0.1323 -0.3967
  113OSM    H5S11751   1.496   4.804  10.630  0.0304  0.8042 -1.3842
  113OSM    C6S11752   1.331   4.861  10.499  0.2798 -0.0794  0.0852
  113OSM    H6S11753   1.382   4.957  10.473 -0.3847  0.5408  1.0358
  113OSM    H6T11754   1.225   4.891  10.514 -0.8010 -1.9489 -2.9493
  113OSM    C7S11755   1.346   4.751  10.389 -0.1975  0.8994  0.4499
  113OSM    H7S11756   1.269   4.677  10.418  1.2105 -0.5435  0.6409
  113OSM    H7T11757   1.445   4.700  10.385 -0.5982  0.1354 -2.9281
  113OSM    C8S11758   1.315   4.808  10.250  0.5709  0.0361 -0.1653
  113OSM    H8S11759   1.379   4.899  10.242  0.1587  0.3551  0.0948
  113OSM    H8T11760   1.210   4.844  10.252 -0.2436 -2.0668 -1.8214
  113OSM    C9S11761   1.325   4.720  10.122  0.0774 -0.0980 -0.1568
  113OSM    H9S11762   1.264   4.627  10.126  2.4152 -1.7394 -0.3394
  113OSM    H9T11763   1.429   4.686  10.104 -0.3210  0.6052 -5.1007
  113OSM   C10S11764   1.285   4.808  10.001 -0.0314  0.4899 -0.8925
  113OSM   H10S11765   1.337   4.906   9.998  0.6250  0.3466  2.2872
  113OSM   H10T11766   1.179   4.839  10.020  0.1110 -0.7209  2.5956
  113OSM   C11S11767   1.289   4.731   9.868 -0.0787  0.1292 -0.1187
  113OSM   H11S11768   1.216   4.647   9.867  0.5896 -0.4801 -2.3031
  113OSM   H11T11769   1.388   4.683   9.859 -0.3439 -0.2427 -1.2665
  113OSM   C12S11770   1.264   4.819   9.743  0.2346  0.1461 -0.1656
  113OSM   H12S11771   1.345   4.890   9.720 -1.6796  2.2531 -0.7882
  113OSM   H12T11772   1.165   4.869   9.756 -0.3878 -1.1302  0.2303
  113OSM   C13S11773   1.251   4.736   9.616 -0.6367  0.2540  0.0837
  113OSM   H13S11774   1.151   4.688   9.610 -0.3045 -0.2558 -3.0315
  113OSM   H13T11775   1.332   4.662   9.630  1.2081  2.4193  1.6457
  113OSM   C14S11776   1.260   4.821   9.490  0.4098 -0.5389 -0.4653
  113OSM   H14S11777   1.256   4.747   9.407 -0.6104 -1.1147  0.0751
  113OSM   H14T11778   1.364   4.859   9.484  0.2172 -0.1117 -1.3534
  113OSM   C15S11779   1.159   4.932   9.477  0.2810 -0.2563  0.1959
  113OSM   H15S11780   1.174   5.005   9.559  0.0843 -1.5523  1.4300
  113OSM   H15T11781   1.056   4.894   9.495 -0.1231  0.4112 -0.6427
  113OSM   C16S11782   1.168   5.012   9.344  0.3872 -0.5398 -0.2485
  113OSM   H16S11783   1.266   5.064   9.342 -0.1676  0.5265 -0.4494
  113OSM   H16T11784   1.093   5.093   9.328 -0.3866 -1.4281 -1.3160
  113OSM   C17S11785   1.179   4.921   9.220  0.2516 -0.3873 -0.0452
  113OSM   H17S11786   1.265   4.853   9.238  0.2181 -0.3151  0.3837
  113OSM   H17T11787   1.206   4.986   9.134  2.2433  0.0977  0.8881
  113OSM   C18S11788   1.056   4.839   9.182  0.5887  0.1105 -1.0158
  113OSM   H18S11789   1.011   4.786   9.269  1.1766  1.1573 -0.0424
  113OSM   H18T11790   1.078   4.769   9.099 -1.1074  0.0598 -1.4534
  113OSM   H18U11791   0.984   4.915   9.144 -1.0711  0.1717  1.9533
  113OSM    C1F11792   1.313   4.387  10.817 -0.2501 -0.3449  1.1693
  113OSM     OF11793   1.236   4.357  10.903 -0.6906 -0.1127  0.0863
  113OSM    C2F11794   1.362   4.291  10.709 -0.1114 -0.8074  0.1217
  113OSM    H2F11795   1.372   4.191  10.756 -0.3701 -1.8859 -2.0096
  113OSM    H2G11796   1.459   4.326  10.666 -1.2973  1.6462 -0.7678
  113OSM    C3F11797   1.269   4.290  10.586  0.0120 -0.0989  0.3339
  113OSM    H3F11798   1.249   4.393  10.549  1.4333  0.4388  1.0154
  113OSM    H3G11799   1.169   4.255  10.620 -1.5103  2.1658 -1.4571
  113OSM    C4F11800   1.326   4.182  10.492 -0.5629  0.3976  0.4056
  113OSM    H4F11801   1.237   4.160  10.429 -1.4298  2.7817  0.6777
  113OSM    H4G11802   1.365   4.091  10.540  2.5297  0.8725 -0.9688
  113OSM    C5F11803   1.433   4.227  10.387 -0.2438 -0.1662 -0.2709
  113OSM    H5F11804   1.484   4.133  10.357 -0.5891 -0.2143 -0.7169
  113OSM    H5G11805   1.510   4.294  10.430  1.1897 -1.0302 -1.3767
  113OSM    C6F11806   1.374   4.299  10.261 -0.1572  0.8238 -0.3399
  113OSM    H6F11807   1.323   4.396  10.277  1.3859  1.8116 -1.2076
  113OSM    H6G11808   1.310   4.223  10.211  1.9937 -0.6863 -0.9165
  113OSM    C7F11809   1.489   4.343  10.173 -0.9951 -0.2473 -0.8182
  113OSM    H7F11810   1.577   4.275  10.162  1.3342  2.2872  0.9302
  113OSM    H7G11811   1.528   4.439  10.213 -1.5886  0.0573 -0.9732
  113OSM    C8F11812   1.441   4.382  10.031 -0.5831 -0.1188 -0.7966
  113OSM    H8F11813   1.517   4.441   9.975  0.1211 -0.5731 -0.3383
  113OSM    H8G11814   1.355   4.453  10.037  1.4002  2.6499 -2.5175
  113OSM    C9F11815   1.403   4.256   9.956  0.8144 -0.3156  0.0407
  113OSM    H9F11816   1.305   4.216   9.983  0.6233  0.1448  0.0448
  113OSM   C10F11817   1.465   4.206   9.847  0.1354 -0.3439  0.4217
  113OSM   H10F11818   1.424   4.114   9.802 -0.1116 -0.6434  1.2483
  113OSM   C11F11819   1.589   4.242   9.781  0.1365  0.0752 -0.4807
  113OSM   H11F11820   1.659   4.156   9.784  0.8836  0.6663 -0.7869
  113OSM   H11G11821   1.639   4.312   9.851 -0.5089 -0.9278  1.0321
  113OSM   C12F11822   1.561   4.290   9.634 -0.2969  0.7318 -0.1742
  113OSM   H12F11823   1.486   4.373   9.638 -2.2887 -1.0111  0.3512
  113OSM   H12G11824   1.508   4.211   9.577 -1.6722  0.6170  1.1913
  113OSM   C13F11825   1.684   4.328   9.551 -0.2276 -0.3110  0.0547
  113OSM   H13F11826   1.736   4.409   9.606  0.7474  1.1653 -2.8223
  113OSM   H13G11827   1.641   4.353   9.451  0.3106 -0.3933 -0.1993
  113OSM   C14F11828   1.781   4.210   9.536  0.5432  0.5472  0.0252
  113OSM   H14F11829   1.821   4.189   9.637  0.9682  0.0649 -0.2372
  113OSM   H14G11830   1.860   4.237   9.462  1.3273  0.0468  0.6596
  113OSM   C15F11831   1.723   4.078   9.469 -1.3900 -0.2884 -0.1378
  113OSM   H15F11832   1.684   4.103   9.369  1.0871 -2.1133 -1.7012
  113OSM   H15G11833   1.647   4.042   9.542 -0.0067 -0.2221  1.4190
  113OSM   C16F11834   1.834   3.969   9.460 -0.3107  1.0386  0.4640
  113OSM   H16F11835   1.887   3.974   9.557 -1.3125  0.2485  1.0801
  113OSM   H16G11836   1.909   3.986   9.381 -2.0682 -2.7254 -2.3678
  113OSM   C17F11837   1.787   3.827   9.448  0.0546 -1.0835 -0.9410
  113OSM   H17F11838   1.735   3.820   9.350 -1.1571  2.2026 -0.6716
  113OSM   H17G11839   1.735   3.786   9.537  0.2787 -1.4581 -0.9786
  113OSM   C18F11840   1.914   3.742   9.436 -0.1211 -0.1182  0.0092
  113OSM   H18F11841   1.980   3.742   9.525 -0.8796  0.4040  0.5825
  113OSM   H18G11842   1.969   3.769   9.343  0.8909  0.7276  0.8383
  113OSM   H18H11843   1.884   3.635   9.427  0.5876 -0.6916  3.2086
  114OSM      N11844   3.662   6.512  11.501 -0.3135  0.1066 -0.0733
  114OSM    C1511845   3.666   6.592  11.627  0.7103  0.5815 -0.0457
  114OSM   H15A11846   3.592   6.670  11.632 -1.4372 -1.3779  0.2623
  114OSM   H15B11847   3.761   6.637  11.656  0.4406  1.5791 -0.6582
  114OSM   H15C11848   3.631   6.537  11.713  0.4571  1.8097  0.6630
  114OSM    C1411849   3.738   6.385  11.523 -0.2322 -0.2912 -0.1710
  114OSM   H14A11850   3.701   6.334  11.611  0.3806  0.9540  0.8467
  114OSM   H14B11851   3.845   6.401  11.535 -0.4465  1.0249  0.1671
  114OSM   H14C11852   3.730   6.335  11.428 -0.9733  1.6540 -1.1808
  114OSM    C1311853   3.517   6.477  11.485 -0.2172  0.2938  0.9063
  114OSM   H13A11854   3.496   6.404  11.408  1.9692  1.5270 -1.0009
  114OSM   H13B11855   3.453   6.561  11.462 -0.0082 -0.0377 -1.1269
  114OSM   H13C11856   3.494   6.426  11.577 -0.5728 -1.0729  0.0907
  114OSM    C1211857   3.723   6.588  11.383  0.3384  0.4351  0.4805
  114OSM   H12A11858   3.823   6.625  11.396  0.7622 -0.3947 -0.3425
  114OSM   H12B11859   3.653   6.668  11.363 -2.4700 -2.0708 -0.4584
  114OSM    C1111860   3.728   6.506  11.248  0.5870  0.3204 -0.0053
  114OSM   H11A11861   3.734   6.585  11.170  0.1331  0.0930 -0.2676
  114OSM   H11B11862   3.634   6.448  11.238  0.6573  0.3600 -0.9910
  114OSM      P11863   3.831   6.274  11.189  0.1473  0.1486  0.2190
  114OSM    O1311864   3.965   6.219  11.169 -0.6424 -0.0452  0.2143
  114OSM    O1411865   3.728   6.202  11.270 -0.0953 -0.2430 -0.5648
  114OSM    O1111866   3.761   6.310  11.053 -0.0470  0.7881  0.4296
  114OSM    O1211867   3.843   6.422  11.249  0.5916 -0.3048  0.4148
  114OSM    C1S11868   3.836   6.329  10.930  0.3084 -0.4533 -0.6901
  114OSM    H1S11869   3.906   6.243  10.924 -0.0147 -0.8710  1.1465
  114OSM    H1T11870   3.884   6.429  10.942 -1.0371  0.0271  0.9301
  114OSM     NF11871   3.819   6.322  10.692 -0.2915  0.2870  0.1228
  114OSM    HNF11872   3.863   6.402  10.653  1.7947  0.2803  2.1941
  114OSM    C2S11873   3.742   6.344  10.811  0.3720  0.1302  0.5751
  114OSM    H2S11874   3.660   6.268  10.807 -0.2227  0.7861  0.0571
  114OSM    C3S11875   3.667   6.481  10.820  0.1838  0.5953 -0.1350
  114OSM    H3S11876   3.741   6.560  10.847  0.5827  0.0701  0.3181
  114OSM     O311877   3.580   6.485  10.931  0.4314 -0.2687  0.5358
  114OSM    HO311878   3.600   6.406  10.981  2.0926 -0.2422 -0.0416
  114OSM    C4S11879   3.582   6.512  10.703 -0.1806  0.6598  0.5686
  114OSM    H4S11880   3.516   6.428  10.674  0.6262 -0.8813  2.9594
  114OSM    C5S11881   3.577   6.625  10.634 -0.0591 -0.4829  0.2580
  114OSM    H5S11882   3.654   6.697  10.667  1.5305 -2.2368  0.5746
  114OSM    C6S11883   3.504   6.650  10.507  0.9855 -0.0248  0.1526
  114OSM    H6S11884   3.463   6.753  10.514  1.2313  0.1463 -0.7624
  114OSM    H6T11885   3.417   6.589  10.475  0.4968  0.1838  1.0610
  114OSM    C7S11886   3.605   6.634  10.388 -0.7438 -0.1048  0.3566
  114OSM    H7S11887   3.652   6.533  10.394 -1.9495 -0.6937 -0.0028
  114OSM    H7T11888   3.687   6.705  10.413  0.4447 -1.8289  1.5973
  114OSM    C8S11889   3.549   6.657  10.244  0.1913  0.0187  0.4399
  114OSM    H8S11890   3.451   6.708  10.252 -1.1950 -2.4713  0.2993
  114OSM    H8T11891   3.540   6.555  10.203  0.0238 -0.7202  2.2099
  114OSM    C9S11892   3.637   6.735  10.145  0.0825  0.0078 -0.3627
  114OSM    H9S11893   3.741   6.709  10.176 -0.5395  0.3730  2.3474
  114OSM    H9T11894   3.629   6.845  10.152 -1.0673  0.0004 -1.2383
  114OSM   C10S11895   3.619   6.715   9.990 -0.5988  0.0058 -0.2586
  114OSM   H10S11896   3.678   6.625   9.961  1.9159  1.7705 -0.9569
  114OSM   H10T11897   3.660   6.812   9.954 -2.0102  0.5751 -0.3686
  114OSM   C11S11898   3.479   6.691   9.927 -0.1031  0.4339  0.0696
  114OSM   H11S11899   3.406   6.767   9.960  0.3029  1.1990 -0.7382
  114OSM   H11T11900   3.446   6.589   9.957  0.9185  0.2376  0.5969
  114OSM   C12S11901   3.478   6.706   9.769 -0.4285 -0.1307  1.1456
  114OSM   H12S11902   3.537   6.794   9.736 -1.1222 -0.0750  0.0094
  114OSM   H12T11903   3.375   6.729   9.736 -0.4750 -1.5752  0.1778
  114OSM   C13S11904   3.509   6.575   9.694  0.3861 -0.4510 -0.2583
  114OSM   H13S11905   3.439   6.496   9.729  1.1404 -0.8718  0.3360
  114OSM   H13T11906   3.615   6.546   9.714  1.3927  2.0053 -1.6571
  114OSM   C14S11907   3.501   6.611   9.541 -0.0767 -0.3704 -0.0641
  114OSM   H14S11908   3.594   6.667   9.515  1.0595 -3.1070 -2.4655
  114OSM   H14T11909   3.410   6.674   9.540  0.7862  0.9275 -1.1745
  114OSM   C15S11910   3.505   6.482   9.453  0.2214  0.3314 -0.0932
  114OSM   H15S11911   3.425   6.414   9.489 -0.3385  0.1809 -1.5530
  114OSM   H15T11912   3.602   6.427   9.461 -0.0642 -0.6427 -2.5926
  114OSM   C16S11913   3.488   6.500   9.304  0.6317  0.1118 -0.0977
  114OSM   H16S11914   3.579   6.548   9.265  0.6872  0.6547  0.6903
  114OSM   H16T11915   3.400   6.568   9.303  0.6336  0.1249 -1.9220
  114OSM   C17S11916   3.463   6.368   9.226 -0.6632  0.1540  0.3716
  114OSM   H17S11917   3.539   6.293   9.257  1.2706  2.2434  0.9388
  114OSM   H17T11918   3.478   6.392   9.119 -0.0037  2.2869  0.8881
  114OSM   C18S11919   3.328   6.299   9.249  0.0051 -0.1602  0.5408
  114OSM   H18S11920   3.321   6.211   9.182  0.1558  0.4311 -0.2701
  114OSM   H18T11921   3.241   6.363   9.225 -1.4672 -2.5019 -0.6872
  114OSM   H18U11922   3.310   6.270   9.355 -0.2103  0.7155  0.7546
  114OSM    C1F11923   3.859   6.194  10.657  0.9376 -0.0894 -0.3821
  114OSM     OF11924   3.824   6.093  10.722  0.2634 -0.2656 -0.4965
  114OSM    C2F11925   3.958   6.189  10.543  0.4879 -0.1034 -0.2472
  114OSM    H2F11926   4.027   6.268  10.580 -1.9586  0.8656  2.7476
  114OSM    H2G11927   3.902   6.229  10.456 -1.6276 -0.4502  0.8898
  114OSM    C3F11928   4.006   6.043  10.516 -0.5341  0.1669 -0.2505
  114OSM    H3F11929   3.914   5.984  10.498  0.6051 -1.4474 -0.9797
  114OSM    H3G11930   4.047   6.007  10.613 -2.1085  1.2341  0.8600
  114OSM    C4F11931   4.099   6.026  10.400 -1.0441  0.2859  0.0319
  114OSM    H4F11932   4.155   5.931  10.416  0.7448  1.4883  1.3822
  114OSM    H4G11933   4.176   6.106  10.394  0.1430 -0.4410  3.3382
  114OSM    C5F11934   4.016   6.014  10.266  0.1182  0.2861  1.3246
  114OSM    H5F11935   3.956   6.107  10.254  1.3077  0.8456 -0.9103
  114OSM    H5G11936   3.936   5.937  10.276  0.9770 -1.1972 -1.8436
  114OSM    C6F11937   4.100   5.981  10.142 -0.2880 -0.2638 -0.5622
  114OSM    H6F11938   4.131   5.874  10.142 -2.6251 -1.0376 -2.1459
  114OSM    H6G11939   4.188   6.047  10.128 -0.7068  0.1875 -1.1063
  114OSM    C7F11940   4.019   5.999  10.015 -0.2018 -0.4864  1.0179
  114OSM    H7F11941   4.093   5.988   9.934  0.0874  1.1123  1.0173
  114OSM    H7G11942   4.002   6.109  10.012 -1.3162 -0.6618 -0.0500
  114OSM    C8F11943   3.890   5.929   9.993 -0.4433 -0.4036  0.3598
  114OSM    H8F11944   3.839   5.968   9.902 -0.5034  0.6654  0.8354
  114OSM    H8G11945   3.820   5.937  10.079 -0.9165 -0.6149  0.0007
  114OSM    C9F11946   3.911   5.782   9.976  0.1267  0.1087  0.2383
  114OSM    H9F11947   3.953   5.723  10.059 -0.2920 -2.5010 -1.2975
  114OSM   C10F11948   3.884   5.707   9.865 -0.1139  0.6738  0.1531
  114OSM   H10F11949   3.902   5.598   9.865  2.8098  1.0699  1.4606
  114OSM   C11F11950   3.824   5.752   9.739  0.0874  0.3158  0.8129
  114OSM   H11F11951   3.892   5.830   9.698  1.4087 -1.0309  0.3455
  114OSM   H11G11952   3.716   5.774   9.751 -0.5688 -2.8383  1.4358
  114OSM   C12F11953   3.826   5.649   9.619  0.2938 -0.7958  0.2350
  114OSM   H12F11954   3.804   5.543   9.646  0.8675 -1.0006 -0.0688
  114OSM   H12G11955   3.932   5.643   9.587  0.9667  1.6075  1.7159
  114OSM   C13F11956   3.737   5.688   9.501 -0.0112 -0.2220 -0.1548
  114OSM   H13F11957   3.744   5.799   9.491 -0.5601  0.0006  1.6832
  114OSM   H13G11958   3.632   5.688   9.535  0.1492  2.5034  0.6326
  114OSM   C14F11959   3.756   5.610   9.372  0.4603 -0.0798 -0.5839
  114OSM   H14F11960   3.663   5.622   9.312  1.6936  1.0530 -2.3586
  114OSM   H14G11961   3.761   5.500   9.382  1.8414 -0.1002 -1.2387
  114OSM   C15F11962   3.874   5.661   9.289  0.0546 -0.5984  0.0477
  114OSM   H15F11963   3.965   5.637   9.348 -1.4175  0.8746  3.1407
  114OSM   H15G11964   3.856   5.771   9.282  0.4789 -0.6287 -3.2348
  114OSM   C16F11965   3.877   5.612   9.140  0.4411  0.6611  0.2404
  114OSM   H16F11966   3.779   5.630   9.092  1.2850  2.7565 -0.8447
  114OSM   H16G11967   3.884   5.502   9.146  2.0262  0.7593  1.0488
  114OSM   C17F11968   3.997   5.663   9.056  0.3318 -0.3996 -0.2469
  114OSM   H17F11969   4.093   5.640   9.108  0.6617  4.7449  2.0252
  114OSM   H17G11970   3.989   5.774   9.044 -1.2762 -0.2757  1.6201
  114OSM   C18F11971   4.009   5.599   8.917  0.6422  0.8427  1.1601
  114OSM   H18F11972   4.111   5.604   8.874 -0.1182 -0.9132 -1.0282
  114OSM   H18G11973   3.937   5.640   8.843  0.1689 -1.4591  0.2773
  114OSM   H18H11974   3.994   5.490   8.927 -0.5668  0.9512  0.7254
  115OSM      N11975   5.005   1.388  11.342 -0.4455 -0.5673  0.5536
  115OSM    C1511976   4.906   1.411  11.455  0.3809 -0.5274 -0.1173
  115OSM   H15A11977   4.843   1.333  11.494  0.5194  0.3198  1.8875
  115OSM   H15B11978   4.856   1.506  11.450  0.5952 -0.0582  3.7557
  115OSM   H15C11979   4.966   1.429  11.542  1.1122 -1.0619 -0.5022
  115OSM    C1411980   5.068   1.521  11.309  0.5148 -0.3509 -0.0049
  115OSM   H14A11981   5.127   1.556  11.392 -0.1661 -0.7704  0.6828
  115OSM   H14B11982   4.987   1.589  11.286 -1.0596 -0.9895  3.0265
  115OSM   H14C11983   5.121   1.514  11.216 -3.7870  2.3397 -3.0201
  115OSM    C1311984   5.123   1.315  11.392  0.4934  0.5021  0.4056
  115OSM   H13A11985   5.202   1.293  11.322  0.5540  0.6719  0.4204
  115OSM   H13B11986   5.093   1.219  11.432  1.0245 -0.2155 -0.8452
  115OSM   H13C11987   5.168   1.382  11.464  3.7646  0.4785 -1.4324
  115OSM    C1211988   4.938   1.314  11.227  0.2616 -0.7072  0.0383
  115OSM   H12A11989   4.861   1.385  11.202 -0.3209  0.1649  3.7934
  115OSM   H12B11990   4.888   1.227  11.266 -1.1865  0.8188  1.7333
  115OSM    C1111991   5.014   1.276  11.097  0.0851  0.4557  0.2573
  115OSM   H11A11992   4.957   1.202  11.037  0.9421 -0.4743  0.5713
  115OSM   H11B11993   5.101   1.218  11.135 -0.2483  0.4412  1.0357
  115OSM      P11994   4.968   1.490  10.961 -0.1458 -0.2386 -0.1922
  115OSM    O1311995   4.826   1.451  10.980  0.3567 -0.4477 -0.1269
  115OSM    O1411996   5.012   1.624  11.007  0.2323 -0.4812  0.2123
  115OSM    O1111997   5.006   1.468  10.811  0.0477 -0.3520 -0.1268
  115OSM    O1211998   5.057   1.388  11.023  0.2384  0.6185 -0.2156
  115OSM    C1S11999   4.961   1.356  10.734  0.9541  0.0159 -0.2358
  115OSM    H1S12000   4.850   1.349  10.742  1.0118  1.0460  3.4789
  115OSM    H1T12001   5.005   1.264  10.779  2.9020  0.0729 -1.9047
  115OSM     NF12002   4.925   1.286  10.497 -0.2707 -1.1285  0.2592
  115OSM    HNF12003   4.964   1.207  10.450  1.8708  0.6380 -1.1271
  115OSM    C2S12004   5.002   1.375  10.584  0.3891 -0.1091  0.0925
  115OSM    H2S12005   4.965   1.475  10.552 -0.8157 -0.0247  1.6079
  115OSM    C3S12006   5.154   1.353  10.570  0.0166 -0.7542  0.6151
  115OSM    H3S12007   5.191   1.249  10.581  1.3370 -0.3382  0.3304
  115OSM     O312008   5.221   1.424  10.671 -0.0983  0.3442 -0.0329
  115OSM    HO312009   5.145   1.438  10.728 -1.6491 -2.3938 -1.2589
  115OSM    C4S12010   5.204   1.397  10.426 -0.1314 -0.3986 -0.1702
  115OSM    H4S12011   5.192   1.505  10.406 -0.2568 -0.2043  0.9189
  115OSM    C5S12012   5.256   1.324  10.330 -0.4101  0.1601  0.0090
  115OSM    H5S12013   5.290   1.221  10.347  1.2485  0.4850 -1.0446
  115OSM    C6S12014   5.291   1.394  10.206  0.3028 -0.2499 -0.2527
  115OSM    H6S12015   5.360   1.477  10.232 -0.0613 -0.3577  1.1538
  115OSM    H6T12016   5.200   1.447  10.170  0.6445  0.3210 -0.2869
  115OSM    C7S12017   5.361   1.302  10.105  0.3932 -0.6702  0.1283
  115OSM    H7S12018   5.454   1.264  10.152 -1.2347 -3.9755  1.0272
  115OSM    H7T12019   5.386   1.371  10.022  0.0304 -0.9531 -0.2187
  115OSM    C8S12020   5.274   1.187  10.066 -0.0180  0.3725  0.4954
  115OSM    H8S12021   5.171   1.218  10.037 -0.0805 -2.1456 -2.4629
  115OSM    H8T12022   5.265   1.105  10.140  1.1148 -1.1543 -0.9862
  115OSM    C9S12023   5.337   1.112   9.944  0.3816 -0.3828  0.5216
  115OSM    H9S12024   5.270   1.027   9.918  0.0580 -0.0040  0.1002
  115OSM    H9T12025   5.435   1.060   9.960  0.9848 -0.0465 -1.7073
  115OSM   C10S12026   5.352   1.202   9.822  0.1035  0.4934 -0.0106
  115OSM   H10S12027   5.436   1.273   9.838 -0.3332  0.9081  0.4769
  115OSM   H10T12028   5.259   1.260   9.803  0.8096  1.3183 -1.0453
  115OSM   C11S12029   5.387   1.129   9.695 -0.9695 -0.0745  0.0657
  115OSM   H11S12030   5.313   1.053   9.662 -0.8125  0.4818 -1.6242
  115OSM   H11T12031   5.487   1.082   9.709 -0.5015  1.2724  1.5705
  115OSM   C12S12032   5.398   1.229   9.575 -1.0518  0.0785  0.2326
  115OSM   H12S12033   5.489   1.290   9.595 -0.4251 -0.2171 -1.5159
  115OSM   H12T12034   5.305   1.284   9.554 -0.5192  0.9244  0.0518
  115OSM   C13S12035   5.430   1.145   9.448  0.2636  0.0227  0.2136
  115OSM   H13S12036   5.345   1.074   9.438  0.5718 -0.2897 -0.1980
  115OSM   H13T12037   5.525   1.088   9.457 -0.0335 -1.0652 -2.5905
  115OSM   C14S12038   5.431   1.228   9.323  0.1603  0.4679  0.1322
  115OSM   H14S12039   5.520   1.294   9.325  0.3745  0.1994 -0.2791
  115OSM   H14T12040   5.337   1.287   9.327 -0.5413 -0.6716  3.4190
  115OSM   C15S12041   5.437   1.139   9.197  0.6535  0.4783  0.2603
  115OSM   H15S12042   5.384   1.041   9.193  2.0796 -0.3011 -0.4911
  115OSM   H15T12043   5.544   1.110   9.188  0.2006 -1.5971  0.8828
  115OSM   C16S12044   5.414   1.217   9.069 -0.0211  0.1532  0.0618
  115OSM   H16S12045   5.443   1.322   9.091 -3.3842  1.1818  0.0685
  115OSM   H16T12046   5.308   1.237   9.043  0.3304  1.2550 -0.5989
  115OSM   C17S12047   5.507   1.168   8.957  0.4770  0.2655 -0.8066
  115OSM   H17S12048   5.501   1.058   8.941 -0.3273  0.2658 -0.5258
  115OSM   H17T12049   5.612   1.186   8.987 -0.4020  0.7479  2.3250
  115OSM   C18S12050   5.466   1.238   8.826 -0.0405  0.0510 -0.3001
  115OSM   H18S12051   5.358   1.224   8.808 -0.5509 -0.8535  2.8716
  115OSM   H18T12052   5.539   1.203   8.750  1.8871 -0.9793  1.8968
  115OSM   H18U12053   5.481   1.348   8.817 -0.3860 -0.0653 -2.9368
  115OSM    C1F12054   4.787   1.297  10.490 -0.6814 -0.0237  0.2724
  115OSM     OF12055   4.722   1.379  10.555 -0.1240 -0.0970  0.4409
  115OSM    C2F12056   4.738   1.180  10.415  0.0894 -0.5182  0.9218
  115OSM    H2F12057   4.762   1.095  10.483  0.3721  1.1134  2.9479
  115OSM    H2G12058   4.802   1.172  10.324  2.8015  1.2948  2.5276
  115OSM    C3F12059   4.592   1.188  10.380 -0.1803 -1.2710  0.1362
  115OSM    H3F12060   4.569   1.294  10.357 -0.7029 -1.8255 -2.0840
  115OSM    H3G12061   4.525   1.173  10.468 -1.4668 -1.8626 -0.9129
  115OSM    C4F12062   4.544   1.101  10.260 -0.2156  0.4924  0.7187
  115OSM    H4F12063   4.538   0.994  10.292  0.6679 -0.3155 -1.6313
  115OSM    H4G12064   4.622   1.114  10.183 -0.3644 -1.4842  0.1798
  115OSM    C5F12065   4.404   1.147  10.215  0.6019  0.3736  0.2321
  115OSM    H5F12066   4.397   1.258  10.204 -0.6199  0.7544  3.6785
  115OSM    H5G12067   4.346   1.129  10.308 -1.1307  0.7513 -0.7354
  115OSM    C6F12068   4.337   1.067  10.098  0.1708  0.0859  0.1499
  115OSM    H6F12069   4.243   1.120  10.073  0.1643  0.3109  0.6439
  115OSM    H6G12070   4.304   0.966  10.128 -0.8402  0.7896  1.4786
  115OSM    C7F12071   4.430   1.060   9.977 -0.6218 -0.6622 -0.5093
  115OSM    H7F12072   4.511   0.986   9.998 -1.6284 -1.6549  0.0536
  115OSM    H7G12073   4.477   1.159   9.961 -4.0093  1.0155 -0.9143
  115OSM    C8F12074   4.365   1.030   9.844 -0.1195  0.1923  0.2065
  115OSM    H8F12075   4.436   1.031   9.759 -2.7368  1.8852 -2.1281
  115OSM    H8G12076   4.298   1.112   9.809  1.3202  0.4754 -2.0771
  115OSM    C9F12077   4.279   0.904   9.845 -0.1165 -0.3231 -0.3257
  115OSM    H9F12078   4.189   0.896   9.907 -0.9466  2.6542 -0.9560
  115OSM   C10F12079   4.307   0.788   9.773  0.6731  0.0542  0.2234
  115OSM   H10F12080   4.235   0.705   9.785  0.3534  0.6191  2.6498
  115OSM   C11F12081   4.425   0.764   9.676  0.3674 -0.0339  0.3769
  115OSM   H11F12082   4.482   0.670   9.693  0.9252  0.3478  0.6364
  115OSM   H11G12083   4.507   0.837   9.689 -0.8088  1.1784  1.1281
  115OSM   C12F12084   4.377   0.775   9.528 -0.1538  0.2545  0.3442
  115OSM   H12F12085   4.329   0.871   9.499 -1.0196 -0.9033 -2.4365
  115OSM   H12G12086   4.311   0.688   9.510  0.4157 -0.0297 -0.3819
  115OSM   C13F12087   4.504   0.764   9.440 -0.0394 -0.1147 -0.0294
  115OSM   H13F12088   4.576   0.690   9.481  1.9250  0.4759 -2.2054
  115OSM   H13G12089   4.567   0.855   9.448  0.2282 -0.3912  1.2040
  115OSM   C14F12090   4.468   0.737   9.295 -0.7045 -0.1194 -0.0185
  115OSM   H14F12091   4.382   0.802   9.268 -1.6550 -0.8085  1.2054
  115OSM   H14G12092   4.425   0.635   9.286 -0.6085 -0.0847 -0.9216
  115OSM   C15F12093   4.589   0.752   9.199  0.0238  0.2281 -0.1601
  115OSM   H15F12094   4.669   0.684   9.235  1.3644  0.8049 -1.9430
  115OSM   H15G12095   4.617   0.859   9.195  1.8512 -0.2389 -0.5972
  115OSM   C16F12096   4.547   0.723   9.057 -0.2482 -0.7671  0.0886
  115OSM   H16F12097   4.626   0.758   8.987 -2.7558  0.4908 -2.3263
  115OSM   H16G12098   4.451   0.776   9.039 -0.0684  0.0495  1.4693
  115OSM   C17F12099   4.526   0.575   9.032  0.3310  0.7607  0.2809
  115OSM   H17F12100   4.443   0.530   9.091  0.5115  2.9955  2.4301
  115OSM   H17G12101   4.618   0.521   9.061  0.4731  1.3266  0.9219
  115OSM   C18F12102   4.494   0.549   8.875 -0.1471 -0.7185 -1.0798
  115OSM   H18F12103   4.475   0.440   8.868 -0.9073 -0.9574  2.5136
  115OSM   H18G12104   4.586   0.573   8.818 -1.0866 -2.0045 -3.2520
  115OSM   H18H12105   4.405   0.607   8.843 -0.3830 -1.1069 -1.1313
  116OSM      N12106   2.794   0.863  11.288  0.4815 -0.4294 -0.1465
  116OSM    C1512107   2.799   1.011  11.253  0.4116  0.3409 -0.3483
  116OSM   H15A12108   2.834   1.079  11.329  1.5575  0.3409 -0.8510
  116OSM   H15B12109   2.703   1.050  11.224  0.6351 -1.0736 -3.4768
  116OSM   H15C12110   2.861   1.025  11.165 -1.0038 -1.9494 -1.8236
  116OSM    C1412111   2.721   0.835  11.412  0.7232  0.3472 -0.4775
  116OSM   H14A12112   2.615   0.858  11.413  0.5114 -0.6045 -0.8259
  116OSM   H14B12113   2.757   0.892  11.497 -1.5878 -0.4444  1.1311
  116OSM   H14C12114   2.736   0.731  11.433 -1.4841 -0.0170 -0.5010
  116OSM    C1312115   2.723   0.784  11.179  0.0805 -0.6569  0.8583
  116OSM   H13A12116   2.760   0.813  11.082 -1.0585 -0.9262  0.3356
  116OSM   H13B12117   2.618   0.808  11.176  0.4561  1.1641  1.2641
  116OSM   H13C12118   2.732   0.677  11.194  0.2568 -0.4811  2.1986
  116OSM    C1212119   2.939   0.817  11.299  0.1102 -0.0160  0.3430
  116OSM   H12A12120   2.930   0.714  11.328  1.1422 -0.2626 -0.1904
  116OSM   H12B12121   2.989   0.868  11.381  0.3130 -1.5698  1.2135
  116OSM    C1112122   3.028   0.823  11.172  0.7002  0.4285 -0.2525
  116OSM   H11A12123   2.991   0.763  11.086  0.0873 -1.1744  1.0793
  116OSM   H11B12124   3.128   0.778  11.192  1.2944 -0.1265 -3.7398
  116OSM      P12125   3.167   1.047  11.165 -0.0071 -0.3348 -0.4541
  116OSM    O1312126   3.129   1.188  11.155 -0.0704 -0.2424 -0.4086
  116OSM    O1412127   3.220   1.010  11.300  0.4361  0.0936  0.2390
  116OSM    O1112128   3.275   1.010  11.049 -0.4189 -0.7156 -0.0306
  116OSM    O1212129   3.046   0.959  11.126 -0.2818 -0.1516 -0.4420
  116OSM    C1S12130   3.229   0.987  10.913  0.3467 -0.1725  0.8762
  116OSM    H1S12131   3.121   0.963  10.904  0.5520 -1.0625  0.7348
  116OSM    H1T12132   3.281   0.899  10.871  0.9644  0.6396 -0.1028
  116OSM     NF12133   3.188   1.098  10.704  0.6983  0.0812  0.3576
  116OSM    HNF12134   3.235   1.082  10.618  1.0889  0.6825  0.4512
  116OSM    C2S12135   3.255   1.114  10.830  0.2993  0.0170 -0.0558
  116OSM    H2S12136   3.200   1.192  10.886  0.1478 -0.2076  0.1062
  116OSM    C3S12137   3.408   1.152  10.823 -0.0079 -0.3917 -0.4454
  116OSM    H3S12138   3.464   1.083  10.757  1.0637  1.2532 -1.3389
  116OSM     O312139   3.464   1.157  10.952  0.1347  0.1718  0.0458
  116OSM    HO312140   3.396   1.120  11.009  1.4904 -0.9052  1.0354
  116OSM    C4S12141   3.423   1.292  10.765  0.1635  0.2005 -0.7512
  116OSM    H4S12142   3.376   1.365  10.832 -1.6579 -0.1371 -1.5950
  116OSM    C5S12143   3.482   1.322  10.655  0.1223 -0.3733  0.1097
  116OSM    H5S12144   3.530   1.240  10.599  0.8383  0.4946 -0.5778
  116OSM    C6S12145   3.505   1.460  10.603 -0.3253  0.4917  0.4356
  116OSM    H6S12146   3.603   1.485  10.649  0.7987 -1.4029 -0.7991
  116OSM    H6T12147   3.423   1.532  10.628 -2.3795 -2.3890  2.6686
  116OSM    C7S12148   3.518   1.459  10.447  0.1957  0.3549 -0.6630
  116OSM    H7S12149   3.422   1.418  10.407  0.8904 -2.4688  0.3170
  116OSM    H7T12150   3.604   1.391  10.431 -0.5626 -0.6353 -0.6362
  116OSM    C8S12151   3.548   1.593  10.388  0.0373  0.1616  0.2009
  116OSM    H8S12152   3.644   1.631  10.429  1.0531 -2.3150  0.2840
  116OSM    H8T12153   3.467   1.668  10.400 -0.9470 -0.0948 -3.6318
  116OSM    C9S12154   3.555   1.593  10.238  0.1531  0.3373 -0.2748
  116OSM    H9S12155   3.459   1.552  10.202  0.6354 -0.1822 -1.0153
  116OSM    H9T12156   3.636   1.525  10.203 -0.0363 -0.3677  0.6199
  116OSM   C10S12157   3.572   1.732  10.171 -0.0559  0.3911  0.2098
  116OSM   H10S12158   3.543   1.811  10.244 -0.9418  0.5474 -0.3013
  116OSM   H10T12159   3.515   1.741  10.076  0.1734 -0.6434 -0.0332
  116OSM   C11S12160   3.723   1.756  10.121  0.5950  0.3363 -0.3979
  116OSM   H11S12161   3.790   1.680  10.166  1.9108  2.2107  0.9889
  116OSM   H11T12162   3.765   1.853  10.155  0.8326  0.1676 -0.2113
  116OSM   C12S12163   3.744   1.760   9.970  0.1686 -0.4726 -0.2135
  116OSM   H12S12164   3.838   1.815   9.952 -1.4788  2.5389 -0.1495
  116OSM   H12T12165   3.664   1.814   9.915  0.6925  1.0756  0.4957
  116OSM   C13S12166   3.760   1.619   9.914 -0.3646 -0.5408 -0.4367
  116OSM   H13S12167   3.690   1.550   9.965  0.5228 -1.7998 -0.8874
  116OSM   H13T12168   3.857   1.579   9.951 -0.3497  1.7005  2.3343
  116OSM   C14S12169   3.758   1.628   9.763  0.0697 -0.4574  0.6231
  116OSM   H14S12170   3.831   1.700   9.722  1.3162 -1.7809  0.4576
  116OSM   H14T12171   3.651   1.648   9.740  0.1725  2.9554  2.4829
  116OSM   C15S12172   3.807   1.491   9.723 -0.6691  0.1951 -0.3509
  116OSM   H15S12173   3.748   1.420   9.786 -1.5192  0.5261 -0.7563
  116OSM   H15T12174   3.914   1.489   9.749 -0.1738 -0.6105 -2.2359
  116OSM   C16S12175   3.782   1.458   9.573  0.3542 -0.2721 -0.3120
  116OSM   H16S12176   3.672   1.444   9.569  0.2154 -0.1200  1.8111
  116OSM   H16T12177   3.826   1.357   9.564 -0.7419 -0.9232  1.2633
  116OSM   C17S12178   3.866   1.545   9.486  0.0693 -0.0800  0.1344
  116OSM   H17S12179   3.973   1.545   9.514  0.0881 -1.2659  0.0980
  116OSM   H17T12180   3.848   1.655   9.480  1.8014  0.2622  0.8148
  116OSM   C18S12181   3.854   1.495   9.341 -0.0033  0.0198 -0.8096
  116OSM   H18S12182   3.887   1.570   9.266  1.3696  0.2438 -0.0122
  116OSM   H18T12183   3.748   1.465   9.323 -0.2578 -0.7546  1.6723
  116OSM   H18U12184   3.917   1.405   9.322 -1.8186 -1.5549  0.3629
  116OSM    C1F12185   3.059   1.077  10.692  0.5893 -0.2939 -0.2992
  116OSM     OF12186   2.978   1.105  10.784 -0.5042  0.0729 -0.0187
  116OSM    C2F12187   3.001   1.018  10.564  0.3513  0.2437 -0.1369
  116OSM    H2F12188   2.956   0.918  10.586 -0.9599  0.8340 -0.0471
  116OSM    H2G12189   3.080   1.016  10.486  0.4612 -0.6324 -0.0189
  116OSM    C3F12190   2.883   1.113  10.519  0.0828  0.1495 -0.1724
  116OSM    H3F12191   2.916   1.218  10.507 -2.2693  0.9522 -0.0968
  116OSM    H3G12192   2.806   1.117  10.599 -0.0182  2.2473 -0.3234
  116OSM    C4F12193   2.812   1.055  10.392 -0.1806  0.0143  1.3492
  116OSM    H4F12194   2.706   1.087  10.399 -0.4143  0.2394 -1.7608
  116OSM    H4G12195   2.820   0.945  10.397  0.9642  0.0411  0.5735
  116OSM    C5F12196   2.876   1.111  10.265 -0.5644  0.2603  0.4837
  116OSM    H5F12197   2.985   1.087  10.262 -0.3398  1.1384  1.1876
  116OSM    H5G12198   2.880   1.222  10.262  0.7183  0.2351  0.3338
  116OSM    C6F12199   2.816   1.058  10.134  0.3481  0.0685  0.3632
  116OSM    H6F12200   2.713   1.098  10.139  0.4045  0.2340  0.2236
  116OSM    H6G12201   2.812   0.948  10.124  0.2129  0.2243 -1.6950
  116OSM    C7F12202   2.890   1.120  10.009 -0.2923  0.1357  0.7091
  116OSM    H7F12203   2.996   1.090  10.019 -0.3043  0.2070  1.0331
  116OSM    H7G12204   2.868   1.229  10.015 -4.1256 -0.4808  0.9027
  116OSM    C8F12205   2.833   1.068   9.876  0.7653 -0.4039 -1.1001
  116OSM    H8F12206   2.868   1.141   9.799  1.0773  1.6292  0.8739
  116OSM    H8G12207   2.723   1.075   9.891  0.5446 -3.1068 -0.9769
  116OSM    C9F12208   2.877   0.931   9.832  0.2836  0.1097  0.1163
  116OSM    H9F12209   2.846   0.851   9.902  0.5861 -1.0644 -1.0554
  116OSM   C10F12210   2.923   0.888   9.714  0.1238 -0.6171 -0.3062
  116OSM   H10F12211   2.950   0.782   9.706  0.6421 -0.4587 -0.7011
  116OSM   C11F12212   2.940   0.973   9.589 -0.0887  0.5968  0.2072
  116OSM   H11F12213   3.038   0.952   9.540 -1.7271 -0.3359 -2.9376
  116OSM   H11G12214   2.934   1.082   9.612 -2.1576  0.4200  0.6480
  116OSM   C12F12215   2.832   0.940   9.486  0.7349 -0.4079  0.4831
  116OSM   H12F12216   2.733   0.927   9.535  0.9108 -2.1454  0.4287
  116OSM   H12G12217   2.848   0.848   9.427 -3.1802 -0.8518 -0.0992
  116OSM   C13F12218   2.808   1.048   9.379 -1.1751  0.3900 -0.4894
  116OSM   H13F12219   2.904   1.100   9.359 -1.0351  0.9735  1.4840
  116OSM   H13G12220   2.741   1.125   9.422 -0.1135  3.2200 -3.4951
  116OSM   C14F12221   2.757   0.994   9.249 -0.4886  0.3574 -0.0598
  116OSM   H14F12222   2.823   0.917   9.202 -1.9697 -2.0099  1.5121
  116OSM   H14G12223   2.758   1.077   9.175  1.8581  3.0832  2.7833
  116OSM   C15F12224   2.612   0.945   9.253  0.0437  0.0573 -0.2246
  116OSM   H15F12225   2.557   1.019   9.314 -0.1328  0.6598 -1.0999
  116OSM   H15G12226   2.605   0.844   9.300  1.3381 -0.6451 -1.4320
  116OSM   C16F12227   2.541   0.950   9.112 -0.9786 -0.0178  0.2564
  116OSM   H16F12228   2.515   1.055   9.086  1.1541  0.3953 -0.3812
  116OSM   H16G12229   2.447   0.890   9.110 -0.0452 -1.5347  0.4934
  116OSM   C17F12230   2.636   0.907   8.994 -0.7451 -0.1308  0.2728
  116OSM   H17F12231   2.702   0.824   9.027 -1.4723 -1.6878 -1.9573
  116OSM   H17G12232   2.711   0.983   8.962 -1.3889  0.5409  0.3334
  116OSM   C18F12233   2.554   0.870   8.872 -0.1749 -0.7978  0.6699
  116OSM   H18F12234   2.620   0.871   8.782 -2.9833  1.9829 -1.6245
  116OSM   H18G12235   2.467   0.934   8.846  0.1206 -0.8474 -0.4844
  116OSM   H18H12236   2.506   0.772   8.891 -0.1067 -1.3385 -1.6021
  117OSM      N12237   3.324   4.509  11.472 -0.5399 -0.1411 -0.5534
  117OSM    C1512238   3.246   4.380  11.475  0.4421 -0.1891 -0.2764
  117OSM   H15A12239   3.312   4.297  11.457 -0.1272 -0.2053 -2.5389
  117OSM   H15B12240   3.168   4.391  11.401 -0.8192  2.6398  1.3123
  117OSM   H15C12241   3.191   4.369  11.568 -2.6677  0.7091 -1.8530
  117OSM    C1412242   3.244   4.626  11.516  0.6942  0.3583 -0.3076
  117OSM   H14A12243   3.196   4.673  11.432  0.0445 -2.4597 -1.6512
  117OSM   H14B12244   3.308   4.698  11.564  1.6118 -0.4606 -0.2650
  117OSM   H14C12245   3.170   4.591  11.585  1.4204 -0.1689  0.2208
  117OSM    C1312246   3.430   4.492  11.583  0.6279 -0.3030 -0.0381
  117OSM   H13A12247   3.504   4.419  11.556  1.5626  0.6413 -0.0924
  117OSM   H13B12248   3.376   4.453  11.668  1.0627 -0.0192  0.3749
  117OSM   H13C12249   3.471   4.590  11.605 -1.0715  0.1642  1.2358
  117OSM    C1212250   3.383   4.535  11.334 -0.0054  0.3620  0.3404
  117OSM   H12A12251   3.457   4.463  11.304 -1.5879 -1.2406  0.1525
  117OSM   H12B12252   3.420   4.637  11.328 -0.4700  0.4359 -2.0492
  117OSM    C1112253   3.285   4.526  11.207  1.0313 -0.2581 -0.4409
  117OSM   H11A12254   3.344   4.566  11.122 -0.5057  0.1217 -1.3737
  117OSM   H11B12255   3.205   4.602  11.220  0.9792 -0.4282  0.2699
  117OSM      P12256   3.105   4.375  11.098  0.2472 -0.0353  0.1359
  117OSM    O1312257   3.097   4.239  11.044  0.3463 -0.2916  0.0258
  117OSM    O1412258   2.983   4.424  11.167  0.1011 -0.2281 -0.3070
  117OSM    O1112259   3.133   4.481  10.976 -0.1103  0.3052  0.2286
  117OSM    O1212260   3.245   4.392  11.181  0.5060  0.6830 -0.0645
  117OSM    C1S12261   3.228   4.438  10.874  0.0168  0.0563 -0.2249
  117OSM    H1S12262   3.302   4.363  10.907  0.1439  0.6507  0.8786
  117OSM    H1T12263   3.290   4.525  10.843 -1.4298  0.7648 -1.3019
  117OSM     NF12264   3.253   4.349  10.643  0.5633  0.1676 -0.1056
  117OSM    HNF12265   3.234   4.386  10.553  1.4220 -2.4964 -1.4830
  117OSM    C2S12266   3.156   4.382  10.748 -0.3717  0.1168  0.1656
  117OSM    H2S12267   3.107   4.287  10.776 -0.7910  0.3402  0.1950
  117OSM    C3S12268   3.041   4.477  10.694  0.5667 -0.3668  0.3791
  117OSM    H3S12269   3.082   4.574  10.660  0.3108 -0.0909  0.8400
  117OSM     O312270   2.944   4.512  10.795  0.4945 -0.1663 -0.1232
  117OSM    HO312271   2.985   4.492  10.879  0.1953 -2.1445 -0.4034
  117OSM    C4S12272   2.969   4.414  10.583 -0.7490 -0.5271  0.4169
  117OSM    H4S12273   2.915   4.324  10.618  1.1510 -2.3664 -1.1148
  117OSM    C5S12274   2.981   4.445  10.453  0.0546  0.1171  0.1759
  117OSM    H5S12275   3.032   4.538  10.426 -0.4597 -0.0351 -1.4126
  117OSM    C6S12276   2.906   4.364  10.344  0.3473 -1.4182  0.7578
  117OSM    H6S12277   2.838   4.294  10.398 -2.6842 -0.5231 -1.6353
  117OSM    H6T12278   2.972   4.294  10.288  0.4833  0.3373 -1.3878
  117OSM    C7S12279   2.815   4.457  10.256 -0.1782  0.3788  0.0856
  117OSM    H7S12280   2.769   4.529  10.326 -1.5381 -1.4769  1.1736
  117OSM    H7T12281   2.736   4.409  10.195 -0.1346  2.1761 -1.5112
  117OSM    C8S12282   2.902   4.544  10.158 -0.1743 -0.3525  0.2622
  117OSM    H8S12283   3.000   4.578  10.197 -0.7993  1.3581  0.4043
  117OSM    H8T12284   2.842   4.638  10.150 -0.1167 -0.3898 -0.7296
  117OSM    C9S12285   2.922   4.480  10.022  1.3377  1.0264  0.9729
  117OSM    H9S12286   2.826   4.452   9.973  1.0205  1.9567  1.0393
  117OSM    H9T12287   2.979   4.385  10.031 -0.3624 -0.2008 -0.5667
  117OSM   C10S12288   2.991   4.567   9.917  0.0275 -0.4459  0.6207
  117OSM   H10S12289   3.092   4.590   9.956  0.0869  1.5804 -0.5509
  117OSM   H10T12290   2.944   4.666   9.894  1.4068  0.1860  0.4315
  117OSM   C11S12291   3.006   4.493   9.782  0.7842  0.0012 -0.1231
  117OSM   H11S12292   2.901   4.463   9.763  0.3814  0.7814  0.7814
  117OSM   H11T12293   3.064   4.400   9.799  0.6172 -0.2855 -1.0739
  117OSM   C12S12294   3.064   4.579   9.671 -0.3926  0.8182 -0.1541
  117OSM   H12S12295   3.174   4.589   9.684 -0.2117  1.5533 -2.0182
  117OSM   H12T12296   3.022   4.681   9.687 -1.6073  0.4166 -0.7125
  117OSM   C13S12297   3.028   4.527   9.530  0.3858  0.2448  0.8084
  117OSM   H13S12298   3.065   4.600   9.454 -2.3105  0.6576 -0.2188
  117OSM   H13T12299   2.920   4.508   9.513 -0.2628  1.7330  2.8179
  117OSM   C14S12300   3.088   4.386   9.504  0.3781  0.8746  0.2314
  117OSM   H14S12301   3.056   4.309   9.577  0.9942 -1.7582 -2.0942
  117OSM   H14T12302   3.198   4.395   9.517  0.4836 -0.1140  0.1548
  117OSM   C15S12303   3.072   4.340   9.359  0.8410 -0.0854 -1.0106
  117OSM   H15S12304   2.972   4.360   9.317  0.6273 -2.1274 -1.5596
  117OSM   H15T12305   3.090   4.230   9.357 -0.3761 -0.4329  1.8511
  117OSM   C16S12306   3.171   4.413   9.266 -0.1251 -0.3483 -0.1812
  117OSM   H16S12307   3.275   4.385   9.294  0.0915  1.3537  0.8753
  117OSM   H16T12308   3.163   4.524   9.269  1.2300 -0.2358  2.6052
  117OSM   C17S12309   3.167   4.373   9.113 -0.1486 -0.5498 -1.1413
  117OSM   H17S12310   3.074   4.419   9.072 -0.0236  1.5675  0.7538
  117OSM   H17T12311   3.163   4.262   9.113  0.9513 -0.6022 -0.5055
  117OSM   C18S12312   3.289   4.416   9.038  0.2651 -0.2785 -0.3120
  117OSM   H18S12313   3.283   4.386   8.932 -2.2160  0.0649 -0.3173
  117OSM   H18T12314   3.377   4.375   9.093 -0.9791 -0.0760  1.9783
  117OSM   H18U12315   3.300   4.527   9.031  0.1126 -0.2477 -0.0710
  117OSM    C1F12316   3.341   4.250  10.647  0.0155 -0.2185 -0.3906
  117OSM     OF12317   3.337   4.171  10.741 -0.2415  0.3053  1.1081
  117OSM    C2F12318   3.432   4.237  10.524 -0.4932  0.5720  0.6138
  117OSM    H2F12319   3.536   4.243  10.562 -0.7674  1.2183  1.3053
  117OSM    H2G12320   3.428   4.325  10.456  2.9207 -0.0635 -0.5703
  117OSM    C3F12321   3.405   4.103  10.450 -1.0603 -0.1531  0.6243
  117OSM    H3F12322   3.306   4.119  10.402  0.2418  0.6286 -2.0462
  117OSM    H3G12323   3.389   4.015  10.515 -2.7999 -1.0716 -0.9578
  117OSM    C4F12324   3.510   4.081  10.334  0.1873  0.1847 -0.0901
  117OSM    H4F12325   3.611   4.094  10.379  0.3565 -0.4084 -0.2897
  117OSM    H4G12326   3.517   4.164  10.261  1.0567 -0.4375 -0.7386
  117OSM    C5F12327   3.501   3.946  10.274  0.4373 -0.3336  0.6486
  117OSM    H5F12328   3.468   3.875  10.353  1.8772 -0.3739  1.2570
  117OSM    H5G12329   3.602   3.915  10.237  0.1066 -2.2657  1.2767
  117OSM    C6F12330   3.386   3.936  10.168 -0.2604 -0.1501 -0.0401
  117OSM    H6F12331   3.414   3.989  10.074 -0.3088  0.8196  0.4727
  117OSM    H6G12332   3.305   3.986  10.224 -1.3026 -0.5943 -1.1194
  117OSM    C7F12333   3.340   3.791  10.141  0.0962  0.2679 -0.4572
  117OSM    H7F12334   3.255   3.797  10.069  0.0628 -1.8972 -0.6647
  117OSM    H7G12335   3.303   3.746  10.235 -0.8223 -0.1933 -1.0279
  117OSM    C8F12336   3.457   3.705  10.080  0.7949  0.5341 -0.3116
  117OSM    H8F12337   3.411   3.606  10.060  0.9681 -0.1863  2.4796
  117OSM    H8G12338   3.536   3.682  10.155  0.6606 -0.7542 -0.5379
  117OSM    C9F12339   3.525   3.775   9.966 -0.0851  0.4704  0.0653
  117OSM    H9F12340   3.608   3.844   9.987  0.2643 -0.4157  1.7972
  117OSM   C10F12341   3.489   3.765   9.841 -1.1103 -0.5619  0.1646
  117OSM   H10F12342   3.557   3.817   9.772 -0.3718 -2.5840 -0.6981
  117OSM   C11F12343   3.373   3.683   9.791 -0.3136  0.7774 -0.1211
  117OSM   H11F12344   3.279   3.710   9.844 -0.9118  0.6032 -1.0801
  117OSM   H11G12345   3.380   3.579   9.831  2.7645  1.4332  1.3310
  117OSM   C12F12346   3.325   3.691   9.644 -0.2510  0.1830  0.3666
  117OSM   H12F12347   3.321   3.798   9.616  3.0368  0.4531  0.4423
  117OSM   H12G12348   3.223   3.648   9.639  0.2227 -0.9066 -0.1448
  117OSM   C13F12349   3.415   3.625   9.546  0.5976  0.8521 -0.1498
  117OSM   H13F12350   3.460   3.530   9.583  0.3518  1.0166  0.5768
  117OSM   H13G12351   3.490   3.696   9.505  0.8880  1.7303  1.8085
  117OSM   C14F12352   3.331   3.585   9.422 -0.1790  0.2006 -0.4165
  117OSM   H14F12353   3.281   3.674   9.378  1.8465  2.4559  1.5583
  117OSM   H14G12354   3.248   3.522   9.460  0.0374  0.0911 -0.1191
  117OSM   C15F12355   3.426   3.528   9.312  0.3056  1.0105 -0.1753
  117OSM   H15F12356   3.483   3.448   9.364 -1.6297 -1.4231 -1.5867
  117OSM   H15G12357   3.494   3.606   9.272  2.3875 -0.7736 -0.3134
  117OSM   C16F12358   3.354   3.449   9.204  0.3685  0.1097 -0.0302
  117OSM   H16F12359   3.265   3.393   9.240  1.1122 -2.5059 -1.9849
  117OSM   H16G12360   3.431   3.380   9.163 -1.4300 -1.1049 -1.5150
  117OSM   C17F12361   3.316   3.547   9.093  0.5183 -0.2444 -0.4955
  117OSM   H17F12362   3.262   3.637   9.131 -0.2878 -0.9988  0.1609
  117OSM   H17G12363   3.249   3.495   9.022 -0.6147 -1.1297  1.1655
  117OSM   C18F12364   3.439   3.605   9.012  0.1631  0.3580 -0.1226
  117OSM   H18F12365   3.506   3.659   9.082 -0.9535 -0.2123  1.4293
  117OSM   H18G12366   3.410   3.673   8.929  3.1303  2.0699  0.1091
  117OSM   H18H12367   3.481   3.511   8.971  0.1640 -0.4120  1.5854
  118OSM      N12368   3.018   5.237  11.316 -1.0442 -0.5112  0.4105
  118OSM    C1512369   3.119   5.143  11.369  0.0173 -0.0123 -0.0679
  118OSM   H15A12370   3.218   5.155  11.327 -0.6465  0.8188 -1.4842
  118OSM   H15B12371   3.098   5.042  11.340  0.6835  0.0144 -0.6717
  118OSM   H15C12372   3.125   5.153  11.476  0.0564  3.2958 -0.2606
  118OSM    C1412373   2.893   5.216  11.387 -0.2172 -0.2202  0.0132
  118OSM   H14A12374   2.821   5.282  11.343  0.9882  0.4082 -1.0835
  118OSM   H14B12375   2.901   5.237  11.493 -1.8506  1.2752 -0.1203
  118OSM   H14C12376   2.848   5.118  11.383  0.2667 -0.4806  0.7364
  118OSM    C1312377   3.080   5.375  11.341 -0.2370 -0.3885  0.0940
  118OSM   H13A12378   3.176   5.388  11.295  0.1094 -1.0111  0.6339
  118OSM   H13B12379   3.086   5.387  11.448  0.3933 -0.7403  0.0965
  118OSM   H13C12380   3.018   5.455  11.301 -0.3410 -0.3017  0.4297
  118OSM    C1212381   2.998   5.224  11.162 -0.6782  0.1413  0.0337
  118OSM   H12A12382   2.972   5.120  11.147  0.7724 -0.2228 -0.2095
  118OSM   H12B12383   3.096   5.223  11.117 -0.7217 -2.9229 -0.2201
  118OSM    C1112384   2.894   5.308  11.088  0.6459  0.6914  0.7899
  118OSM   H11A12385   2.912   5.300  10.979  0.3256 -1.2362  0.8336
  118OSM   H11B12386   2.899   5.415  11.116  0.6981  1.3804 -1.6902
  118OSM      P12387   2.694   5.131  11.099 -0.0947  0.0263 -0.1307
  118OSM    O1312388   2.622   5.083  11.224 -0.2377  0.0565  0.4956
  118OSM    O1412389   2.623   5.139  10.974 -0.7229 -0.4283  0.1298
  118OSM    O1112390   2.816   5.038  11.066  0.6666 -0.5907  1.1218
  118OSM    O1212391   2.763   5.261  11.127 -0.1587 -0.3093 -0.3973
  118OSM    C1S12392   2.805   4.892  11.066 -0.0204 -0.0085 -0.0394
  118OSM    H1S12393   2.748   4.866  11.158  1.0349  1.3142  1.0250
  118OSM    H1T12394   2.904   4.842  11.077 -1.6067 -3.1098  1.6701
  118OSM     NF12395   2.719   4.700  10.953 -0.3598  0.3215  0.2289
  118OSM    HNF12396   2.774   4.631  10.906 -0.5164 -0.2058  0.8067
  118OSM    C2S12397   2.749   4.839  10.936  0.1831  0.2050  0.4651
  118OSM    H2S12398   2.658   4.894  10.904  0.2489  1.4796  2.2784
  118OSM    C3S12399   2.851   4.863  10.820 -0.2430  0.2193 -0.1211
  118OSM    H3S12400   2.929   4.785  10.831 -0.4169 -0.3590 -2.4668
  118OSM     O312401   2.943   4.973  10.827  0.5624 -0.5684  0.6705
  118OSM    HO312402   2.930   5.009  10.915  2.1225 -0.5248  0.9165
  118OSM    C4S12403   2.781   4.863  10.688  0.1086  0.0495 -0.7146
  118OSM    H4S12404   2.766   4.768  10.635 -0.6502 -0.1325 -0.1899
  118OSM    C5S12405   2.731   4.979  10.631  0.3977  0.3453 -0.5262
  118OSM    H5S12406   2.746   5.074  10.685 -0.9510 -0.2530  0.9770
  118OSM    C6S12407   2.672   4.988  10.489  0.6865  0.3655 -0.8734
  118OSM    H6S12408   2.715   5.073  10.433 -0.4076  1.6660  0.1858
  118OSM    H6T12409   2.563   5.007  10.491  0.6947  0.4401 -1.0914
  118OSM    C7S12410   2.678   4.859  10.407 -0.1887 -0.9697 -0.0773
  118OSM    H7S12411   2.608   4.788  10.456  0.0193  0.0650  1.8445
  118OSM    H7T12412   2.786   4.830  10.405  0.8016  2.1522  1.3644
  118OSM    C8S12413   2.645   4.886  10.258  0.2482  0.2700 -0.6404
  118OSM    H8S12414   2.565   4.963  10.252 -1.2509 -1.2365 -0.4969
  118OSM    H8T12415   2.610   4.789  10.218 -0.3275  0.9619 -1.8554
  118OSM    C9S12416   2.758   4.928  10.166  0.0344  0.1996  0.5384
  118OSM    H9S12417   2.848   4.865  10.175 -0.8480 -1.9574 -3.4565
  118OSM    H9T12418   2.793   5.025  10.208 -1.9040  0.5904  1.3792
  118OSM   C10S12419   2.715   4.947  10.014  0.0288  0.2992  0.5134
  118OSM   H10S12420   2.632   5.021  10.014 -0.4563 -0.2354 -0.1080
  118OSM   H10T12421   2.670   4.851   9.980 -0.8620  1.2784 -1.2074
  118OSM   C11S12422   2.819   4.997   9.914  0.1633 -0.0541 -0.1539
  118OSM   H11S12423   2.913   4.938   9.914  2.0949  2.7970  0.2879
  118OSM   H11T12424   2.859   5.096   9.946  3.0432 -1.8338  2.2082
  118OSM   C12S12425   2.763   4.962   9.778 -0.1913 -0.2178  0.2377
  118OSM   H12S12426   2.672   5.023   9.762 -0.3900 -0.2139  1.2694
  118OSM   H12T12427   2.725   4.857   9.775 -0.9329  0.0608 -3.2430
  118OSM   C13S12428   2.866   5.001   9.675  0.6816  0.2796 -1.0276
  118OSM   H13S12429   2.963   4.953   9.699 -0.9944 -2.0870  1.5504
  118OSM   H13T12430   2.896   5.107   9.660  0.3727  0.2592 -1.8251
  118OSM   C14S12431   2.823   4.950   9.538  0.1545  0.2870 -0.0844
  118OSM   H14S12432   2.732   5.009   9.512  0.5160  1.3270  0.9342
  118OSM   H14T12433   2.798   4.842   9.544  0.9387  0.0898 -0.2421
  118OSM   C15S12434   2.921   4.973   9.420 -0.0843  0.0097 -0.1121
  118OSM   H15S12435   2.911   4.887   9.351  2.9098 -0.0798 -0.5765
  118OSM   H15T12436   3.029   4.973   9.448  0.0977  0.5975 -0.7797
  118OSM   C16S12437   2.881   5.099   9.343 -0.0543  0.2661  0.4204
  118OSM   H16S12438   2.856   5.185   9.407 -0.2232 -0.2904  1.1176
  118OSM   H16T12439   2.783   5.079   9.295  1.1078 -0.0476 -2.0098
  118OSM   C17S12440   2.984   5.151   9.242 -0.3875 -0.5275 -0.0002
  118OSM   H17S12441   3.032   5.061   9.197 -0.3943 -1.0006  0.9136
  118OSM   H17T12442   3.065   5.213   9.284 -1.2387 -0.2955  1.3361
  118OSM   C18S12443   2.923   5.242   9.132  0.8910 -0.1639 -0.0173
  118OSM   H18S12444   2.850   5.181   9.075 -0.3267 -1.4349  2.7120
  118OSM   H18T12445   2.994   5.294   9.064  0.3283 -0.3262 -0.7417
  118OSM   H18U12446   2.879   5.328   9.188 -1.7196 -1.2076 -0.3152
  118OSM    C1F12447   2.615   4.656  11.025 -0.0121 -0.9035  0.0539
  118OSM     OF12448   2.517   4.731  11.053  0.0998 -0.7744 -0.4335
  118OSM    C2F12449   2.617   4.516  11.065 -0.1723  1.0541 -0.2858
  118OSM    H2F12450   2.589   4.509  11.172  1.1353  0.7951  0.0620
  118OSM    H2G12451   2.722   4.484  11.045 -0.5775  0.5658 -1.7875
  118OSM    C3F12452   2.519   4.428  10.987  0.1510 -0.4565 -0.0290
  118OSM    H3F12453   2.419   4.473  11.004  1.8887  2.7738  2.6829
  118OSM    H3G12454   2.524   4.324  11.026  1.1375 -0.6727 -0.6899
  118OSM    C4F12455   2.534   4.424  10.839 -0.6406 -0.1986  0.3408
  118OSM    H4F12456   2.631   4.372  10.821 -0.5190 -0.3927  1.4875
  118OSM    H4G12457   2.545   4.525  10.795  3.8531 -1.1471 -1.2349
  118OSM    C5F12458   2.427   4.342  10.769  0.2306  0.4933  0.0236
  118OSM    H5F12459   2.329   4.386  10.799 -1.0083 -1.8966 -0.2488
  118OSM    H5G12460   2.410   4.238  10.802 -2.7088  0.6272 -0.7070
  118OSM    C6F12461   2.447   4.339  10.617 -1.1115 -0.5411  0.3040
  118OSM    H6F12462   2.553   4.310  10.600 -1.3819 -0.2514 -2.3783
  118OSM    H6G12463   2.449   4.446  10.585  1.1763 -0.2476  1.2018
  118OSM    C7F12464   2.347   4.262  10.537 -0.1587 -0.4157 -0.1938
  118OSM    H7F12465   2.244   4.292  10.565  0.9399  0.4154  3.4676
  118OSM    H7G12466   2.361   4.153  10.552  0.1842 -0.2982  0.3655
  118OSM    C8F12467   2.365   4.280  10.381 -0.2363  0.3434 -0.3097
  118OSM    H8F12468   2.401   4.381  10.352 -2.0727  1.0408 -0.2892
  118OSM    H8G12469   2.261   4.268  10.345 -0.6901 -2.3022  1.5429
  118OSM    C9F12470   2.456   4.180  10.313  0.2802 -0.1197 -0.5162
  118OSM    H9F12471   2.560   4.214  10.303  1.5948 -3.1127  1.5470
  118OSM   C10F12472   2.423   4.068  10.247 -0.2264  0.2544 -0.5233
  118OSM   H10F12473   2.507   4.011  10.205 -0.5914 -0.3566 -0.4456
  118OSM   C11F12474   2.291   4.003  10.221 -0.6486 -0.0478  0.1118
  118OSM   H11F12475   2.215   4.076  10.256  1.1225  1.5511  0.7949
  118OSM   H11G12476   2.275   3.912  10.283  3.6644 -0.0593  1.5469
  118OSM   C12F12477   2.276   3.972  10.070  0.1592 -0.5942 -0.1527
  118OSM   H12F12478   2.349   3.896  10.034  0.7870 -0.6707  1.2290
  118OSM   H12G12479   2.291   4.055   9.997  0.6457 -0.5887 -0.0542
  118OSM   C13F12480   2.135   3.899  10.053 -0.1528  0.0288 -0.3974
  118OSM   H13F12481   2.068   3.974  10.100 -0.2857 -0.5489  0.3426
  118OSM   H13G12482   2.134   3.805  10.111 -1.9802  1.1877  1.5848
  118OSM   C14F12483   2.097   3.868   9.910  0.3585 -0.4797  0.2720
  118OSM   H14F12484   2.169   3.806   9.851  1.6603  1.8149 -0.7262
  118OSM   H14G12485   2.103   3.960   9.848  1.0661 -0.0111  1.0191
  118OSM   C15F12486   1.959   3.811   9.893  0.4255  1.0595  0.2436
  118OSM   H15F12487   1.932   3.721   9.953 -1.4762  1.9395  0.7762
  118OSM   H15G12488   1.950   3.772   9.790 -3.1563 -0.0766  0.8540
  118OSM   C16F12489   1.851   3.911   9.918 -0.0934  0.2703  0.4428
  118OSM   H16F12490   1.780   3.909   9.832 -1.4343  0.1635  1.5167
  118OSM   H16G12491   1.886   4.016   9.909 -3.9875  1.8212  1.2090
  118OSM   C17F12492   1.781   3.887  10.050 -0.4053 -0.6249 -0.5793
  118OSM   H17F12493   1.854   3.910  10.131 -0.7778  1.0233 -0.6715
  118OSM   H17G12494   1.755   3.781  10.067  1.0530 -0.5934  2.4958
  118OSM   C18F12495   1.658   3.975  10.066 -0.0823  0.1033  0.4928
  118OSM   H18F12496   1.621   3.967  10.171  2.6256  2.0317  1.7126
  118OSM   H18G12497   1.577   3.939   9.999 -0.0465  1.0431 -0.0871
  118OSM   H18H12498   1.658   4.086  10.055 -1.1389  0.2270  1.4898
  119OSM      N12499   4.034   3.636  11.168  0.0131  0.1909 -0.0427
  119OSM    C1512500   4.162   3.580  11.212 -0.1198  0.3009 -0.1932
  119OSM   H15A12501   4.235   3.655  11.238  0.4600 -0.4941  0.5249
  119OSM   H15B12502   4.211   3.514  11.141  0.2673 -0.0317  0.3766
  119OSM   H15C12503   4.155   3.527  11.306 -2.4038  2.5664  1.0218
  119OSM    C1412504   3.942   3.515  11.136  0.2490 -0.2192 -0.2110
  119OSM   H14A12505   3.944   3.449  11.222 -1.1865  1.0733  0.8860
  119OSM   H14B12506   3.977   3.472  11.044 -0.3592  0.7836 -0.9337
  119OSM   H14C12507   3.840   3.549  11.129  0.3174  0.2147  0.7450
  119OSM    C1312508   3.972   3.707  11.284  0.5065  0.2256 -0.0790
  119OSM   H13A12509   3.876   3.751  11.262  0.2927  0.0516  0.4871
  119OSM   H13B12510   4.042   3.777  11.325 -0.2209  0.3247  1.0207
  119OSM   H13C12511   3.949   3.632  11.358 -0.9387  1.1717  0.4785
  119OSM    C1212512   4.053   3.717  11.043  1.2235  0.4855 -0.2194
  119OSM   H12A12513   4.105   3.659  10.967  3.5875 -0.9262  2.2978
  119OSM   H12B12514   4.122   3.800  11.052  2.5993 -0.4219 -1.7286
  119OSM    C1112515   3.920   3.779  10.977 -0.1007  0.0236 -0.4849
  119OSM   H11A12516   3.845   3.697  10.982  2.0357 -1.9431  1.8995
  119OSM   H11B12517   3.941   3.800  10.869  0.6842 -0.4052 -0.4287
  119OSM      P12518   3.956   4.029  11.052 -0.2318  0.2752  0.0714
  119OSM    O1312519   3.882   4.125  11.135  0.3883 -0.2990  0.0365
  119OSM    O1412520   4.098   3.997  11.084 -0.4895  0.2119  0.0119
  119OSM    O1112521   3.934   4.058  10.901  0.2171 -0.3261  0.5369
  119OSM    O1212522   3.875   3.887  11.050  0.1092 -0.2337 -0.0010
  119OSM    C1S12523   4.026   4.144  10.821  0.5662 -0.0018  0.4701
  119OSM    H1S12524   4.126   4.139  10.869  0.5678 -0.4058  0.4296
  119OSM    H1T12525   3.997   4.250  10.833  0.9613  0.1286  0.2784
  119OSM     NF12526   4.144   4.159  10.609 -0.1249 -0.2803  0.8111
  119OSM    HNF12527   4.127   4.235  10.546 -0.7093 -0.4283  0.7808
  119OSM    C2S12528   4.033   4.099  10.666  1.1013  0.2091  0.1354
  119OSM    H2S12529   4.044   3.988  10.671 -0.1575  0.0509 -0.2579
  119OSM    C3S12530   3.891   4.138  10.598  0.1302 -0.2566 -0.2121
  119OSM    H3S12531   3.873   4.245  10.621 -0.3874 -0.9787  3.3199
  119OSM     O312532   3.780   4.069  10.660 -0.3277  0.0294 -0.1721
  119OSM    HO312533   3.822   4.052  10.745 -0.9041 -0.1869  0.0688
  119OSM    C4S12534   3.896   4.123  10.448 -0.2290  0.0941  0.1065
  119OSM    H4S12535   3.891   4.216  10.389 -0.8630  0.0842  0.1384
  119OSM    C5S12536   3.902   4.000  10.389 -0.0365 -0.9940 -0.0484
  119OSM    H5S12537   3.899   3.907  10.447  2.1031 -1.1179 -0.0349
  119OSM    C6S12538   3.909   3.986  10.236  0.3849  0.3960 -0.2861
  119OSM    H6S12539   3.859   3.892  10.206 -1.6524  1.0616  0.8428
  119OSM    H6T12540   4.014   3.962  10.211  0.5313  0.6632  0.0590
  119OSM    C7S12541   3.845   4.089  10.141  0.0446 -0.6086 -0.4340
  119OSM    H7S12542   3.856   4.196  10.166 -0.5886 -0.5419 -0.4108
  119OSM    H7T12543   3.735   4.070  10.144  0.0092 -0.4183 -0.5352
  119OSM    C8S12544   3.896   4.082   9.994 -0.5353 -0.9077  1.1677
  119OSM    H8S12545   4.000   4.043   9.996 -0.5931 -1.0911  0.7103
  119OSM    H8T12546   3.901   4.185   9.953 -2.3766 -1.5480 -0.8356
  119OSM    C9S12547   3.820   3.980   9.904 -0.6895  0.6188 -0.1506
  119OSM    H9S12548   3.714   4.009   9.914 -0.8931  0.3807 -1.4681
  119OSM    H9T12549   3.838   3.880   9.948 -1.1021  1.1137  1.1988
  119OSM   C10S12550   3.852   3.986   9.758  1.0603 -0.3687  0.2999
  119OSM   H10S12551   3.858   4.095   9.741  0.9751 -0.3258  0.5543
  119OSM   H10T12552   3.758   3.957   9.706  1.0102 -1.5240  0.9987
  119OSM   C11S12553   3.986   3.922   9.709  0.2022  0.3192 -0.1219
  119OSM   H11S12554   3.968   3.814   9.721 -0.3130  0.1361 -2.1379
  119OSM   H11T12555   4.069   3.954   9.776  0.0130 -1.1095  0.8332
  119OSM   C12S12556   4.024   3.933   9.565 -0.7845 -0.7763  0.6151
  119OSM   H12S12557   4.117   3.875   9.554  0.1041  0.7518 -0.1354
  119OSM   H12T12558   4.061   4.032   9.534 -1.3315 -0.8860 -0.4277
  119OSM   C13S12559   3.911   3.885   9.477 -0.4262 -0.9902  0.4536
  119OSM   H13S12560   3.813   3.932   9.499  0.3629  1.9430 -1.8302
  119OSM   H13T12561   3.903   3.774   9.488  1.6692 -1.0348  2.3843
  119OSM   C14S12562   3.925   3.912   9.324 -0.4449 -0.0931  0.0809
  119OSM   H14S12563   3.836   3.884   9.264 -0.3130  0.4938 -0.3985
  119OSM   H14T12564   4.022   3.870   9.291 -0.7399  0.2466 -1.2728
  119OSM   C15S12565   3.936   4.060   9.277 -0.6794  0.7466 -1.0814
  119OSM   H15S12566   4.019   4.106   9.335 -0.3721 -0.9268 -0.1441
  119OSM   H15T12567   3.844   4.112   9.310  0.2263  0.5726  2.0492
  119OSM   C16S12568   3.963   4.072   9.128 -0.2094 -0.1088 -0.0230
  119OSM   H16S12569   3.921   3.981   9.079 -1.1362  0.3356 -0.0730
  119OSM   H16T12570   4.073   4.074   9.109  0.3378  1.0766  2.7627
  119OSM   C17S12571   3.911   4.197   9.064 -0.2066  0.0391  0.1934
  119OSM   H17S12572   3.803   4.213   9.086 -0.1672  2.4204 -1.0066
  119OSM   H17T12573   3.919   4.178   8.955 -1.7692 -0.2577  0.1041
  119OSM   C18S12574   3.996   4.316   9.108 -0.3107  0.1940  0.3779
  119OSM   H18S12575   3.985   4.329   9.218 -0.7239 -0.9168  0.4787
  119OSM   H18T12576   3.965   4.403   9.048 -1.5469  0.4173  1.3028
  119OSM   H18U12577   4.103   4.287   9.093 -0.3427 -0.2487  0.9411
  119OSM    C1F12578   4.263   4.114  10.636 -0.8867  0.2495 -0.1270
  119OSM     OF12579   4.295   4.046  10.731 -0.5256 -0.3992  0.2290
  119OSM    C2F12580   4.364   4.187  10.553 -0.5697  0.3178  0.4368
  119OSM    H2F12581   4.455   4.203  10.616  0.1946  0.6177 -0.7200
  119OSM    H2G12582   4.325   4.290  10.538 -1.1383  0.7207  3.7739
  119OSM    C3F12583   4.400   4.112  10.417 -0.2096 -0.1490  0.0493
  119OSM    H3F12584   4.428   4.008  10.446  0.8775  0.8374  2.8552
  119OSM    H3G12585   4.482   4.160  10.360 -0.0678  1.5926  1.6159
  119OSM    C4F12586   4.269   4.097  10.331  0.0477  0.4028  0.4086
  119OSM    H4F12587   4.207   4.189  10.322 -0.2747  0.1147 -0.4232
  119OSM    H4G12588   4.212   4.016  10.382 -1.2984  1.5860  0.8360
  119OSM    C5F12589   4.294   4.046  10.183  0.1625  0.0187 -0.9286
  119OSM    H5F12590   4.201   4.016  10.131  0.1658 -0.5758 -0.5971
  119OSM    H5G12591   4.369   3.964  10.183  0.9610  0.4322  3.9850
  119OSM    C6F12592   4.364   4.155  10.098  0.0485  0.3974 -0.7458
  119OSM    H6F12593   4.461   4.156  10.153  0.4342 -1.7754 -1.3073
  119OSM    H6G12594   4.311   4.253  10.097 -1.3774 -0.3213  0.5076
  119OSM    C7F12595   4.393   4.108   9.959 -0.5643 -0.3026 -0.4712
  119OSM    H7F12596   4.389   3.998   9.955  1.8030 -0.4474 -0.2335
  119OSM    H7G12597   4.489   4.156   9.933 -0.8708  0.6676  0.1004
  119OSM    C8F12598   4.287   4.170   9.864  0.2230  0.1047  0.6626
  119OSM    H8F12599   4.188   4.145   9.909 -0.4813  0.1798 -0.7876
  119OSM    H8G12600   4.299   4.096   9.783  0.9846 -1.5514  2.2144
  119OSM    C9F12601   4.292   4.318   9.829 -0.3164  0.3874  0.1797
  119OSM    H9F12602   4.279   4.383   9.918  0.4106 -0.6961  1.1045
  119OSM   C10F12603   4.315   4.372   9.706 -0.6901  0.3135 -0.2387
  119OSM   H10F12604   4.329   4.481   9.701  1.3695  0.2020  1.5230
  119OSM   C11F12605   4.312   4.292   9.576 -0.1567 -1.1616 -0.7139
  119OSM   H11F12606   4.324   4.183   9.592  2.6630 -1.4920 -3.9008
  119OSM   H11G12607   4.396   4.324   9.511  0.6407 -1.2222  0.2732
  119OSM   C12F12608   4.178   4.308   9.505 -0.0736 -0.5879 -0.3545
  119OSM   H12F12609   4.098   4.282   9.578  0.9074  0.1015  1.0243
  119OSM   H12G12610   4.178   4.232   9.424  2.3303 -1.2328  0.1598
  119OSM   C13F12611   4.143   4.450   9.439 -0.2275 -0.5304  0.5412
  119OSM   H13F12612   4.142   4.527   9.519 -1.2946 -0.1562  0.1878
  119OSM   H13G12613   4.045   4.442   9.388 -0.0063 -1.8087  0.2681
  119OSM   C14F12614   4.249   4.493   9.340  0.7137 -0.4453  0.4315
  119OSM   H14F12615   4.279   4.411   9.272  4.0083  0.6305  0.4272
  119OSM   H14G12616   4.340   4.527   9.393  0.9215 -1.0425  0.4651
  119OSM   C15F12617   4.206   4.601   9.247 -0.4956 -0.3389  0.1549
  119OSM   H15F12618   4.183   4.690   9.308  2.0871 -0.3887  1.3368
  119OSM   H15G12619   4.113   4.562   9.201 -1.1862 -2.1459  2.8231
  119OSM   C16F12620   4.314   4.648   9.147  0.3670 -0.2834 -0.5382
  119OSM   H16F12621   4.338   4.550   9.100 -0.6084 -0.9828  0.3934
  119OSM   H16G12622   4.410   4.676   9.195  0.4133 -2.6293  0.8816
  119OSM   C17F12623   4.255   4.747   9.048  0.0165  0.5810 -0.9017
  119OSM   H17F12624   4.227   4.837   9.106 -0.1725 -1.1758  1.9087
  119OSM   H17G12625   4.159   4.699   9.021 -0.2476  1.1195 -0.9290
  119OSM   C18F12626   4.332   4.773   8.919 -0.4664  0.0240 -0.4535
  119OSM   H18F12627   4.335   4.680   8.858  1.5911 -0.6721  0.5900
  119OSM   H18G12628   4.436   4.801   8.947 -0.9240  0.5386  0.7992
  119OSM   H18H12629   4.285   4.854   8.859 -0.3724  0.5372  0.1523
  120OSM      N12630   1.984   0.062  11.239  0.6380  0.2984  0.2361
  120OSM    C1512631   2.131   0.104  11.241  0.3542  0.7065 -0.0380
  120OSM   H15A12632   2.142   0.180  11.318  0.3434  1.0779 -0.3986
  120OSM   H15B12633   2.151   0.149  11.145  0.7015 -0.0300 -0.3183
  120OSM   H15C12634   2.196   0.020  11.260 -0.9366 -0.3696 -0.2624
  120OSM    C1412635   1.944  -0.008  11.366  0.2903  0.1375 -0.1238
  120OSM   H14A12636   1.854  -0.068  11.357 -0.3553  1.0499  0.0601
  120OSM   H14B12637   1.925   0.059  11.448 -0.2591  1.1698 -1.0544
  120OSM   H14C12638   2.024  -0.074  11.396 -0.2101 -0.7255 -0.6372
  120OSM    C1312639   1.902   0.184  11.217  0.5046 -0.2061  0.1773
  120OSM   H13A12640   1.878   0.239  11.307  0.7024 -0.3594  0.3221
  120OSM   H13B12641   1.817   0.157  11.156  2.6164 -1.8057 -2.2524
  120OSM   H13C12642   1.965   0.251  11.161  1.9152 -0.9005  0.8781
  120OSM    C1212643   1.964  -0.030  11.129  0.4775  0.2616  0.6067
  120OSM   H12A12644   2.020  -0.120  11.151 -0.7090 -0.8164 -0.6084
  120OSM   H12B12645   2.008   0.016  11.042  1.6703  0.2936  1.2115
  120OSM    C1112646   1.820  -0.085  11.102 -0.5323  0.2946  0.5057
  120OSM   H11A12647   1.780  -0.133  11.194  1.5684 -1.4181  0.6096
  120OSM   H11B12648   1.825  -0.166  11.026  1.1171  1.8876 -1.1985
  120OSM      P12649   1.725   0.076  10.918 -0.2695  0.1726  0.2572
  120OSM    O1312650   1.627  -0.008  10.838 -0.2310 -0.1138  0.4028
  120OSM    O1412651   1.692   0.219  10.929 -0.4991  0.0392  0.1454
  120OSM    O1112652   1.868   0.067  10.861 -0.0908 -0.1881  0.1768
  120OSM    O1212653   1.727   0.018  11.062 -0.1215  0.5993 -0.1293
  120OSM    C1S12654   1.925  -0.052  10.801 -0.4056 -0.5353  0.0422
  120OSM    H1S12655   1.852  -0.135  10.793 -0.4376 -0.3808 -1.9215
  120OSM    H1T12656   2.014  -0.086  10.859  0.5486  0.8579 -0.5572
  120OSM     NF12657   2.017  -0.147  10.593  0.4630 -0.3839  0.2741
  120OSM    HNF12658   2.113  -0.141  10.567  0.3644  0.8410  0.1298
  120OSM    C2S12659   1.959  -0.025  10.650  0.8634  0.4020 -0.8452
  120OSM    H2S12660   1.865  -0.005  10.596  0.9575 -0.5339 -1.3870
  120OSM    C3S12661   2.055   0.096  10.647 -0.1679  0.8516  0.2199
  120OSM    H3S12662   2.147   0.067  10.703 -0.6617  0.0660  0.6428
  120OSM     O312663   2.017   0.218  10.702 -0.7921 -0.0924  0.7061
  120OSM    HO312664   1.938   0.207  10.756 -1.5149  0.8046 -0.1284
  120OSM    C4S12665   2.099   0.117  10.508  0.0948 -0.2236  0.1419
  120OSM    H4S12666   2.197   0.072  10.483  1.0187  1.4309  0.6232
  120OSM    C5S12667   2.039   0.188  10.403 -0.5416 -0.2325  0.3694
  120OSM    H5S12668   1.944   0.241  10.421  0.0330  1.3601 -1.0495
  120OSM    C6S12669   2.107   0.212  10.267  0.3267  0.2913 -0.2254
  120OSM    H6S12670   2.044   0.285  10.212 -1.6671 -0.9011  0.3794
  120OSM    H6T12671   2.117   0.116  10.211 -0.9890  0.1751 -0.2794
  120OSM    C7S12672   2.246   0.272  10.288 -0.0016 -0.2401 -0.6820
  120OSM    H7S12673   2.317   0.211  10.347 -3.0866 -1.5974  1.9401
  120OSM    H7T12674   2.236   0.369  10.341  1.5554 -0.6111  0.3704
  120OSM    C8S12675   2.314   0.289  10.147 -0.1103  0.8537 -0.4907
  120OSM    H8S12676   2.311   0.189  10.099  1.3176  1.2617 -1.4987
  120OSM    H8T12677   2.422   0.303  10.169  0.1989 -2.2378  0.5396
  120OSM    C9S12678   2.255   0.393  10.049  0.0775  0.4379  0.7866
  120OSM    H9S12679   2.265   0.486  10.109 -2.6869  0.3642  1.5177
  120OSM    H9T12680   2.146   0.375  10.041  0.4317 -2.0267  0.6995
  120OSM   C10S12681   2.312   0.375   9.902  0.2367 -0.0506  0.2041
  120OSM   H10S12682   2.422   0.366   9.899  0.1539 -1.0959 -0.2352
  120OSM   H10T12683   2.285   0.470   9.851  0.5110  0.9937  1.9219
  120OSM   C11S12684   2.263   0.257   9.816  0.3704 -0.4991 -0.3735
  120OSM   H11S12685   2.153   0.247   9.833  0.1311 -0.2390 -1.6909
  120OSM   H11T12686   2.303   0.159   9.849 -0.6621 -1.0589 -0.7271
  120OSM   C12S12687   2.267   0.294   9.661  0.4723  0.3515  0.9926
  120OSM   H12S12688   2.370   0.332   9.644  0.5879 -0.7143 -1.0355
  120OSM   H12T12689   2.200   0.379   9.636 -0.5354 -1.2478 -2.3412
  120OSM   C13S12690   2.241   0.182   9.565  0.5397  0.2115 -0.5124
  120OSM   H13S12691   2.140   0.142   9.586 -0.6700  2.4167 -1.6578
  120OSM   H13T12692   2.315   0.099   9.572  2.0659  1.6615  2.5059
  120OSM   C14S12693   2.234   0.221   9.419  0.3864 -0.3634  0.5570
  120OSM   H14S12694   2.331   0.266   9.391  0.2971 -0.9274 -0.7826
  120OSM   H14T12695   2.162   0.303   9.402 -1.5430 -2.2558 -1.0049
  120OSM   C15S12696   2.197   0.112   9.314 -0.6672  0.3663 -0.4296
  120OSM   H15S12697   2.098   0.073   9.349 -0.8563  0.7113 -0.5809
  120OSM   H15T12698   2.267   0.026   9.313 -1.7601 -0.6570 -3.8622
  120OSM   C16S12699   2.184   0.164   9.171  0.5123 -0.1195  0.7567
  120OSM   H16S12700   2.269   0.227   9.138  0.6527 -0.9000 -0.4202
  120OSM   H16T12701   2.092   0.225   9.172  1.1742  0.9302 -0.4240
  120OSM   C17S12702   2.159   0.051   9.063 -0.4956 -0.6511  0.1638
  120OSM   H17S12703   2.064   0.007   9.098 -1.1664  1.1299  0.7131
  120OSM   H17T12704   2.233  -0.031   9.074 -1.1405 -1.2280  0.2532
  120OSM   C18S12705   2.152   0.126   8.922 -0.5367  0.6294  0.5493
  120OSM   H18S12706   2.062   0.190   8.910 -0.2850  0.6022 -1.7989
  120OSM   H18T12707   2.140   0.045   8.848 -0.2942  1.1204 -0.0341
  120OSM   H18U12708   2.249   0.177   8.904  1.0014 -1.7091  1.6701
  120OSM    C1F12709   1.957  -0.261  10.574  0.4412 -0.1610  0.7533
  120OSM     OF12710   1.831  -0.255  10.566 -0.0276 -0.0542 -0.6481
  120OSM    C2F12711   2.042  -0.384  10.548  0.1648  0.4214  0.2513
  120OSM    H2F12712   1.994  -0.463  10.610 -1.4265  3.0957  2.6863
  120OSM    H2G12713   2.151  -0.371  10.564  0.5853 -1.9470 -0.3641
  120OSM    C3F12714   2.027  -0.420  10.397  0.5978 -1.2603 -0.4855
  120OSM    H3F12715   1.931  -0.475  10.383 -0.1736  0.4415 -2.3698
  120OSM    H3G12716   2.110  -0.489  10.373  0.7284 -0.2207 -3.3307
  120OSM    C4F12717   2.033  -0.303  10.296  0.6600  0.3563 -0.4899
  120OSM    H4F12718   2.111  -0.231  10.327 -0.7281  1.9154 -0.5203
  120OSM    H4G12719   1.932  -0.256  10.300 -0.7652 -2.5353  1.6268
  120OSM    C5F12720   2.075  -0.338  10.152  0.8759  0.1051  0.0513
  120OSM    H5F12721   2.009  -0.426  10.132 -0.4267  0.8266  1.0206
  120OSM    H5G12722   2.175  -0.387  10.147  0.0801 -1.6795  0.6610
  120OSM    C6F12723   2.038  -0.225  10.051 -0.3527  0.2971  0.3608
  120OSM    H6F12724   2.071  -0.128  10.094 -1.2226 -0.4853  3.0050
  120OSM    H6G12725   1.928  -0.222  10.035 -0.0395 -0.7686 -2.5170
  120OSM    C7F12726   2.111  -0.248   9.923  0.2339  0.1918  0.0382
  120OSM    H7F12727   2.104  -0.347   9.874  2.1730  0.2512 -0.4656
  120OSM    H7G12728   2.217  -0.223   9.948  0.0017  1.0910  0.1730
  120OSM    C8F12729   2.068  -0.144   9.817  0.1617 -0.0509  0.3451
  120OSM    H8F12730   2.071  -0.045   9.869 -0.8792 -0.3288  0.9558
  120OSM    H8G12731   1.968  -0.170   9.776  0.9388 -0.4210 -1.3877
  120OSM    C9F12732   2.168  -0.137   9.700 -0.3440  0.6593 -0.4776
  120OSM    H9F12733   2.275  -0.148   9.721 -0.5969  2.4232  2.2200
  120OSM   C10F12734   2.132  -0.143   9.568  0.1226  0.3515  0.0666
  120OSM   H10F12735   2.211  -0.151   9.492  1.4962  0.7698  1.3985
  120OSM   C11F12736   1.993  -0.139   9.516  0.4378  0.2667 -0.0857
  120OSM   H11F12737   1.955  -0.035   9.506 -1.4439 -0.5020 -1.6228
  120OSM   H11G12738   1.916  -0.188   9.579  1.2361  0.1013  0.7790
  120OSM   C12F12739   1.993  -0.200   9.371  1.1868  0.0193 -0.1580
  120OSM   H12F12740   2.034  -0.303   9.362 -0.4156 -0.8309  1.6597
  120OSM   H12G12741   2.061  -0.134   9.313 -0.1525  0.9850 -0.6667
  120OSM   C13F12742   1.855  -0.222   9.303 -0.3594 -0.7754  0.0285
  120OSM   H13F12743   1.800  -0.126   9.303 -0.8010 -0.9883  2.1077
  120OSM   H13G12744   1.797  -0.287   9.372 -1.3353 -0.3009 -0.3294
  120OSM   C14F12745   1.854  -0.275   9.162  0.6980 -0.2029  0.4110
  120OSM   H14F12746   1.897  -0.377   9.168 -2.4219 -1.6792  0.0031
  120OSM   H14G12747   1.909  -0.214   9.087 -1.3894  0.7771 -0.4271
  120OSM   C15F12748   1.712  -0.294   9.116  0.6271  0.6444  0.2527
  120OSM   H15F12749   1.657  -0.198   9.106  0.4314  0.5950  0.8072
  120OSM   H15G12750   1.662  -0.360   9.190 -0.5055  0.0943 -0.9419
  120OSM   C16F12751   1.702  -0.382   8.987  0.7193 -0.0554 -0.7424
  120OSM   H16F12752   1.723  -0.488   9.010  1.9640 -0.0276 -1.6538
  120OSM   H16G12753   1.769  -0.340   8.909 -0.0695  3.4305  0.2542
  120OSM   C17F12754   1.566  -0.361   8.916 -0.1634  0.2759  0.6993
  120OSM   H17F12755   1.534  -0.256   8.898  0.0707  0.2852  0.3386
  120OSM   H17G12756   1.493  -0.416   8.979  0.0999 -1.2024 -0.2307
  120OSM   C18F12757   1.565  -0.426   8.774 -0.1470  0.4717 -1.0365
  120OSM   H18F12758   1.631  -0.361   8.712  2.4532 -2.0285 -1.1246
  120OSM   H18G12759   1.466  -0.437   8.725  0.0941 -2.1376 -1.0895
  120OSM   H18H12760   1.615  -0.524   8.783 -0.0136  0.5604 -0.7951
  121OSM      N12761   0.300   3.929  11.239  0.1895  0.8569 -0.2631
  121OSM    C1512762   0.384   3.958  11.358 -0.3742  0.3341 -0.0700
  121OSM   H15A12763   0.483   3.952  11.316 -0.8803 -0.2412 -1.2090
  121OSM   H15B12764   0.362   3.889  11.438  2.0350 -0.6354 -0.1529
  121OSM   H15C12765   0.388   4.060  11.394  1.1028  0.5875 -0.8457
  121OSM    C1412766   0.315   3.784  11.196 -0.1294  0.1680  0.5252
  121OSM   H14A12767   0.417   3.771  11.164 -0.2814 -0.9276  0.4344
  121OSM   H14B12768   0.256   3.749  11.113  0.9157  1.8480 -0.9934
  121OSM   H14C12769   0.297   3.718  11.280 -0.2171  1.3984  1.4936
  121OSM    C1312770   0.150   3.954  11.250 -0.3273  0.5179  0.4056
  121OSM   H13A12771   0.133   4.041  11.311 -0.3090  0.4474  0.5127
  121OSM   H13B12772   0.111   3.872  11.309 -1.4375  2.3803  2.3999
  121OSM   H13C12773   0.092   3.961  11.159  1.6691 -0.1487 -0.9892
  121OSM    C1212774   0.342   4.011  11.117  0.3503 -0.4830  0.8666
  121OSM   H12A12775   0.297   4.109  11.121  3.0493  0.8392  0.5124
  121OSM   H12B12776   0.292   3.975  11.029 -0.6798  1.2064  0.7135
  121OSM    C1112777   0.486   4.030  11.072 -0.0232  0.1914 -0.4275
  121OSM   H11A12778   0.474   4.088  10.978  0.6112  1.2522  0.1305
  121OSM   H11B12779   0.538   3.934  11.056  0.5166  0.8301 -2.9837
  121OSM      P12780   0.565   4.249  11.198  0.1445 -0.1771  0.2619
  121OSM    O1312781   0.428   4.298  11.220 -0.1083 -0.1031  0.2293
  121OSM    O1412782   0.668   4.274  11.304  0.4117 -1.0066 -0.0734
  121OSM    O1112783   0.625   4.309  11.064  0.0474 -0.3689 -0.4592
  121OSM    O1212784   0.561   4.094  11.173 -0.0303  0.1087 -0.4633
  121OSM    C1S12785   0.752   4.261  11.016 -0.0359 -0.4376  0.2706
  121OSM    H1S12786   0.759   4.152  11.040 -0.4778 -1.1848 -2.6289
  121OSM    H1T12787   0.841   4.302  11.068  0.7927  0.0626 -1.4510
  121OSM     NF12788   0.882   4.201  10.824 -0.3919  0.5334  0.3392
  121OSM    HNF12789   0.974   4.241  10.819 -0.3931  0.7101  1.4004
  121OSM    C2S12790   0.768   4.288  10.863 -1.1542 -0.1221 -0.3868
  121OSM    H2S12791   0.678   4.249  10.811 -2.5224 -0.9547  2.3790
  121OSM    C3S12792   0.792   4.440  10.838 -0.1052 -0.1092 -0.8598
  121OSM    H3S12793   0.881   4.471  10.897 -0.8327  1.3790 -0.4635
  121OSM     O312794   0.685   4.521  10.878  0.1388 -0.0682  0.2906
  121OSM    HO312795   0.658   4.463  10.950 -0.6931 -3.1714 -2.2563
  121OSM    C4S12796   0.824   4.457  10.690 -0.0089 -0.6251  0.3067
  121OSM    H4S12797   0.745   4.429  10.619 -0.7645  0.8165  0.5427
  121OSM    C5S12798   0.941   4.496  10.634  0.1920 -0.1246 -1.1691
  121OSM    H5S12799   1.030   4.525  10.691  1.1058 -0.3702 -2.4384
  121OSM    C6S12800   0.960   4.518  10.490  0.0931  0.2393  0.2934
  121OSM    H6S12801   1.069   4.517  10.468  0.2217 -1.8744  0.8361
  121OSM    H6T12802   0.913   4.613  10.455 -0.1972 -1.1085 -3.4199
  121OSM    C7S12803   0.916   4.397  10.399 -0.0136  0.2574 -0.3017
  121OSM    H7S12804   0.805   4.393  10.397  0.0174 -0.4879 -1.0852
  121OSM    H7T12805   0.960   4.302  10.437 -2.9100 -1.4394 -0.8802
  121OSM    C8S12806   0.972   4.408  10.262  0.4284 -0.8702  0.4646
  121OSM    H8S12807   0.953   4.313  10.208  1.0829 -0.6227 -0.2159
  121OSM    H8T12808   1.082   4.421  10.260  0.2083  2.1580 -2.9900
  121OSM    C9S12809   0.891   4.507  10.173 -0.6176  0.7859 -0.3736
  121OSM    H9S12810   0.880   4.606  10.221 -1.7233  0.3311  0.3483
  121OSM    H9T12811   0.792   4.457  10.168 -1.8811  3.2921 -1.7340
  121OSM   C10S12812   0.950   4.530  10.031  0.1819 -0.5788 -0.0200
  121OSM   H10S12813   1.010   4.440  10.009  1.4342  0.3836 -0.6147
  121OSM   H10T12814   1.021   4.613  10.049  0.1748 -0.8645  1.5139
  121OSM   C11S12815   0.843   4.548   9.922 -0.5096  0.9794 -0.3182
  121OSM   H11S12816   0.768   4.626   9.949 -0.4989  0.9201 -0.1145
  121OSM   H11T12817   0.781   4.457   9.918 -2.7954  2.4651 -4.5810
  121OSM   C12S12818   0.896   4.569   9.778  0.5505  0.1648  0.3021
  121OSM   H12S12819   0.976   4.493   9.764 -1.8428 -2.3454 -0.6395
  121OSM   H12T12820   0.953   4.664   9.774  1.2141 -0.2428 -0.0776
  121OSM   C13S12821   0.791   4.530   9.669 -0.1386  0.1496 -0.1386
  121OSM   H13S12822   0.695   4.581   9.690  0.8817  1.4996  1.5268
  121OSM   H13T12823   0.782   4.420   9.684 -0.6234  0.4545  2.2544
  121OSM   C14S12824   0.842   4.565   9.527 -0.1295  0.4940  0.7890
  121OSM   H14S12825   0.948   4.536   9.512 -0.0527  1.0281  0.2129
  121OSM   H14T12826   0.856   4.675   9.513 -1.2016  0.5117 -0.4056
  121OSM   C15S12827   0.752   4.509   9.415 -0.1747  0.0866 -0.0251
  121OSM   H15S12828   0.646   4.536   9.436 -0.9217 -1.4539 -1.5614
  121OSM   H15T12829   0.758   4.398   9.425  2.5503  0.0367 -1.3066
  121OSM   C16S12830   0.783   4.569   9.275 -0.5140  0.0032 -0.1058
  121OSM   H16S12831   0.884   4.528   9.254 -0.9513 -1.4007  0.4083
  121OSM   H16T12832   0.785   4.680   9.270 -1.0947 -0.0321 -1.3400
  121OSM   C17S12833   0.698   4.503   9.173 -0.4082  0.3167  1.0180
  121OSM   H17S12834   0.596   4.543   9.194 -1.8057 -2.7459  0.5523
  121OSM   H17T12835   0.689   4.393   9.183  1.8811  0.2546  3.2767
  121OSM   C18S12836   0.718   4.544   9.032  0.3293 -0.1904 -0.2791
  121OSM   H18S12837   0.808   4.493   8.989  0.3286 -1.3581  1.0486
  121OSM   H18T12838   0.736   4.653   9.023 -2.1714  0.3697  0.8331
  121OSM   H18U12839   0.626   4.522   8.974 -0.3215  0.3144  0.5580
  121OSM    C1F12840   0.869   4.064  10.808 -0.1044 -0.1213 -0.6178
  121OSM     OF12841   0.758   4.005  10.806  0.5289  0.4634 -0.3116
  121OSM    C2F12842   0.992   3.979  10.799  0.8953  0.5834  0.0177
  121OSM    H2F12843   0.990   3.917  10.891 -0.2287  2.7578  1.5708
  121OSM    H2G12844   1.069   4.060  10.801  1.3128  0.2021 -0.4113
  121OSM    C3F12845   1.007   3.893  10.668  0.2896  0.2295 -0.4598
  121OSM    H3F12846   0.924   3.819  10.661 -0.5566  0.7078  2.9695
  121OSM    H3G12847   1.103   3.836  10.669 -0.4444 -1.0858 -1.4762
  121OSM    C4F12848   1.018   3.985  10.550 -0.4879 -0.1319 -0.7975
  121OSM    H4F12849   1.116   4.037  10.550 -1.3609  1.6707  0.8727
  121OSM    H4G12850   0.937   4.062  10.546 -0.7097 -0.3195 -0.0614
  121OSM    C5F12851   1.026   3.904  10.424 -0.1962  0.8471 -0.3075
  121OSM    H5F12852   0.924   3.883  10.385  1.2154  0.6848 -4.3779
  121OSM    H5G12853   1.080   3.808  10.434 -1.0413 -0.1197 -3.5909
  121OSM    C6F12854   1.104   3.968  10.302  0.4468  0.5313 -0.4649
  121OSM    H6F12855   1.210   3.973  10.332  0.0050  0.9983  1.0969
  121OSM    H6G12856   1.063   4.071  10.291 -0.5252  0.2483  0.3275
  121OSM    C7F12857   1.074   3.887  10.173  0.0811  0.6040  0.3512
  121OSM    H7F12858   0.966   3.865  10.165  0.2897 -0.8918  1.2984
  121OSM    H7G12859   1.122   3.788  10.187 -1.9647 -0.4692  0.0867
  121OSM    C8F12860   1.118   3.962  10.039  0.5924  0.2183 -0.4406
  121OSM    H8F12861   1.091   3.890   9.958 -3.9947 -0.9088  1.7896
  121OSM    H8G12862   1.226   3.988  10.046  0.6184 -0.0083  0.0800
  121OSM    C9F12863   1.039   4.086  10.017 -0.0261  0.2932 -0.0161
  121OSM    H9F12864   0.967   4.120  10.094  0.0476  1.0148 -0.2585
  121OSM   C10F12865   1.030   4.153   9.905 -0.2260  0.6448 -0.2088
  121OSM   H10F12866   0.961   4.237   9.887 -0.5821  0.4625  0.3018
  121OSM   C11F12867   1.121   4.123   9.788 -0.3618 -0.0699  0.0184
  121OSM   H11F12868   1.202   4.049   9.807 -0.2545 -0.0376 -0.3084
  121OSM   H11G12869   1.184   4.210   9.758 -1.6733 -0.0473 -2.9909
  121OSM   C12F12870   1.051   4.080   9.656  0.3470 -0.5536  0.6587
  121OSM   H12F12871   0.940   4.082   9.670  0.3574 -1.7827  1.0507
  121OSM   H12G12872   1.076   3.972   9.644  0.2392 -0.7006  1.6808
  121OSM   C13F12873   1.096   4.157   9.537  0.2132  0.6547  0.3932
  121OSM   H13F12874   1.203   4.140   9.513 -0.2948 -0.9229 -0.9761
  121OSM   H13G12875   1.089   4.263   9.568  0.6643  0.1959  2.1776
  121OSM   C14F12876   1.026   4.134   9.397  0.4148  0.2545 -0.7256
  121OSM   H14F12877   0.919   4.121   9.424  1.2071  0.1268  2.7983
  121OSM   H14G12878   1.059   4.038   9.352  2.6339 -0.1133  1.4306
  121OSM   C15F12879   1.042   4.252   9.297  0.8174 -0.3305 -0.8463
  121OSM   H15F12880   1.000   4.346   9.339  1.8006 -0.1611 -0.2030
  121OSM   H15G12881   0.972   4.221   9.216  0.9217  0.5619 -1.2878
  121OSM   C16F12882   1.176   4.286   9.244 -1.1807  0.1345  0.7418
  121OSM   H16F12883   1.161   4.317   9.138 -2.1667  0.9857  1.1208
  121OSM   H16G12884   1.242   4.198   9.259 -0.8497  0.3571  0.6173
  121OSM   C17F12885   1.245   4.409   9.317  0.3139 -0.6333 -0.6046
  121OSM   H17F12886   1.233   4.395   9.427  0.0630 -1.3203 -0.7150
  121OSM   H17G12887   1.191   4.499   9.282  1.4836 -0.0679 -1.0187
  121OSM   C18F12888   1.392   4.429   9.289 -0.2797 -0.3327  0.2192
  121OSM   H18F12889   1.423   4.427   9.182 -0.4274 -1.0658  0.1826
  121OSM   H18G12890   1.465   4.362   9.340  3.3792  0.8404 -3.0052
  121OSM   H18H12891   1.420   4.527   9.333 -2.7955 -0.4601  2.3069
  122OSM      N12892   6.124   1.914  10.510  0.0437  0.4567 -0.1251
  122OSM    C1512893   6.132   1.849  10.381  0.1805 -0.3197 -0.5487
  122OSM   H15A12894   6.235   1.825  10.363  0.2391 -1.2645  0.9313
  122OSM   H15B12895   6.088   1.914  10.306  1.3621  1.4354  0.2239
  122OSM   H15C12896   6.089   1.751  10.375  2.0224 -1.3588  1.6937
  122OSM    C1412897   6.131   2.063  10.502  0.7410  0.1844  0.4967
  122OSM   H14A12898   6.086   2.108  10.415  0.2348  0.3589  0.8476
  122OSM   H14B12899   6.234   2.094  10.494  0.5519  0.4947 -1.1140
  122OSM   H14C12900   6.090   2.112  10.589  1.1300  1.0784  0.1954
  122OSM    C1312901   5.993   1.878  10.570 -0.2092 -0.2702  0.6173
  122OSM   H13A12902   5.925   1.843  10.494  1.4993 -0.2181 -1.0153
  122OSM   H13B12903   5.949   1.962  10.621 -0.2513  0.7880 -1.1020
  122OSM   H13C12904   6.012   1.801  10.644 -1.0315 -0.1422  0.9744
  122OSM    C1212905   6.238   1.865  10.605  0.4459 -0.2290  0.6387
  122OSM   H12A12906   6.237   1.932  10.691 -0.5406 -0.1530  0.5769
  122OSM   H12B12907   6.327   1.885  10.548 -1.2938  1.0321 -1.7887
  122OSM    C1112908   6.242   1.717  10.657 -0.3836  0.3617  0.1596
  122OSM   H11A12909   6.340   1.712  10.709  1.0694  0.4536 -2.4126
  122OSM   H11B12910   6.246   1.640  10.578 -3.7314  0.0319  0.1705
  122OSM      P12911   6.130   1.556  10.840 -0.2999 -0.0978 -0.0159
  122OSM    O1312912   6.259   1.528  10.910 -0.2161 -0.8034 -0.0099
  122OSM    O1412913   6.011   1.570  10.922  0.1149 -0.0428 -0.3856
  122OSM    O1112914   6.097   1.449  10.728 -0.0993 -0.4977  0.4490
  122OSM    O1212915   6.134   1.691  10.757 -0.1319  0.2178  0.4787
  122OSM    C1S12916   5.994   1.474  10.630  0.1295  0.0466  0.0077
  122OSM    H1S12917   6.010   1.574  10.584  1.2588 -0.0556  0.1540
  122OSM    H1T12918   5.891   1.479  10.669  0.8196  0.0819  1.9057
  122OSM     NF12919   5.903   1.403  10.422  0.3242  0.5216  0.2575
  122OSM    HNF12920   5.817   1.353  10.431 -0.3597  0.7533 -3.4706
  122OSM    C2S12921   6.011   1.371  10.513  0.6820  0.3181 -0.6983
  122OSM    H2S12922   6.110   1.397  10.470  0.9092  0.7878  0.0835
  122OSM    C3S12923   6.013   1.224  10.572  0.3196 -0.4712 -0.0534
  122OSM    H3S12924   5.916   1.205  10.624  0.3048 -0.4781 -0.0837
  122OSM     O312925   6.130   1.205  10.660  0.2842  0.7465  0.3993
  122OSM    HO312926   6.151   1.284  10.710  1.5169 -1.3168  3.3632
  122OSM    C4S12927   6.008   1.128  10.451 -0.9423 -0.1802  0.2184
  122OSM    H4S12928   5.907   1.103  10.413 -0.1882  2.8252 -4.5000
  122OSM    C5S12929   6.122   1.070  10.398 -0.7448  0.1539  0.1141
  122OSM    H5S12930   6.215   1.083  10.455 -1.1649 -2.1034  1.4067
  122OSM    C6S12931   6.125   0.979  10.281  0.1092  0.1084 -0.0626
  122OSM    H6S12932   6.019   0.948  10.267  0.2068 -1.5131  2.1843
  122OSM    H6T12933   6.179   0.882  10.292 -1.4405 -0.6566  1.1798
  122OSM    C7S12934   6.161   1.046  10.148 -0.1215  0.2619  0.1506
  122OSM    H7S12935   6.262   1.091  10.151 -1.3188  3.1201  1.3111
  122OSM    H7T12936   6.084   1.123  10.127 -0.7984 -0.4784 -0.1229
  122OSM    C8S12937   6.155   0.937  10.032  0.3406 -0.2798 -0.3599
  122OSM    H8S12938   6.050   0.900  10.032 -0.3229  1.3548  2.3246
  122OSM    H8T12939   6.211   0.844  10.055  0.6374  0.0580  0.2777
  122OSM    C9S12940   6.205   0.991   9.897 -0.0914 -0.3890 -0.3793
  122OSM    H9S12941   6.314   1.006   9.909 -0.1251 -0.7053  0.3473
  122OSM    H9T12942   6.154   1.087   9.875 -0.1855 -0.3343  0.0766
  122OSM   C10S12943   6.196   0.891   9.785  0.8963 -0.8481 -0.1084
  122OSM   H10S12944   6.088   0.885   9.761  0.5838  0.9183  0.7421
  122OSM   H10T12945   6.243   0.791   9.799 -0.4235 -1.3039  1.2054
  122OSM   C11S12946   6.258   0.959   9.666  0.1482 -0.0666  0.2326
  122OSM   H11S12947   6.362   0.994   9.683  0.9381 -2.2128  0.2361
  122OSM   H11T12948   6.184   1.037   9.639 -1.6764 -1.3319  1.3790
  122OSM   C12S12949   6.258   0.862   9.544 -0.5046 -0.1450 -0.4561
  122OSM   H12S12950   6.158   0.817   9.533 -1.4875  1.3228  1.8048
  122OSM   H12T12951   6.332   0.780   9.559 -0.2911  0.3291  1.3442
  122OSM   C13S12952   6.293   0.928   9.417  0.2266  0.2805  0.5319
  122OSM   H13S12953   6.390   0.980   9.435 -0.4104  1.1134  1.6664
  122OSM   H13T12954   6.220   1.002   9.379  0.5441 -0.3933 -1.5279
  122OSM   C14S12955   6.306   0.827   9.300  0.4650 -0.0263  0.2776
  122OSM   H14S12956   6.214   0.769   9.280 -0.6589  1.1157  1.8937
  122OSM   H14T12957   6.393   0.764   9.329  1.9482  2.1417  0.7676
  122OSM   C15S12958   6.350   0.894   9.168 -0.3797 -0.3969  0.2092
  122OSM   H15S12959   6.427   0.972   9.183 -1.2123  0.9172 -1.8763
  122OSM   H15T12960   6.259   0.947   9.132 -0.9890 -1.3415  0.3285
  122OSM   C16S12961   6.402   0.794   9.060 -0.1638 -0.4448 -0.2037
  122OSM   H16S12962   6.491   0.746   9.105 -2.0701 -1.1465  3.1656
  122OSM   H16T12963   6.435   0.852   8.972 -1.0129  0.8727  0.3005
  122OSM   C17S12964   6.295   0.687   9.017 -0.6679 -0.3884  0.7382
  122OSM   H17S12965   6.208   0.755   9.001 -0.3963 -0.0666  0.6214
  122OSM   H17T12966   6.282   0.609   9.094  1.7012 -1.0415  0.5359
  122OSM   C18S12967   6.337   0.628   8.883  0.6729  0.1039 -0.3448
  122OSM   H18S12968   6.365   0.708   8.811  0.5503 -0.8380 -1.4570
  122OSM   H18T12969   6.250   0.566   8.854  1.2884 -0.8143 -0.2519
  122OSM   H18U12970   6.419   0.554   8.884 -0.0718 -1.0949 -5.1701
  122OSM    C1F12971   5.897   1.505  10.337  0.2988 -0.6495 -0.4723
  122OSM     OF12972   5.982   1.594  10.348  0.6601 -0.6555 -0.1202
  122OSM    C2F12973   5.792   1.499  10.230 -0.1236 -1.2023  0.2165
  122OSM    H2F12974   5.706   1.440  10.270 -1.8247 -0.2859 -1.8498
  122OSM    H2G12975   5.829   1.434  10.148 -1.1980 -1.7126  0.1109
  122OSM    C3F12976   5.765   1.644  10.185  0.5978 -0.4410  0.3412
  122OSM    H3F12977   5.860   1.689  10.150  0.8265 -0.8061  0.4881
  122OSM    H3G12978   5.722   1.705  10.268 -2.6674  0.5504 -1.8518
  122OSM    C4F12979   5.667   1.660  10.063 -0.5144  0.1604 -0.6031
  122OSM    H4F12980   5.662   1.769  10.038  0.9623  0.6642  1.0953
  122OSM    H4G12981   5.564   1.631  10.093  0.0141 -0.7690  0.3851
  122OSM    C5F12982   5.716   1.579   9.940  0.7377  0.0495  0.1374
  122OSM    H5F12983   5.702   1.469   9.950  2.3215 -0.1108  0.9907
  122OSM    H5G12984   5.824   1.605   9.935  1.2122 -1.9173 -2.3293
  122OSM    C6F12985   5.642   1.611   9.810 -0.7809 -0.4077  0.1536
  122OSM    H6F12986   5.657   1.720   9.794  1.1447 -0.6863 -0.1411
  122OSM    H6G12987   5.534   1.608   9.837 -0.4220 -0.3428  1.6845
  122OSM    C7F12988   5.679   1.519   9.693 -0.4792  0.0867 -0.9730
  122OSM    H7F12989   5.665   1.414   9.724  3.2662 -0.1665  0.3385
  122OSM    H7G12990   5.788   1.522   9.674 -0.4747  1.7062 -0.8671
  122OSM    C8F12991   5.610   1.553   9.571  0.2947 -0.7250  0.5417
  122OSM    H8F12992   5.508   1.582   9.607  0.8898 -0.3904  2.0204
  122OSM    H8G12993   5.594   1.461   9.512 -1.7107 -0.9296  1.3093
  122OSM    C9F12994   5.665   1.672   9.493 -0.3156 -0.3282 -0.2418
  122OSM    H9F12995   5.659   1.767   9.549  0.4504 -0.5282  0.1842
  122OSM   C10F12996   5.727   1.677   9.375  0.5476 -0.5466  0.2248
  122OSM   H10F12997   5.762   1.775   9.339 -0.8763 -0.4506 -0.9933
  122OSM   C11F12998   5.749   1.558   9.284 -0.5381 -0.1969 -0.0371
  122OSM   H11F12999   5.772   1.464   9.339  1.2582  0.9780  1.3345
  122OSM   H11G13000   5.839   1.581   9.223  1.1070 -1.0421  1.9655
  122OSM   C12F13001   5.627   1.537   9.191  0.5854 -0.4823  0.2946
  122OSM   H12F13002   5.531   1.514   9.242  0.1667  0.9748  0.2014
  122OSM   H12G13003   5.633   1.456   9.115  1.2774 -0.5860  0.4530
  122OSM   C13F13004   5.591   1.664   9.109  0.1571 -0.3753 -0.2334
  122OSM   H13F13005   5.682   1.726   9.093 -0.9566  0.9422 -1.9201
  122OSM   H13G13006   5.536   1.734   9.175  1.0801  0.2683 -0.1312
  122OSM   C14F13007   5.507   1.651   8.983  0.3499  0.0375  0.0328
  122OSM   H14F13008   5.428   1.573   8.991  0.1105 -0.1503 -3.0430
  122OSM   H14G13009   5.581   1.618   8.906  0.1806  0.0637 -0.1403
  122OSM   C15F13010   5.435   1.779   8.928 -0.5774  0.0713  0.9948
  122OSM   H15F13011   5.503   1.867   8.935  0.4691 -0.7216  1.0224
  122OSM   H15G13012   5.351   1.806   8.997 -0.9431  0.2042  0.5003
  122OSM   C16F13013   5.392   1.771   8.778  0.0784  0.6259  0.2564
  122OSM   H16F13014   5.432   1.680   8.729  1.5785  0.2919  1.9680
  122OSM   H16G13015   5.438   1.849   8.715  0.9537 -0.1319 -0.0643
  122OSM   C17F13016   5.240   1.772   8.764 -0.6022 -0.5252  0.4235
  122OSM   H17F13017   5.203   1.860   8.821 -0.8756  0.1174 -0.7265
  122OSM   H17G13018   5.207   1.684   8.822  2.1246 -2.3831 -0.6778
  122OSM   C18F13019   5.170   1.762   8.622 -0.7018  0.3942 -0.8607
  122OSM   H18F13020   5.133   1.657   8.616  1.3381 -0.5189  1.1712
  122OSM   H18G13021   5.243   1.781   8.541 -1.6091 -0.7489 -1.9915
  122OSM   H18H13022   5.083   1.831   8.629 -1.5951 -0.8061  0.8126
  123OSM      N13023   6.075   0.140   5.853  0.3375  0.2564  0.0327
  123OSM    C1513024   6.122   0.255   5.758 -0.4943  0.0838 -0.4125
  123OSM   H15A13025   6.060   0.342   5.776 -0.4091 -0.2584  1.7466
  123OSM   H15B13026   6.114   0.214   5.658 -0.7480 -0.3635 -0.2098
  123OSM   H15C13027   6.222   0.288   5.781 -0.4994  1.1709 -1.7658
  123OSM    C1413028   5.940   0.094   5.805 -0.6476 -0.3406  0.2517
  123OSM   H14A13029   5.911   0.002   5.854 -1.2603 -0.2198  0.1256
  123OSM   H14B13030   5.944   0.071   5.699 -3.4487  2.0403 -0.5010
  123OSM   H14C13031   5.858   0.161   5.826 -0.7986 -0.2010 -0.7293
  123OSM    C1313032   6.168   0.026   5.837  0.5025 -0.0155  0.9878
  123OSM   H13A13033   6.149  -0.053   5.908 -0.9051  0.5766  1.3143
  123OSM   H13B13034   6.265   0.072   5.841 -0.2504  1.8595 -0.4653
  123OSM   H13C13035   6.165  -0.014   5.737  0.3638 -1.3972  1.5269
  123OSM    C1213036   6.061   0.197   5.991  0.4701  0.6422 -0.6204
  123OSM   H12A13037   6.157   0.225   6.034 -0.8930  1.9139  1.8506
  123OSM   H12B13038   6.021   0.113   6.045 -0.5506  1.6692  0.2836
  123OSM    C1113039   5.964   0.321   6.014  0.5420  0.5855  0.3257
  123OSM   H11A13040   5.933   0.328   6.121  0.5448  0.8941  0.3069
  123OSM   H11B13041   5.874   0.304   5.951  1.3213 -0.0722 -0.6468
  123OSM      P13042   6.122   0.516   6.057  0.8846 -0.2866  0.0897
  123OSM    O1313043   6.238   0.541   5.973 -0.3320 -0.0701 -0.1032
  123OSM    O1413044   6.056   0.635   6.116  0.4600 -0.0524 -0.4329
  123OSM    O1113045   6.150   0.414   6.173 -0.0387 -0.1855 -0.0282
  123OSM    O1213046   6.018   0.438   5.971  0.6354 -0.8196  0.2477
  123OSM    C1S13047   6.248   0.442   6.276 -0.5456  0.1216  0.1483
  123OSM    H1S13048   6.310   0.533   6.256 -0.8784  0.1839 -0.6485
  123OSM    H1T13049   6.311   0.351   6.267 -2.0368 -0.8196 -1.5188
  123OSM     NF13050   6.300   0.464   6.530 -0.0739 -0.4284  0.2847
  123OSM    HNF13051   6.322   0.389   6.592 -2.7658 -0.2015  1.6567
  123OSM    C2S13052   6.198   0.437   6.428  0.5600  0.5347  0.1479
  123OSM    H2S13053   6.126   0.521   6.435 -1.4651 -1.2153  1.2542
  123OSM    C3S13054   6.120   0.304   6.452  0.4385  0.2308  0.3885
  123OSM    H3S13055   6.190   0.218   6.452 -0.2930 -0.3866  1.7688
  123OSM     O313056   6.025   0.275   6.349 -0.2702  0.9466  0.2807
  123OSM    HO313057   6.046   0.332   6.275  0.5783  1.1120  0.6435
  123OSM    C4S13058   6.046   0.309   6.584 -0.4762  1.1442  0.3131
  123OSM    H4S13059   5.997   0.406   6.601 -0.3689  0.8260  2.9191
  123OSM    C5S13060   6.050   0.213   6.674 -0.1562  1.0198  0.3538
  123OSM    H5S13061   6.102   0.117   6.659  0.7587  1.3982  1.0203
  123OSM    C6S13062   5.969   0.220   6.799 -0.0267 -0.8245 -0.0604
  123OSM    H6S13063   5.892   0.141   6.816 -0.3952 -0.7426 -1.2346
  123OSM    H6T13064   5.908   0.313   6.796  0.6697 -0.3166  1.1228
  123OSM    C7S13065   6.058   0.217   6.922 -0.2430 -0.3521  0.6621
  123OSM    H7S13066   6.109   0.314   6.937 -1.0180  0.1770 -0.0375
  123OSM    H7T13067   6.134   0.136   6.925 -0.0413 -0.1426  1.3757
  123OSM    C8S13068   5.975   0.197   7.052 -0.3647 -0.3983 -0.0571
  123OSM    H8S13069   5.899   0.120   7.029 -1.2342 -0.0785  1.5720
  123OSM    H8T13070   5.915   0.289   7.071  0.7988  1.0626 -2.8774
  123OSM    C9S13071   6.069   0.144   7.166  0.0603  0.4840 -0.0868
  123OSM    H9S13072   6.145   0.068   7.142  0.1627 -0.0074  1.6507
  123OSM    H9T13073   5.995   0.099   7.236 -0.3577  0.6058 -0.4423
  123OSM   C10S13074   6.146   0.259   7.235 -0.1132  0.7000 -0.4595
  123OSM   H10S13075   6.067   0.331   7.265 -2.7249 -2.6842  1.5782
  123OSM   H10T13076   6.223   0.295   7.163  1.0405  1.0597  0.9031
  123OSM   C11S13077   6.227   0.227   7.365  0.3570 -0.2451  0.3716
  123OSM   H11S13078   6.292   0.315   7.386 -0.8054  0.3728  1.5416
  123OSM   H11T13079   6.291   0.138   7.348  1.2522  0.3667  0.4963
  123OSM   C12S13080   6.135   0.198   7.490  0.5031 -0.6876  0.1269
  123OSM   H12S13081   6.209   0.212   7.572  1.4760  1.6246 -1.0675
  123OSM   H12T13082   6.108   0.091   7.479 -0.1425 -0.6072  0.8778
  123OSM   C13S13083   6.016   0.285   7.534  0.2987 -0.2402 -0.0571
  123OSM   H13S13084   5.925   0.265   7.474 -2.0538 -1.2532  3.5277
  123OSM   H13T13085   6.045   0.387   7.502 -0.1320 -0.8614 -2.6342
  123OSM   C14S13086   5.968   0.261   7.685 -0.4048  0.0552  0.2594
  123OSM   H14S13087   5.931   0.157   7.699 -4.3996  1.0514 -1.4040
  123OSM   H14T13088   5.870   0.312   7.680 -1.4549 -1.9608 -2.5733
  123OSM   C15S13089   6.058   0.318   7.796 -0.2744  0.1930 -0.4830
  123OSM   H15S13090   6.043   0.426   7.816  0.1916  0.3739 -1.0739
  123OSM   H15T13091   6.167   0.301   7.784 -0.2714  0.0431 -0.2468
  123OSM   C16S13092   6.012   0.268   7.933 -0.3277  0.5990  0.5115
  123OSM   H16S13093   6.040   0.162   7.947  4.2376  1.5063 -0.0092
  123OSM   H16T13094   5.901   0.270   7.944 -0.7112 -0.1963 -2.3783
  123OSM   C17S13095   6.077   0.348   8.042 -0.1522 -0.4648 -0.5763
  123OSM   H17S13096   6.046   0.454   8.026  3.7076  1.1201  1.0046
  123OSM   H17T13097   6.185   0.356   8.020  0.2604  0.5583  1.5458
  123OSM   C18S13098   6.036   0.308   8.185  0.5552 -0.0870 -0.1924
  123OSM   H18S13099   6.030   0.197   8.191  0.8347 -0.0787  0.3202
  123OSM   H18T13100   5.944   0.365   8.207  0.9478 -0.0188  1.4010
  123OSM   H18U13101   6.116   0.350   8.250 -1.2808  1.3960  1.2163
  123OSM    C1F13102   6.368   0.578   6.537  0.0257  0.0722  0.0592
  123OSM     OF13103   6.334   0.671   6.468 -0.7104  0.3821  0.8130
  123OSM    C2F13104   6.474   0.588   6.638 -1.0756 -0.4491 -0.5578
  123OSM    H2F13105   6.555   0.519   6.607 -1.2960 -2.0306  2.1633
  123OSM    H2G13106   6.442   0.548   6.736 -1.1426 -2.8667 -1.5099
  123OSM    C3F13107   6.526   0.734   6.666 -0.4136  0.5036 -0.6357
  123OSM    H3F13108   6.575   0.776   6.576  1.7366 -0.8720 -0.1816
  123OSM    H3G13109   6.604   0.723   6.744 -2.9907  2.4030  2.4536
  123OSM    C4F13110   6.424   0.828   6.738  0.6905 -0.5310 -0.9168
  123OSM    H4F13111   6.347   0.853   6.662 -1.7292 -4.8722 -0.1825
  123OSM    H4G13112   6.478   0.925   6.751 -0.7365  0.0976  0.6786
  123OSM    C5F13113   6.356   0.767   6.862  0.2777  1.0594 -0.5978
  123OSM    H5F13114   6.288   0.683   6.838  0.6115  1.0034 -1.4117
  123OSM    H5G13115   6.283   0.841   6.900 -0.8134 -1.0279  1.6513
  123OSM    C6F13116   6.440   0.735   6.983  0.1594  0.5129 -0.6463
  123OSM    H6F13117   6.508   0.817   7.016 -0.8752  1.2586 -0.3412
  123OSM    H6G13118   6.510   0.652   6.958 -1.0103 -1.7421  2.8975
  123OSM    C7F13119   6.354   0.678   7.102 -0.3480  0.6215  0.0798
  123OSM    H7F13120   6.277   0.610   7.060  1.4340 -2.9234  2.0735
  123OSM    H7G13121   6.297   0.764   7.144 -0.8511 -0.3512  1.4359
  123OSM    C8F13122   6.433   0.588   7.199  0.9746  1.3971 -0.3027
  123OSM    H8F13123   6.477   0.504   7.140  1.8523 -0.0071  2.2167
  123OSM    H8G13124   6.358   0.548   7.271  2.8762 -2.0422 -0.0144
  123OSM    C9F13125   6.539   0.670   7.268  0.3341 -0.5022 -0.1876
  123OSM    H9F13126   6.620   0.707   7.203 -0.6881  1.4574 -0.4216
  123OSM   C10F13127   6.534   0.726   7.390 -0.5143 -0.2556  0.5921
  123OSM   H10F13128   6.617   0.788   7.429  0.7013 -0.0270 -2.0845
  123OSM   C11F13129   6.431   0.715   7.494  0.7131  0.0863 -0.1872
  123OSM   H11F13130   6.347   0.650   7.460  0.5467  0.0948  0.1942
  123OSM   H11G13131   6.390   0.814   7.523 -1.1259 -0.5454 -0.4567
  123OSM   C12F13132   6.486   0.635   7.609 -0.2081  0.3857  0.3894
  123OSM   H12F13133   6.578   0.680   7.653  0.7087  0.2686 -1.2872
  123OSM   H12G13134   6.518   0.536   7.569 -1.6899 -1.2763  3.0589
  123OSM   C13F13135   6.374   0.604   7.707 -0.1272 -1.0837 -0.4597
  123OSM   H13F13136   6.425   0.534   7.777  0.8294  1.6041  1.7145
  123OSM   H13G13137   6.296   0.553   7.646  0.1466 -1.1840 -0.7306
  123OSM   C14F13138   6.323   0.723   7.785  1.1694 -0.0685  0.2620
  123OSM   H14F13139   6.227   0.692   7.830  0.6691  0.3641 -0.4776
  123OSM   H14G13140   6.314   0.812   7.718  1.2738  0.8275  1.4133
  123OSM   C15F13141   6.416   0.764   7.902  0.3152  0.9106  0.2306
  123OSM   H15F13142   6.515   0.789   7.860  0.9646  2.8862  2.7578
  123OSM   H15G13143   6.422   0.676   7.970 -0.1973 -0.0868 -0.9603
  123OSM   C16F13144   6.372   0.873   8.000 -0.8281 -0.0146 -0.1784
  123OSM   H16F13145   6.351   0.963   7.938 -2.1042 -1.2163 -1.5522
  123OSM   H16G13146   6.455   0.887   8.073 -1.0673 -0.2028  0.1296
  123OSM   C17F13147   6.253   0.845   8.080  0.1916 -0.2840 -0.4520
  123OSM   H17F13148   6.240   0.744   8.125 -2.4560 -0.5029 -1.5123
  123OSM   H17G13149   6.164   0.863   8.015 -1.1045  1.1823  1.6019
  123OSM   C18F13150   6.236   0.948   8.188 -0.0991 -0.2381 -0.4402
  123OSM   H18F13151   6.148   0.932   8.254 -0.0659  0.5781 -0.1882
  123OSM   H18G13152   6.226   1.047   8.139  0.2816  0.5728  1.0742
  123OSM   H18H13153   6.316   0.954   8.264  1.2102 -0.4502 -1.7481
  124OSM      N13154   1.842   5.529   6.555 -0.2198 -0.2227 -0.1221
  124OSM    C1513155   1.843   5.678   6.583  0.0680 -0.1920  0.6923
  124OSM   H15A13156   1.835   5.735   6.491 -2.7281  2.6068  2.4598
  124OSM   H15B13157   1.934   5.715   6.627 -0.2236  0.1837  0.9834
  124OSM   H15C13158   1.759   5.700   6.648 -0.4629 -2.6819  0.9451
  124OSM    C1413159   1.956   5.504   6.466 -0.4360 -0.2525  1.1466
  124OSM   H14A13160   2.051   5.551   6.489 -0.2418 -0.7923  1.4879
  124OSM   H14B13161   1.923   5.542   6.371 -1.7924  0.0846  1.7405
  124OSM   H14C13162   1.984   5.402   6.442  0.9585 -0.0104  1.6568
  124OSM    C1313163   1.863   5.436   6.673 -0.7485  0.0063 -0.2141
  124OSM   H13A13164   1.868   5.332   6.646  2.1582  0.1662 -0.5730
  124OSM   H13B13165   1.790   5.450   6.751  0.2741  1.0366  0.5890
  124OSM   H13C13166   1.962   5.443   6.715  0.4599 -0.7735 -2.6914
  124OSM    C1213167   1.723   5.481   6.476  0.8165 -0.2916 -0.0469
  124OSM   H12A13168   1.695   5.545   6.394  0.5208  1.8520  1.6412
  124OSM   H12B13169   1.638   5.491   6.542 -0.6558 -0.8205 -1.7982
  124OSM    C1113170   1.716   5.343   6.418 -0.5647  0.3634 -0.0128
  124OSM   H11A13171   1.736   5.262   6.490 -0.8014  0.5554  0.2689
  124OSM   H11B13172   1.797   5.332   6.342 -0.6422 -1.8933  0.1703
  124OSM      P13173   1.454   5.268   6.415 -0.0365 -0.1185 -0.3509
  124OSM    O1313174   1.342   5.347   6.355  0.0211 -0.0983  0.7625
  124OSM    O1413175   1.460   5.121   6.400  0.6175  0.5996 -0.0245
  124OSM    O1113176   1.474   5.308   6.568  0.0421  0.7166  0.5121
  124OSM    O1213177   1.585   5.319   6.345  0.2320 -0.1378  0.5916
  124OSM    C1S13178   1.454   5.215   6.669 -1.0290  0.2047  0.0816
  124OSM    H1S13179   1.532   5.136   6.655 -0.1516  0.9758  0.5257
  124OSM    H1T13180   1.357   5.161   6.664  0.2420 -2.3640  0.8451
  124OSM     NF13181   1.478   5.192   6.907  0.0363 -0.1136 -1.0312
  124OSM    HNF13182   1.396   5.153   6.947  0.4655  0.0662  0.0529
  124OSM    C2S13183   1.456   5.282   6.806  0.5504 -0.1691  0.5720
  124OSM    H2S13184   1.546   5.346   6.797  1.2752 -1.4366 -3.5985
  124OSM    C3S13185   1.325   5.371   6.834 -0.0799 -0.4292  0.2793
  124OSM    H3S13186   1.241   5.300   6.848  0.0667 -0.4881  0.9144
  124OSM     O313187   1.286   5.465   6.732 -0.4052 -0.0382  0.3984
  124OSM    HO313188   1.348   5.452   6.659  1.7581  0.8749  1.9706
  124OSM    C4S13189   1.327   5.447   6.968  0.2486  0.1603  0.7927
  124OSM    H4S13190   1.359   5.550   6.949  2.1105 -0.4361  0.3942
  124OSM    C5S13191   1.280   5.405   7.089 -0.5547  0.6838  0.6432
  124OSM    H5S13192   1.233   5.306   7.095  0.3423  0.2714  1.3279
  124OSM    C6S13193   1.283   5.486   7.217  0.2921 -0.2987  0.0411
  124OSM    H6S13194   1.347   5.420   7.279  1.2475  0.6844  0.1434
  124OSM    H6T13195   1.185   5.493   7.268  0.7339 -1.4702  1.1139
  124OSM    C7S13196   1.362   5.620   7.211 -0.0030  0.3373  0.4182
  124OSM    H7S13197   1.340   5.675   7.116 -1.1253  0.0835  0.5255
  124OSM    H7T13198   1.466   5.581   7.201 -0.5355 -0.8473 -0.8052
  124OSM    C8S13199   1.355   5.711   7.341  0.5523  0.2734  0.1775
  124OSM    H8S13200   1.252   5.753   7.346  1.2864  2.6806 -2.1567
  124OSM    H8T13201   1.421   5.799   7.329  0.4090  0.5911  1.5418
  124OSM    C9S13202   1.399   5.633   7.465 -0.0456 -0.2322 -0.2685
  124OSM    H9S13203   1.510   5.634   7.454  0.1145  2.0959  0.9887
  124OSM    H9T13204   1.373   5.526   7.481 -0.6200 -0.3152 -1.6462
  124OSM   C10S13205   1.355   5.706   7.592  0.4077  0.2593 -0.1336
  124OSM   H10S13206   1.244   5.706   7.588  0.4033  0.4460 -0.0471
  124OSM   H10T13207   1.372   5.816   7.584 -0.8489  0.4334 -0.5137
  124OSM   C11S13208   1.411   5.641   7.714 -0.0690  0.2380  1.1238
  124OSM   H11S13209   1.521   5.655   7.706  0.0703 -1.4809 -0.4986
  124OSM   H11T13210   1.394   5.532   7.726  0.0670  0.4370  3.6206
  124OSM   C12S13211   1.386   5.727   7.834  0.0494 -0.4681  0.0959
  124OSM   H12S13212   1.278   5.739   7.858  0.6077  2.7973  1.4587
  124OSM   H12T13213   1.425   5.827   7.807  1.3634 -0.6360  1.3084
  124OSM   C13S13214   1.465   5.675   7.955 -0.6132 -0.0090 -0.3837
  124OSM   H13S13215   1.574   5.681   7.939 -0.1025 -0.2558  2.4533
  124OSM   H13T13216   1.437   5.571   7.983 -2.0556  0.6287  0.7542
  124OSM   C14S13217   1.424   5.764   8.077  0.0130  0.0427  0.2621
  124OSM   H14S13218   1.316   5.791   8.077  0.3488  1.8588 -2.5897
  124OSM   H14T13219   1.480   5.859   8.065 -2.2879  1.5102  0.3781
  124OSM   C15S13220   1.471   5.707   8.219  0.4955 -0.0965 -0.1475
  124OSM   H15S13221   1.419   5.764   8.299  1.5702  0.3130  0.2673
  124OSM   H15T13222   1.580   5.720   8.234  0.1534  2.3024  0.7322
  124OSM   C16S13223   1.423   5.562   8.249  0.6813 -0.0272  0.0597
  124OSM   H16S13224   1.496   5.505   8.188  0.9187 -0.5832  0.8430
  124OSM   H16T13225   1.319   5.534   8.221 -0.4176  0.8616  2.8936
  124OSM   C17S13226   1.442   5.522   8.387 -0.4247  0.1073  0.5542
  124OSM   H17S13227   1.363   5.573   8.448 -1.9276 -0.8801 -0.5021
  124OSM   H17T13228   1.537   5.562   8.427  0.3445 -2.8183  1.8912
  124OSM   C18S13229   1.451   5.373   8.412  0.0670 -0.1112 -0.1739
  124OSM   H18S13230   1.471   5.358   8.520  1.4186  1.9492 -0.0829
  124OSM   H18T13231   1.540   5.340   8.353  0.0855  0.9379 -0.7542
  124OSM   H18U13232   1.352   5.328   8.391  0.0744 -0.1213 -0.1862
  124OSM    C1F13233   1.599   5.133   6.920  0.0430 -0.3199  0.4245
  124OSM     OF13234   1.688   5.160   6.843 -0.5347  0.1040 -0.7227
  124OSM    C2F13235   1.598   5.039   7.035 -0.4717  0.7872 -0.0588
  124OSM    H2F13236   1.703   5.028   7.071 -0.4780 -2.1445 -0.6849
  124OSM    H2G13237   1.562   4.941   6.998  0.7788  0.6195 -0.9011
  124OSM    C3F13238   1.512   5.075   7.164 -0.6931  0.3239 -0.4969
  124OSM    H3F13239   1.531   4.995   7.239  1.1081  0.3894 -0.8233
  124OSM    H3G13240   1.402   5.083   7.154 -0.9380 -1.3620  0.4519
  124OSM    C4F13241   1.571   5.204   7.232  0.0775  0.6663  0.2089
  124OSM    H4F13242   1.503   5.222   7.318  0.9310 -1.0179  1.3035
  124OSM    H4G13243   1.553   5.287   7.161 -1.3397 -0.8726 -1.3388
  124OSM    C5F13244   1.704   5.189   7.295  0.3408  0.3339 -0.3160
  124OSM    H5F13245   1.789   5.206   7.225  1.3136 -1.9946  0.2167
  124OSM    H5G13246   1.717   5.088   7.339 -0.5253 -0.1866 -1.2304
  124OSM    C6F13247   1.705   5.293   7.411  0.2599  0.0025  0.5708
  124OSM    H6F13248   1.613   5.279   7.472  0.7168 -0.6292  1.1204
  124OSM    H6G13249   1.701   5.390   7.357  1.0315  0.5448  1.4624
  124OSM    C7F13250   1.826   5.279   7.504 -0.4030  0.3174  0.2515
  124OSM    H7F13251   1.917   5.278   7.440  0.0978 -0.4989  0.9445
  124OSM    H7G13252   1.816   5.194   7.574  0.4198 -1.4791 -1.7052
  124OSM    C8F13253   1.844   5.407   7.589  0.1108  0.0482  0.3419
  124OSM    H8F13254   1.853   5.492   7.517 -2.9770  0.5584  0.4061
  124OSM    H8G13255   1.936   5.392   7.649 -0.8338 -0.1482  1.7846
  124OSM    C9F13256   1.731   5.433   7.682 -0.6134  0.3049 -0.2215
  124OSM    H9F13257   1.642   5.476   7.633 -0.4586  1.5710  0.5513
  124OSM   C10F13258   1.721   5.397   7.809 -0.3003  0.9465 -0.4158
  124OSM   H10F13259   1.630   5.433   7.860 -1.3470 -0.3589 -1.2654
  124OSM   C11F13260   1.816   5.330   7.910 -0.1535  0.4467  0.5654
  124OSM   H11F13261   1.921   5.340   7.876 -0.3085 -0.0401 -0.0697
  124OSM   H11G13262   1.790   5.223   7.924  0.3706  0.5669  2.8785
  124OSM   C12F13263   1.794   5.385   8.053  0.0688  0.4462  0.5718
  124OSM   H12F13264   1.853   5.324   8.125  0.7090  0.0731 -0.2519
  124OSM   H12G13265   1.684   5.375   8.067 -0.0884  0.1894 -0.7658
  124OSM   C13F13266   1.828   5.532   8.077  0.1173  0.4362  0.0574
  124OSM   H13F13267   1.751   5.594   8.027  0.3572  2.9065  2.5791
  124OSM   H13G13268   1.922   5.550   8.020  1.1080 -2.8288  0.4152
  124OSM   C14F13269   1.826   5.578   8.222  0.3653 -0.0535  0.1532
  124OSM   H14F13270   1.727   5.561   8.271 -0.0036 -0.2183 -0.6321
  124OSM   H14G13271   1.849   5.686   8.232  3.2475 -0.5177 -0.6054
  124OSM   C15F13272   1.943   5.522   8.306 -0.3431 -0.4331 -0.9219
  124OSM   H15F13273   2.031   5.560   8.249 -0.5073  0.1596 -0.7859
  124OSM   H15G13274   1.948   5.412   8.297  0.6617 -0.4007 -0.8881
  124OSM   C16F13275   1.944   5.567   8.457  0.0629 -0.2911  0.0540
  124OSM   H16F13276   1.941   5.677   8.474  0.3869  0.0834 -2.0394
  124OSM   H16G13277   2.040   5.520   8.487 -0.4436 -1.5177 -0.1670
  124OSM   C17F13278   1.833   5.495   8.527 -0.8710 -0.6816  0.0808
  124OSM   H17F13279   1.833   5.388   8.498  1.0083 -1.4410  2.4989
  124OSM   H17G13280   1.733   5.544   8.518 -0.7416  0.0426  1.9419
  124OSM   C18F13281   1.864   5.489   8.674 -0.3198  0.3757 -0.3268
  124OSM   H18F13282   1.885   5.593   8.705 -0.6554  0.6612 -1.0457
  124OSM   H18G13283   1.957   5.428   8.680 -1.6757 -1.7308  0.4037
  124OSM   H18H13284   1.785   5.441   8.735  1.3282 -1.2912  0.6002
  125OSM      N13285   1.546   0.159   6.016  1.0935  0.0050 -0.1143
  125OSM    C1513286   1.655   0.075   6.065 -0.3713  0.1241 -0.8056
  125OSM   H15A13287   1.750   0.084   6.015  0.1709  1.3844  0.3826
  125OSM   H15B13288   1.624  -0.028   6.067  0.3875 -0.1400 -1.8554
  125OSM   H15C13289   1.680   0.104   6.166 -0.5221  0.1555 -0.7767
  125OSM    C1413290   1.595   0.303   6.001 -0.3351  0.0656  0.0983
  125OSM   H14A13291   1.685   0.309   5.942 -0.8617 -0.8270 -0.8358
  125OSM   H14B13292   1.630   0.324   6.101 -0.9820 -0.2913  0.4112
  125OSM   H14C13293   1.525   0.374   5.958  1.0065  1.2149 -0.2500
  125OSM    C1313294   1.499   0.098   5.888  0.1664 -0.5540  0.7126
  125OSM   H13A13295   1.503  -0.010   5.889 -2.6832 -0.7567  1.8070
  125OSM   H13B13296   1.572   0.135   5.818 -0.9152 -0.8213 -0.6067
  125OSM   H13C13297   1.399   0.124   5.855  0.0355 -1.8242  0.0158
  125OSM    C1213298   1.430   0.148   6.117  0.0763  0.8227  0.0453
  125OSM   H12A13299   1.405   0.043   6.119 -1.5615  1.1481  3.7323
  125OSM   H12B13300   1.345   0.203   6.081 -1.4090 -0.8944  0.7610
  125OSM    C1113301   1.444   0.180   6.274  0.8276 -0.0422  0.3479
  125OSM   H11A13302   1.510   0.101   6.316  0.4075  0.1833  1.4988
  125OSM   H11B13303   1.340   0.156   6.305 -0.1151  1.8151 -1.2084
  125OSM      P13304   1.381   0.422   6.327 -0.2505 -0.4361 -0.0624
  125OSM    O1313305   1.441   0.555   6.303  0.4726  0.8609  0.4572
  125OSM    O1413306   1.265   0.389   6.242 -0.0126 -0.0872 -0.0757
  125OSM    O1113307   1.339   0.405   6.480  0.0720 -0.5058 -0.1389
  125OSM    O1213308   1.489   0.310   6.309  0.5582 -0.1003 -0.6566
  125OSM    C1S13309   1.435   0.421   6.578 -0.3053  0.0038 -0.0657
  125OSM    H1S13310   1.432   0.525   6.617 -1.8450 -0.6915  1.8463
  125OSM    H1T13311   1.535   0.388   6.544  0.4464  2.3179 -0.2720
  125OSM     NF13312   1.493   0.342   6.801 -0.3789  0.0828  0.2848
  125OSM    HNF13313   1.554   0.263   6.809  2.6364  2.3839  3.1684
  125OSM    C2S13314   1.396   0.327   6.701  0.0237 -0.1353  0.3286
  125OSM    H2S13315   1.304   0.384   6.728 -0.2649  0.2335 -1.2860
  125OSM    C3S13316   1.355   0.181   6.672 -0.2628 -0.0748  0.1317
  125OSM    H3S13317   1.445   0.118   6.652 -0.8258 -0.7031 -0.5226
  125OSM     O313318   1.273   0.169   6.553 -0.3672 -0.3260 -0.2130
  125OSM    HO313319   1.263   0.258   6.516  2.6871  1.0048  1.7489
  125OSM    C4S13320   1.285   0.113   6.789  0.1326  0.0179 -0.3664
  125OSM    H4S13321   1.197   0.170   6.823 -1.5244 -1.6486 -1.7195
  125OSM    C5S13322   1.336   0.011   6.859 -0.6287  0.2456 -0.3965
  125OSM    H5S13323   1.435  -0.033   6.836 -0.8648 -0.6573  0.2789
  125OSM    C6S13324   1.269  -0.039   6.982 -0.1530 -0.0184 -0.0809
  125OSM    H6S13325   1.273  -0.150   6.985 -2.7318 -0.1510  0.9152
  125OSM    H6T13326   1.159  -0.024   6.985 -0.4141 -1.8783  1.5751
  125OSM    C7S13327   1.330  -0.007   7.119  0.7621  0.1841 -0.7150
  125OSM    H7S13328   1.433  -0.049   7.121  0.7820  0.2609  0.2386
  125OSM    H7T13329   1.261  -0.051   7.193  0.1950  0.5236 -1.0308
  125OSM    C8S13330   1.337   0.144   7.146  0.2323 -0.4872 -0.5852
  125OSM    H8S13331   1.240   0.199   7.152 -0.0110 -0.6071 -2.6372
  125OSM    H8T13332   1.381   0.209   7.067  1.1362 -0.9661 -0.4899
  125OSM    C9S13333   1.417   0.178   7.275  0.1202  0.3609 -0.1122
  125OSM    H9S13334   1.461   0.280   7.267  0.8369  0.2262  1.5944
  125OSM    H9T13335   1.499   0.104   7.286  1.0724  1.4881  0.5954
  125OSM   C10S13336   1.327   0.174   7.395  0.0751  0.3665 -0.2391
  125OSM   H10S13337   1.290   0.069   7.397 -1.5160  0.9145  1.0548
  125OSM   H10T13338   1.232   0.224   7.367 -0.5593 -1.5092 -1.6683
  125OSM   C11S13339   1.387   0.224   7.525  0.0808 -0.5439 -0.3221
  125OSM   H11S13340   1.409   0.333   7.513  1.4041 -0.7843 -0.2237
  125OSM   H11T13341   1.484   0.175   7.546  1.4087  2.4104  0.9855
  125OSM   C12S13342   1.299   0.195   7.643  0.3389  1.1767 -0.1622
  125OSM   H12S13343   1.261   0.091   7.638 -1.0884  1.7467 -3.0195
  125OSM   H12T13344   1.215   0.268   7.645 -0.5207  0.2495 -1.2446
  125OSM   C13S13345   1.379   0.203   7.775 -0.3001  0.0890 -0.0210
  125OSM   H13S13346   1.437   0.297   7.789 -0.3753 -0.0674  1.5118
  125OSM   H13T13347   1.451   0.119   7.786  0.4262  0.9391  2.4739
  125OSM   C14S13348   1.277   0.197   7.882  0.8079  0.5118 -0.3288
  125OSM   H14S13349   1.221   0.103   7.863 -0.6298  1.5663 -1.6120
  125OSM   H14T13350   1.220   0.292   7.871 -0.1866 -0.0335 -0.0166
  125OSM   C15S13351   1.328   0.196   8.029  0.5146  0.1038 -0.2174
  125OSM   H15S13352   1.420   0.258   8.039  2.2408 -2.4960  1.2193
  125OSM   H15T13353   1.362   0.093   8.053  0.1222  0.1757  0.6832
  125OSM   C16S13354   1.235   0.251   8.136  0.4917 -0.0286  0.7418
  125OSM   H16S13355   1.149   0.182   8.141  0.0899  0.5151  1.3827
  125OSM   H16T13356   1.201   0.354   8.112  1.3248  0.2853  0.8673
  125OSM   C17S13357   1.317   0.237   8.267  0.2774 -1.0487  0.1581
  125OSM   H17S13358   1.417   0.282   8.253  0.5512 -1.8099 -0.4400
  125OSM   H17T13359   1.339   0.128   8.268 -0.0499 -1.3869 -4.3600
  125OSM   C18S13360   1.241   0.285   8.393 -0.3568  0.3275  0.4498
  125OSM   H18S13361   1.160   0.212   8.413 -0.1100  0.0198  0.3312
  125OSM   H18T13362   1.191   0.384   8.381  0.4912  0.5743 -1.5624
  125OSM   H18U13363   1.306   0.295   8.482 -0.6747  0.9452  0.6185
  125OSM    C1F13364   1.532   0.455   6.858  0.3246 -0.5753 -0.4848
  125OSM     OF13365   1.456   0.552   6.877  0.0303  0.1585  0.3499
  125OSM    C2F13366   1.662   0.460   6.916  0.0487  0.5038 -0.6456
  125OSM    H2F13367   1.729   0.482   6.830  0.4668 -0.2460 -0.5201
  125OSM    H2G13368   1.688   0.356   6.947  2.0321  1.4097  1.0535
  125OSM    C3F13369   1.672   0.566   7.024 -0.0955  0.1642  0.3393
  125OSM    H3F13370   1.628   0.665   7.002 -1.0529 -0.0910  1.0531
  125OSM    H3G13371   1.781   0.571   7.048  0.3475 -0.7879 -1.3417
  125OSM    C4F13372   1.615   0.518   7.154  0.4051 -0.9281  0.1730
  125OSM    H4F13373   1.657   0.423   7.194  1.0420 -0.8778 -0.3446
  125OSM    H4G13374   1.505   0.507   7.144  0.5442 -0.9289 -1.7283
  125OSM    C5F13375   1.659   0.621   7.265 -0.2018 -0.2346  0.5019
  125OSM    H5F13376   1.631   0.724   7.234  3.1737  0.3270 -1.0484
  125OSM    H5G13377   1.769   0.613   7.263 -0.3352 -2.8250 -1.3353
  125OSM    C6F13378   1.602   0.579   7.403  0.5726 -0.3267 -0.2584
  125OSM    H6F13379   1.615   0.469   7.418  0.4528  0.0210  3.3516
  125OSM    H6G13380   1.492   0.590   7.392  0.5419  0.2163  0.4809
  125OSM    C7F13381   1.655   0.662   7.525 -0.0017  0.3991 -0.0396
  125OSM    H7F13382   1.634   0.765   7.491  1.1694  0.8378  0.5114
  125OSM    H7G13383   1.764   0.647   7.531  0.1656  1.7729  0.9273
  125OSM    C8F13384   1.573   0.623   7.654  0.2814 -0.3727 -0.0248
  125OSM    H8F13385   1.597   0.518   7.682  0.7143 -0.4382 -0.6158
  125OSM    H8G13386   1.467   0.619   7.622 -0.1156  1.2306  0.9470
  125OSM    C9F13387   1.587   0.721   7.763 -0.1484 -0.5269  0.3944
  125OSM    H9F13388   1.601   0.826   7.733  0.2686 -0.2781  1.4116
  125OSM   C10F13389   1.569   0.688   7.892  0.2676 -0.4426  0.8299
  125OSM   H10F13390   1.580   0.768   7.967 -0.1263  1.8492 -1.4128
  125OSM   C11F13391   1.539   0.551   7.943 -0.1661  0.5836  0.3255
  125OSM   H11F13392   1.618   0.487   7.898  0.5646  0.6894  1.4302
  125OSM   H11G13393   1.440   0.516   7.906  0.1795 -0.0739 -0.0091
  125OSM   C12F13394   1.556   0.538   8.089 -0.6802  0.5329  0.2165
  125OSM   H12F13395   1.658   0.573   8.115 -0.7238  0.3265  0.6822
  125OSM   H12G13396   1.552   0.433   8.125 -1.1242  1.1581  2.1285
  125OSM   C13F13397   1.443   0.616   8.165  0.4910 -0.8651 -0.2422
  125OSM   H13F13398   1.348   0.558   8.173  0.0046  0.0786  1.1651
  125OSM   H13G13399   1.421   0.707   8.104  0.9277 -0.3326  0.3841
  125OSM   C14F13400   1.499   0.666   8.303 -0.6320  0.6060  0.2405
  125OSM   H14F13401   1.420   0.737   8.336 -0.5359  0.6269  0.4260
  125OSM   H14G13402   1.592   0.724   8.283 -1.0850  1.8438  1.5370
  125OSM   C15F13403   1.496   0.575   8.418 -0.3839  0.8468 -0.5366
  125OSM   H15F13404   1.559   0.486   8.398 -1.9925 -1.1916  2.6539
  125OSM   H15G13405   1.397   0.526   8.426  0.1094 -0.4712 -1.9887
  125OSM   C16F13406   1.528   0.627   8.559 -0.7899 -0.3902  0.2834
  125OSM   H16F13407   1.508   0.552   8.639 -0.2889 -0.7463  0.0813
  125OSM   H16G13408   1.465   0.717   8.575  0.9873  0.6509  1.9932
  125OSM   C17F13409   1.665   0.685   8.575 -0.3309  0.0159  0.6009
  125OSM   H17F13410   1.704   0.734   8.483  0.6326  1.8526  1.9376
  125OSM   H17G13411   1.728   0.594   8.588 -1.1461 -0.5769  0.5355
  125OSM   C18F13412   1.665   0.781   8.693 -0.1070  0.5473 -0.6902
  125OSM   H18F13413   1.590   0.862   8.682 -1.1492 -0.4415 -1.0430
  125OSM   H18G13414   1.767   0.824   8.690  0.6302 -1.1544 -0.9056
  125OSM   H18H13415   1.656   0.722   8.786  0.2601 -1.6042 -1.9556
  126OSM      N13416   4.369   6.123   6.646 -0.7568  0.0559 -0.6011
  126OSM    C1513417   4.311   6.001   6.586 -0.4541  0.1497  0.1146
  126OSM   H15A13418   4.324   5.993   6.479 -0.3396  2.1303 -0.0552
  126OSM   H15B13419   4.205   5.992   6.606 -0.3296 -0.9204  0.3144
  126OSM   H15C13420   4.367   5.928   6.642 -0.5423  2.6535  3.8523
  126OSM    C1413421   4.305   6.247   6.589  0.3228  0.0758  0.2307
  126OSM   H14A13422   4.351   6.333   6.635 -2.4418  2.1694 -0.5749
  126OSM   H14B13423   4.200   6.256   6.613 -0.5780 -1.9557 -2.5480
  126OSM   H14C13424   4.309   6.273   6.484 -0.3994  2.6689  0.7656
  126OSM    C1313425   4.351   6.119   6.798  0.2222  0.1585 -0.4451
  126OSM   H13A13426   4.259   6.070   6.825 -0.6173  1.0242 -1.6488
  126OSM   H13B13427   4.355   6.219   6.840 -0.1781  0.9430 -2.2092
  126OSM   H13C13428   4.430   6.067   6.851 -0.1615 -0.8048 -0.8114
  126OSM    C1213429   4.513   6.129   6.605 -0.4872 -0.1321 -0.4614
  126OSM   H12A13430   4.520   6.140   6.498 -0.3230  1.8278 -0.2939
  126OSM   H12B13431   4.575   6.043   6.623 -0.0248 -0.1191 -1.8470
  126OSM    C1113432   4.593   6.243   6.669 -0.3140  0.3933  0.7128
  126OSM   H11A13433   4.598   6.233   6.780 -3.1240  1.2704  0.9938
  126OSM   H11B13434   4.543   6.339   6.645 -1.4074 -0.3838 -0.2498
  126OSM      P13435   4.842   6.183   6.665 -0.3849 -0.0032  0.1066
  126OSM    O1313436   4.912   6.111   6.559 -0.0050 -0.2241 -0.8573
  126OSM    O1413437   4.907   6.296   6.731  0.6103  0.0007 -0.1616
  126OSM    O1113438   4.783   6.086   6.779  0.8078 -0.8445  0.3613
  126OSM    O1213439   4.717   6.249   6.597  0.3611 -0.1226 -0.3140
  126OSM    C1S13440   4.874   5.999   6.846 -0.3164  0.3628  0.6346
  126OSM    H1S13441   4.973   6.045   6.863 -0.5808  1.0091  0.4401
  126OSM    H1T13442   4.905   5.908   6.791  2.0303  0.3746  1.8231
  126OSM     NF13443   4.939   5.933   7.075  0.9079  0.4881 -0.1188
  126OSM    HNF13444   4.950   5.837   7.097 -1.9106  0.4248  1.6031
  126OSM    C2S13445   4.829   5.974   6.994  0.6177 -0.3981  0.4176
  126OSM    H2S13446   4.811   6.080   7.023 -1.3530 -0.5667 -0.0205
  126OSM    C3S13447   4.708   5.883   6.990  0.1683 -0.1859 -0.0154
  126OSM    H3S13448   4.715   5.784   6.941  0.6869 -1.0950  1.8448
  126OSM     O313449   4.596   5.956   6.934 -0.6554  0.1820 -0.4725
  126OSM    HO313450   4.632   6.042   6.910  0.4896  0.3984  1.7083
  126OSM    C4S13451   4.672   5.859   7.131  0.5200  0.8939 -0.2821
  126OSM    H4S13452   4.601   5.928   7.180  1.8889 -0.5320  4.2670
  126OSM    C5S13453   4.686   5.753   7.212 -0.9711  0.3249  0.3235
  126OSM    H5S13454   4.733   5.658   7.180  0.8844  1.7636 -1.5224
  126OSM    C6S13455   4.633   5.756   7.350  0.3360 -0.4012  0.2422
  126OSM    H6S13456   4.599   5.657   7.387  0.2138  0.4462  2.6008
  126OSM    H6T13457   4.549   5.829   7.355  2.4709  2.1211  2.6953
  126OSM    C7S13458   4.741   5.820   7.449 -1.0325 -0.7748 -0.0834
  126OSM    H7S13459   4.775   5.916   7.406 -1.5403  0.5343  2.2629
  126OSM    H7T13460   4.831   5.755   7.440 -1.2419 -1.0443 -0.2594
  126OSM    C8S13461   4.696   5.837   7.594  0.3577  0.0665 -0.3383
  126OSM    H8S13462   4.602   5.896   7.585  0.1919 -0.1821 -0.2613
  126OSM    H8T13463   4.770   5.903   7.644  0.1011  0.3963 -0.3889
  126OSM    C9S13464   4.670   5.704   7.660 -0.0118  0.4177 -0.0548
  126OSM    H9S13465   4.764   5.645   7.653 -2.2330 -3.5684  1.1374
  126OSM    H9T13466   4.590   5.655   7.601 -0.9615  0.7295  0.9350
  126OSM   C10S13467   4.618   5.722   7.805  0.2496 -0.6051  0.2377
  126OSM   H10S13468   4.508   5.730   7.800  0.4071  1.2202 -1.5639
  126OSM   H10T13469   4.660   5.819   7.838 -0.5602  1.0282 -3.1154
  126OSM   C11S13470   4.652   5.606   7.899  0.5339 -0.0808 -0.0884
  126OSM   H11S13471   4.754   5.626   7.937 -0.1028  0.2373  1.5187
  126OSM   H11T13472   4.636   5.505   7.854  1.7938  0.4328 -1.8208
  126OSM   C12S13473   4.566   5.618   8.022  0.4125 -0.1453 -0.6766
  126OSM   H12S13474   4.598   5.535   8.088 -1.8619 -0.5384  0.0279
  126OSM   H12T13475   4.458   5.609   7.999  0.0574 -0.1883  0.8538
  126OSM   C13S13476   4.569   5.753   8.092 -0.3403 -0.6941  0.2992
  126OSM   H13S13477   4.532   5.834   8.026  0.5007  0.1527  0.8447
  126OSM   H13T13478   4.675   5.778   8.114 -0.3794  0.5480 -0.8172
  126OSM   C14S13479   4.494   5.762   8.229  0.3235 -0.7057 -0.4090
  126OSM   H14S13480   4.385   5.752   8.215 -0.2330  0.5477  2.3971
  126OSM   H14T13481   4.501   5.862   8.276  0.4911 -0.6782 -0.4911
  126OSM   C15S13482   4.552   5.647   8.314  0.1797 -0.2178  0.4127
  126OSM   H15S13483   4.662   5.640   8.295  0.0179  0.5632 -1.0063
  126OSM   H15T13484   4.514   5.550   8.277  1.6678 -1.4519  1.9365
  126OSM   C16S13485   4.520   5.669   8.461 -0.0393  0.1687 -0.0066
  126OSM   H16S13486   4.412   5.653   8.483 -0.0845  0.6621  0.1324
  126OSM   H16T13487   4.539   5.777   8.479 -1.6941  0.3539  0.8482
  126OSM   C17S13488   4.605   5.575   8.547 -0.2102  0.3117 -0.2050
  126OSM   H17S13489   4.711   5.580   8.516 -0.2654 -2.1246 -1.0844
  126OSM   H17T13490   4.581   5.469   8.521  0.0131 -0.0128  0.8542
  126OSM   C18S13491   4.577   5.590   8.697 -0.4369 -0.5739  0.7848
  126OSM   H18S13492   4.586   5.699   8.719  1.4980 -0.2016 -1.3682
  126OSM   H18T13493   4.657   5.538   8.754  2.5571  1.3814 -1.2828
  126OSM   H18U13494   4.476   5.551   8.719 -0.3437 -2.0691 -1.1579
  126OSM    C1F13495   5.039   6.009   7.114  0.5977 -0.0706 -0.3468
  126OSM     OF13496   5.058   6.123   7.073 -0.3692 -0.7382 -0.3962
  126OSM    C2F13497   5.136   5.943   7.202 -0.8439 -0.4776 -0.8752
  126OSM    H2F13498   5.218   5.888   7.151 -0.2292 -2.3851  1.9226
  126OSM    H2G13499   5.096   5.858   7.262 -0.9133  0.6316  0.7347
  126OSM    C3F13500   5.190   6.041   7.302 -0.1322  0.2708  0.4096
  126OSM    H3F13501   5.124   6.122   7.340  0.5402  0.2282  1.7437
  126OSM    H3G13502   5.278   6.092   7.257  0.5864  0.6187  2.1303
  126OSM    C4F13503   5.246   5.972   7.429  0.0120 -0.5550  0.5813
  126OSM    H4F13504   5.311   6.053   7.469 -1.3986  0.2516  1.3018
  126OSM    H4G13505   5.305   5.883   7.398 -1.4167 -1.9942  1.8520
  126OSM    C5F13506   5.138   5.909   7.518  0.8807 -0.4124  0.0942
  126OSM    H5F13507   5.064   5.842   7.470 -1.2549  1.3017  0.8335
  126OSM    H5G13508   5.079   5.995   7.555  0.9109 -0.1360 -0.4874
  126OSM    C6F13509   5.201   5.837   7.635  0.0484 -0.3999  0.2870
  126OSM    H6F13510   5.274   5.901   7.690 -1.0854  0.2533  1.0854
  126OSM    H6G13511   5.255   5.747   7.600 -0.7294 -0.1545 -1.6729
  126OSM    C7F13512   5.083   5.794   7.731 -0.3003 -0.4069 -0.1418
  126OSM    H7F13513   4.999   5.744   7.677 -0.4531  1.6492 -1.9064
  126OSM    H7G13514   5.030   5.881   7.775  3.9876  2.7108 -0.5529
  126OSM    C8F13515   5.131   5.691   7.835  0.1776 -0.1322 -0.5070
  126OSM    H8F13516   5.200   5.617   7.790 -0.6691 -1.3237  0.0958
  126OSM    H8G13517   5.044   5.628   7.863  1.5245 -1.6109  0.6093
  126OSM    C9F13518   5.207   5.767   7.943  0.0480 -0.1826 -0.7274
  126OSM    H9F13519   5.306   5.802   7.910  0.0319  2.0764  1.3480
  126OSM   C10F13520   5.162   5.795   8.065 -0.0319 -0.3146  0.0023
  126OSM   H10F13521   5.234   5.842   8.133  0.9441 -0.9805 -0.5402
  126OSM   C11F13522   5.024   5.769   8.108 -0.0775  0.0777  1.1871
  126OSM   H11F13523   4.953   5.758   8.023 -0.1897  0.5265  1.2222
  126OSM   H11G13524   4.984   5.850   8.172 -1.7781 -0.8941  1.4123
  126OSM   C12F13525   4.986   5.641   8.184  0.1374 -0.3297  0.4263
  126OSM   H12F13526   5.057   5.564   8.148 -0.4289  0.1926 -1.9460
  126OSM   H12G13527   4.882   5.611   8.161 -0.1055  1.8309 -1.7347
  126OSM   C13F13528   5.001   5.641   8.334  0.2087  0.4134 -0.0977
  126OSM   H13F13529   4.928   5.717   8.368  0.2313  0.7296 -0.7416
  126OSM   H13G13530   5.099   5.688   8.358 -0.7603  1.5828  1.7816
  126OSM   C14F13531   4.973   5.507   8.411  0.4626 -0.9382 -0.7797
  126OSM   H14F13532   5.051   5.433   8.383 -0.6766 -1.9882 -1.2793
  126OSM   H14G13533   4.876   5.457   8.392  0.9338 -2.0781 -0.2439
  126OSM   C15F13534   5.005   5.520   8.556 -0.7454 -0.2683 -0.0661
  126OSM   H15F13535   4.929   5.565   8.623 -1.9392  0.1638 -1.6404
  126OSM   H15G13536   5.095   5.584   8.566 -0.3929 -0.5083 -1.4413
  126OSM   C16F13537   5.026   5.382   8.630 -0.4809 -0.3330 -0.1676
  126OSM   H16F13538   5.080   5.305   8.571  1.6117  0.9950 -0.0683
  126OSM   H16G13539   4.919   5.350   8.638 -0.5581 -0.2451 -0.8256
  126OSM   C17F13540   5.101   5.401   8.762  0.7486 -0.3409  0.1362
  126OSM   H17F13541   5.203   5.438   8.741  0.7987 -0.5642 -0.0087
  126OSM   H17G13542   5.104   5.301   8.810  2.8357 -1.3165 -1.8171
  126OSM   C18F13543   5.025   5.483   8.866  0.7644 -0.2817 -0.2142
  126OSM   H18F13544   5.023   5.591   8.841  1.7580 -0.2276 -0.1297
  126OSM   H18G13545   5.072   5.467   8.966 -1.7576  0.2751  1.1303
  126OSM   H18H13546   4.921   5.450   8.886  0.3872  0.3000 -1.1723
  127OSM      N13547   6.260   5.457   6.076  0.3627 -0.3991 -0.5033
  127OSM    C1513548   6.403   5.413   6.073 -0.6262 -0.8447 -0.1542
  127OSM   H15A13549   6.405   5.308   6.097 -2.8802 -1.3651 -1.9063
  127OSM   H15B13550   6.463   5.474   6.139 -1.0949  1.7869 -1.9815
  127OSM   H15C13551   6.455   5.433   5.981  2.3599 -0.7097  1.4436
  127OSM    C1413552   6.180   5.378   5.983  0.8037 -0.5259  0.2700
  127OSM   H14A13553   6.073   5.380   5.998  0.9406  0.0142  1.2483
  127OSM   H14B13554   6.229   5.282   5.981  2.4039  0.2630 -0.0261
  127OSM   H14C13555   6.188   5.411   5.881  0.1167 -1.2976 -0.0495
  127OSM    C1313556   6.211   5.436   6.220 -0.3243  0.0822  1.1335
  127OSM   H13A13557   6.265   5.502   6.286  0.4427  0.7724 -0.1489
  127OSM   H13B13558   6.213   5.334   6.254 -0.1519 -0.2662  0.0895
  127OSM   H13C13559   6.104   5.446   6.218 -0.4720 -1.4366 -0.6463
  127OSM    C1213560   6.242   5.603   6.041 -0.3451  0.7343  0.7404
  127OSM   H12A13561   6.138   5.631   6.050 -0.9924 -1.1661 -0.3375
  127OSM   H12B13562   6.269   5.619   5.938 -1.8749 -1.4108 -0.0626
  127OSM    C1113563   6.320   5.711   6.126  0.4482 -0.2409  0.4674
  127OSM   H11A13564   6.311   5.805   6.068  1.8980 -0.0803  0.4714
  127OSM   H11B13565   6.428   5.693   6.143  0.4617 -0.8211 -0.2084
  127OSM      P13566   6.115   5.803   6.257  0.2565  0.3684 -0.1873
  127OSM    O1313567   6.121   5.942   6.209 -0.0911  0.2258 -0.0216
  127OSM    O1413568   6.008   5.721   6.204 -0.0120  0.3620 -0.7000
  127OSM    O1113569   6.082   5.803   6.407  0.2106 -0.1702 -0.2322
  127OSM    O1213570   6.252   5.723   6.246 -0.0907 -0.2586 -0.0117
  127OSM    C1S13571   6.198   5.811   6.496  0.5463  0.1779  0.2886
  127OSM    H1S13572   6.248   5.910   6.496 -0.3448  0.6474 -0.8977
  127OSM    H1T13573   6.272   5.732   6.472  0.8178 -0.4326  2.7784
  127OSM     NF13574   6.266   5.832   6.735  0.4320  0.4028  0.2332
  127OSM    HNF13575   6.344   5.776   6.762  0.5568  1.5966  2.6410
  127OSM    C2S13576   6.161   5.779   6.642 -0.5126  0.3956 -0.4373
  127OSM    H2S13577   6.063   5.830   6.650 -1.5564 -1.0485 -2.9731
  127OSM    C3S13578   6.131   5.631   6.669  0.6874  0.5005 -0.1226
  127OSM    H3S13579   6.218   5.563   6.662 -0.8920 -1.6905  0.5701
  127OSM     O313580   6.038   5.560   6.586  0.2603 -0.7751  0.6530
  127OSM    HO313581   6.036   5.615   6.508  1.8501 -2.6303 -0.8144
  127OSM    C4S13582   6.068   5.619   6.807 -0.3923 -0.0492  0.2517
  127OSM    H4S13583   5.977   5.678   6.827 -0.4454  0.1185 -0.4627
  127OSM    C5S13584   6.121   5.560   6.910  0.4634  0.2270 -0.1373
  127OSM    H5S13585   6.223   5.520   6.893  1.7176  3.2044 -0.2644
  127OSM    C6S13586   6.054   5.538   7.043 -0.0985  0.0366 -0.4948
  127OSM    H6S13587   6.040   5.435   7.082  0.2534  0.7564  1.6842
  127OSM    H6T13588   5.949   5.575   7.039 -0.8584 -1.8064  0.8829
  127OSM    C7S13589   6.125   5.613   7.157 -0.2540 -0.0878  0.5696
  127OSM    H7S13590   6.236   5.609   7.156 -0.2633 -0.3779 -1.1786
  127OSM    H7T13591   6.083   5.574   7.253  0.2938  1.9589  1.7018
  127OSM    C8S13592   6.095   5.765   7.154 -0.0673  0.4712  0.1362
  127OSM    H8S13593   5.993   5.788   7.116 -0.5682 -0.8604  0.6135
  127OSM    H8T13594   6.161   5.805   7.074 -0.8004  0.4791 -0.4797
  127OSM    C9S13595   6.129   5.837   7.285 -0.4644 -0.4933  0.3649
  127OSM    H9S13596   6.144   5.946   7.272  1.2953 -0.7865 -0.3736
  127OSM    H9T13597   6.224   5.791   7.320  1.1267  0.4457 -2.4193
  127OSM   C10S13598   6.025   5.817   7.395 -0.1976 -0.0386  0.1943
  127OSM   H10S13599   6.005   5.710   7.417  1.4202 -0.1718  1.1948
  127OSM   H10T13600   5.927   5.863   7.373 -0.3306 -0.2124  0.4236
  127OSM   C11S13601   6.062   5.885   7.530  0.0405 -0.3006 -0.3677
  127OSM   H11S13602   6.052   5.994   7.515  2.1284 -0.0112  0.1409
  127OSM   H11T13603   6.165   5.859   7.561 -0.4164 -0.8720  0.7428
  127OSM   C12S13604   5.971   5.856   7.654 -0.0544  0.2030 -0.3340
  127OSM   H12S13605   5.954   5.747   7.640  0.8760  0.0758 -0.5272
  127OSM   H12T13606   5.870   5.902   7.648 -1.6760 -3.3051 -2.6817
  127OSM   C13S13607   6.031   5.893   7.790  0.5501  0.5949 -0.6484
  127OSM   H13S13608   6.031   6.004   7.786 -1.0419  0.7471  1.5907
  127OSM   H13T13609   6.131   5.845   7.799 -0.1444 -0.4977  2.6271
  127OSM   C14S13610   5.931   5.845   7.901 -0.0250 -0.5445  0.3086
  127OSM   H14S13611   5.938   5.734   7.907  0.2885 -0.5099  0.6149
  127OSM   H14T13612   5.827   5.879   7.883 -0.0193 -0.7369 -0.1049
  127OSM   C15S13613   5.971   5.913   8.033  0.3024 -0.1538  0.4625
  127OSM   H15S13614   5.953   6.023   8.037 -1.5862 -0.3369 -1.4902
  127OSM   H15T13615   6.081   5.900   8.036  0.3782  0.1446 -0.5576
  127OSM   C16S13616   5.920   5.834   8.159  0.0962  0.1731  0.8424
  127OSM   H16S13617   5.960   5.731   8.148 -0.0714  0.3190 -1.6630
  127OSM   H16T13618   5.809   5.824   8.162  0.0314  0.9966  2.2238
  127OSM   C17S13619   5.968   5.912   8.284 -0.7456  0.0488  0.5040
  127OSM   H17S13620   5.899   5.887   8.368 -0.6473  0.3425  0.6761
  127OSM   H17T13621   5.957   6.022   8.276 -1.7410 -0.1514 -1.5436
  127OSM   C18S13622   6.108   5.882   8.335  0.2952 -0.4503 -0.3354
  127OSM   H18S13623   6.191   5.908   8.266  1.1859 -5.3664 -1.5054
  127OSM   H18T13624   6.114   5.776   8.370 -0.2891 -0.7580 -1.1418
  127OSM   H18U13625   6.136   5.941   8.425 -0.3797  0.2215 -0.5603
  127OSM    C1F13626   6.257   5.959   6.782  0.0450  0.5178 -0.0084
  127OSM     OF13627   6.166   6.033   6.747 -0.2423 -0.3096  0.3329
  127OSM    C2F13628   6.372   5.995   6.878 -0.1946  0.0356 -0.4684
  127OSM    H2F13629   6.465   6.012   6.819  0.7259  0.0291  0.9459
  127OSM    H2G13630   6.388   5.914   6.952 -0.0417  1.4484  1.1041
  127OSM    C3F13631   6.347   6.124   6.948 -0.3967 -0.8140  0.0876
  127OSM    H3F13632   6.260   6.120   7.017 -0.3811 -1.8464  0.0595
  127OSM    H3G13633   6.329   6.201   6.870  2.7067  0.4839  0.5168
  127OSM    C4F13634   6.471   6.170   7.032 -0.0484  0.2487  0.2649
  127OSM    H4F13635   6.448   6.275   7.060 -0.6092  0.1369  0.2345
  127OSM    H4G13636   6.555   6.168   6.959 -1.6897 -0.0493 -1.7147
  127OSM    C5F13637   6.507   6.087   7.157  0.2697  0.0656 -0.3416
  127OSM    H5F13638   6.541   5.986   7.126 -0.7551 -0.0484 -1.1843
  127OSM    H5G13639   6.428   6.072   7.233 -0.1921  0.6296 -0.6938
  127OSM    C6F13640   6.617   6.151   7.242  0.3074 -0.5031 -0.2189
  127OSM    H6F13641   6.614   6.096   7.338 -0.5040  1.4441  0.9430
  127OSM    H6G13642   6.578   6.251   7.271  1.4027  0.3949 -1.6868
  127OSM    C7F13643   6.752   6.155   7.175  0.7256  0.4278  0.0747
  127OSM    H7F13644   6.744   6.201   7.074  0.3540 -1.2166 -0.6831
  127OSM    H7G13645   6.777   6.048   7.158  0.3583  0.6391 -2.1434
  127OSM    C8F13646   6.859   6.224   7.272 -0.3415  0.0344 -1.2804
  127OSM    H8F13647   6.958   6.185   7.242 -0.2299  0.1026 -1.0059
  127OSM    H8G13648   6.851   6.186   7.376  4.5393  1.0391 -0.3092
  127OSM    C9F13649   6.866   6.377   7.269  0.4022 -0.9232  0.3082
  127OSM    H9F13650   6.921   6.413   7.181 -2.5553 -1.1042 -1.7648
  127OSM   C10F13651   6.833   6.460   7.376  0.1704 -0.1843 -0.3625
  127OSM   H10F13652   6.853   6.568   7.368  2.5796 -0.5989 -0.7517
  127OSM   C11F13653   6.784   6.412   7.508 -0.5106 -0.0983 -0.1318
  127OSM   H11F13654   6.791   6.302   7.513 -0.0497 -0.0113  1.8305
  127OSM   H11G13655   6.680   6.445   7.529 -0.7147  1.7633 -3.3392
  127OSM   C12F13656   6.884   6.464   7.611  0.3786 -0.7041 -0.6448
  127OSM   H12F13657   6.867   6.573   7.614 -1.0523 -0.9207 -0.0022
  127OSM   H12G13658   6.987   6.441   7.576  1.1597 -0.0178  1.0726
  127OSM   C13F13659   6.857   6.399   7.748 -0.5252  0.0508  0.3398
  127OSM   H13F13660   6.844   6.290   7.730 -0.9940  0.3601 -1.4114
  127OSM   H13G13661   6.762   6.432   7.797 -0.5685  0.1104  0.2162
  127OSM   C14F13662   6.968   6.426   7.857 -0.1996  0.1100 -0.5240
  127OSM   H14F13663   6.974   6.533   7.882  2.6207 -0.8335  3.9183
  127OSM   H14G13664   7.062   6.388   7.812 -0.5120 -1.7340  0.2932
  127OSM   C15F13665   6.942   6.356   7.995  0.1217  1.3267 -0.7098
  127OSM   H15F13666   6.949   6.245   8.001  0.6788  1.3405 -0.9985
  127OSM   H15G13667   6.833   6.358   8.015 -0.1776 -1.1462 -1.7381
  127OSM   C16F13668   7.019   6.428   8.111  0.1871  0.1670 -0.4385
  127OSM   H16F13669   7.000   6.537   8.099  1.9039  0.2192 -4.1561
  127OSM   H16G13670   7.130   6.417   8.108  0.5798  0.0817  5.0963
  127OSM   C17F13671   6.973   6.381   8.250  0.7264 -0.3744  0.5818
  127OSM   H17F13672   6.973   6.270   8.256 -2.2983 -0.4335  0.7240
  127OSM   H17G13673   6.865   6.406   8.244  0.7046 -0.8880 -2.3647
  127OSM   C18F13674   7.034   6.456   8.367 -0.3251 -0.3520 -0.5198
  127OSM   H18F13675   6.997   6.560   8.379 -1.3707 -0.7025 -0.6855
  127OSM   H18G13676   7.144   6.440   8.361 -0.3678 -0.2087 -1.9905
  127OSM   H18H13677   7.005   6.398   8.457 -1.8674  0.7580 -0.2600
  128OSM      N13678   2.352   0.249   6.172  0.7618 -0.7343 -0.4193
  128OSM    C1513679   2.312   0.323   6.297 -0.6110  0.1446  0.4412
  128OSM   H15A13680   2.207   0.310   6.317 -0.2789 -0.5293  1.9080
  128OSM   H15B13681   2.336   0.427   6.283  1.0674 -0.2033  0.5271
  128OSM   H15C13682   2.358   0.286   6.388  1.2702  0.2673 -0.4236
  128OSM    C1413683   2.483   0.297   6.124  0.1961 -0.2838  0.6847
  128OSM   H14A13684   2.512   0.241   6.036 -0.7569  1.5744 -0.9036
  128OSM   H14B13685   2.554   0.283   6.204  2.3172 -0.8986 -1.1957
  128OSM   H14C13686   2.478   0.402   6.102  1.8124 -0.1784  0.7191
  128OSM    C1313687   2.336   0.104   6.198  0.1412  0.5037  0.0266
  128OSM   H13A13688   2.427   0.064   6.240 -0.4767 -1.0837 -0.0713
  128OSM   H13B13689   2.316   0.044   6.110 -2.3144 -1.3546  1.7057
  128OSM   H13C13690   2.242   0.096   6.251  1.1833  3.7967  2.7202
  128OSM    C1213691   2.256   0.282   6.056 -0.1529  0.2120  0.3852
  128OSM   H12A13692   2.164   0.226   6.066 -1.0568  0.5224 -4.1707
  128OSM   H12B13693   2.295   0.240   5.964  1.5745 -1.5279  1.8162
  128OSM    C1113694   2.219   0.427   6.039  0.5475  0.3452  0.3333
  128OSM   H11A13695   2.182   0.430   5.934  0.4172 -1.0456  0.3254
  128OSM   H11B13696   2.309   0.492   6.043  0.3247  0.6060  1.4828
  128OSM      P13697   1.960   0.435   6.114  0.1533  0.0964  0.3080
  128OSM    O1313698   1.885   0.546   6.045 -0.7706 -0.2376 -0.5241
  128OSM    O1413699   1.938   0.303   6.054 -0.8957  0.4559  0.3286
  128OSM    O1113700   1.896   0.426   6.256 -0.0434  0.2790 -0.2923
  128OSM    O1213701   2.116   0.468   6.133  0.3763 -0.4386 -0.1566
  128OSM    C1S13702   1.921   0.533   6.348  0.3803  0.7376 -0.6946
  128OSM    H1S13703   1.835   0.603   6.342 -0.6395 -0.1927  1.7929
  128OSM    H1T13704   2.011   0.596   6.330  1.2710  0.4624  2.3457
  128OSM     NF13705   1.922   0.591   6.590  0.3263 -0.9691  0.4064
  128OSM    HNF13706   1.996   0.604   6.655  1.5784  0.0070 -1.1213
  128OSM    C2S13707   1.911   0.483   6.495 -0.4030 -0.5608 -0.8416
  128OSM    H2S13708   1.815   0.431   6.516 -1.3588  1.5015  0.0750
  128OSM    C3S13709   2.023   0.368   6.520  0.1188  0.3923  0.2540
  128OSM    H3S13710   2.125   0.412   6.510  0.9468 -1.5659 -0.6007
  128OSM     O313711   2.022   0.262   6.424  0.0493  0.2039 -0.6479
  128OSM    HO313712   1.965   0.296   6.355  1.5768  1.1009 -1.5083
  128OSM    C4S13713   2.017   0.314   6.658  0.4838  0.0103  0.4505
  128OSM    H4S13714   1.922   0.263   6.679  0.0136  0.3327 -0.8186
  128OSM    C5S13715   2.108   0.334   6.751 -0.0208 -0.9601 -0.9784
  128OSM    H5S13716   2.196   0.399   6.735  0.0635 -0.8657 -0.1705
  128OSM    C6S13717   2.100   0.286   6.890 -0.4179  0.6901 -0.5339
  128OSM    H6S13718   2.196   0.237   6.915 -0.5491  0.9274  0.4581
  128OSM    H6T13719   2.028   0.202   6.895  2.9611 -2.3931  1.1023
  128OSM    C7S13720   2.083   0.388   7.002 -0.1908 -0.3328  0.0508
  128OSM    H7S13721   1.986   0.441   6.990 -0.2631  0.1401  2.3000
  128OSM    H7T13722   2.157   0.471   7.006 -0.8855  0.2530  1.3798
  128OSM    C8S13723   2.095   0.324   7.141  0.2529  0.3799  0.3122
  128OSM    H8S13724   2.200   0.311   7.174  0.0600  0.6074  1.0354
  128OSM    H8T13725   2.058   0.220   7.130 -0.1916  0.7830 -2.9332
  128OSM    C9S13726   2.000   0.394   7.242  0.2302 -0.8437 -0.1755
  128OSM    H9S13727   1.897   0.357   7.223 -1.0406  1.9634  0.6968
  128OSM    H9T13728   1.982   0.501   7.221 -1.6247 -0.8773  1.0569
  128OSM   C10S13729   2.048   0.374   7.385  0.5029 -0.0758 -0.3803
  128OSM   H10S13730   2.146   0.426   7.390  0.0713  0.7395 -0.3739
  128OSM   H10T13731   2.062   0.266   7.410  1.3559  0.0790 -0.1343
  128OSM   C11S13732   1.955   0.446   7.491  0.0092  0.2696  0.0842
  128OSM   H11S13733   1.853   0.403   7.505  0.2215 -0.1529  0.3361
  128OSM   H11T13734   1.926   0.545   7.450 -0.1406 -0.0458 -0.5888
  128OSM   C12S13735   2.028   0.458   7.631  0.0843  0.1757  0.4084
  128OSM   H12S13736   2.119   0.522   7.620  0.3853 -0.3268 -0.0820
  128OSM   H12T13737   2.064   0.357   7.658  1.1284  0.0546 -1.2740
  128OSM   C13S13738   1.952   0.528   7.742 -0.3793 -0.0346  0.3213
  128OSM   H13S13739   1.860   0.473   7.770 -0.1477 -0.4867  0.2072
  128OSM   H13T13740   1.927   0.629   7.702 -1.6221 -0.8803 -1.1880
  128OSM   C14S13741   2.024   0.552   7.878  0.0044 -0.2636  0.6494
  128OSM   H14S13742   2.130   0.577   7.858  0.3925 -1.5207  1.0227
  128OSM   H14T13743   2.033   0.451   7.924  2.2962 -0.7053 -0.6367
  128OSM   C15S13744   1.942   0.644   7.967 -0.4902  0.5138  0.6040
  128OSM   H15S13745   1.840   0.601   7.958 -0.6028  0.9410 -0.2133
  128OSM   H15T13746   1.927   0.742   7.918 -1.2960  1.2864  2.3079
  128OSM   C16S13747   2.003   0.664   8.109 -0.0238 -1.2995 -0.9344
  128OSM   H16S13748   2.111   0.690   8.103 -0.1448 -0.3669  0.3805
  128OSM   H16T13749   1.978   0.574   8.170  0.7925 -0.9487 -0.0528
  128OSM   C17S13750   1.932   0.784   8.180 -0.2537 -0.1420  0.3679
  128OSM   H17S13751   1.826   0.757   8.165  0.3626 -1.2823 -2.4777
  128OSM   H17T13752   1.946   0.876   8.120  1.2653 -0.7778 -0.3130
  128OSM   C18S13753   1.959   0.802   8.327  0.3815  0.1710 -0.2081
  128OSM   H18S13754   1.943   0.718   8.398  0.2984  0.6471  0.3487
  128OSM   H18T13755   1.912   0.893   8.372  1.6124  0.1937  1.1109
  128OSM   H18U13756   2.064   0.826   8.353 -0.4801  1.8857  2.0730
  128OSM    C1F13757   1.832   0.683   6.603  0.5251 -0.3146 -0.1595
  128OSM     OF13758   1.729   0.667   6.536  0.3315  0.2075  0.0355
  128OSM    C2F13759   1.842   0.788   6.717 -0.2247  0.0443 -0.6634
  128OSM    H2F13760   1.943   0.836   6.714  0.5336 -1.4951 -0.8654
  128OSM    H2G13761   1.836   0.725   6.808  2.3074 -0.4764 -0.7732
  128OSM    C3F13762   1.729   0.898   6.725 -0.0660  0.3321 -0.6741
  128OSM    H3F13763   1.627   0.856   6.736  1.2118 -2.7350  0.3543
  128OSM    H3G13764   1.738   0.943   6.623  0.0163  2.0691  0.0649
  128OSM    C4F13765   1.752   1.005   6.837  0.3390  0.1028  0.8981
  128OSM    H4F13766   1.668   1.076   6.823  0.4870  0.0305 -0.5212
  128OSM    H4G13767   1.849   1.058   6.839  0.3488  0.2894 -1.3737
  128OSM    C5F13768   1.745   0.948   6.976 -0.0342 -0.0373 -0.5777
  128OSM    H5F13769   1.837   0.886   6.987 -0.1405 -0.7834 -3.1950
  128OSM    H5G13770   1.656   0.882   6.983 -0.3923  0.5580  0.9850
  128OSM    C6F13771   1.731   1.057   7.082  0.6904  0.4232  0.0243
  128OSM    H6F13772   1.628   1.091   7.057  0.7064 -0.0644 -0.7294
  128OSM    H6G13773   1.795   1.148   7.075 -0.4344  1.5524  2.7971
  128OSM    C7F13774   1.722   1.012   7.226  0.5114  0.2884 -1.0586
  128OSM    H7F13775   1.812   0.953   7.253  0.5502  1.3352  1.3553
  128OSM    H7G13776   1.637   0.944   7.247 -1.0487  2.2639 -0.6382
  128OSM    C8F13777   1.711   1.128   7.324  0.2683 -0.1556  0.4404
  128OSM    H8F13778   1.792   1.202   7.306  0.0605  0.2089  1.0010
  128OSM    H8G13779   1.732   1.083   7.424  0.2515  0.2536  0.6272
  128OSM    C9F13780   1.575   1.192   7.325  0.3106 -1.0407  0.0915
  128OSM    H9F13781   1.521   1.182   7.229  2.8082 -0.2238 -1.4816
  128OSM   C10F13782   1.514   1.258   7.428  0.3055 -0.4924  0.6980
  128OSM   H10F13783   1.422   1.312   7.403  2.1678  1.3869 -2.8162
  128OSM   C11F13784   1.585   1.287   7.558  0.1923  0.6104 -0.4539
  128OSM   H11F13785   1.553   1.388   7.589  1.1023  1.0041 -0.7630
  128OSM   H11G13786   1.694   1.290   7.539  0.3462 -0.1014  0.2532
  128OSM   C12F13787   1.545   1.192   7.671 -0.2355  0.0649 -0.5390
  128OSM   H12F13788   1.573   1.089   7.641 -1.5480  0.0946 -2.0022
  128OSM   H12G13789   1.435   1.190   7.689 -0.2310 -0.4634 -0.5408
  128OSM   C13F13790   1.612   1.229   7.809 -0.3366 -0.1367 -0.3566
  128OSM   H13F13791   1.600   1.339   7.816  2.4504  0.1771  0.7560
  128OSM   H13G13792   1.722   1.211   7.806 -0.2766 -0.4906  1.7849
  128OSM   C14F13793   1.560   1.141   7.921  0.0989 -0.6495 -0.2589
  128OSM   H14F13794   1.591   1.040   7.888 -2.1457 -1.2072 -0.8506
  128OSM   H14G13795   1.449   1.146   7.913 -0.0012  0.8043  1.5173
  128OSM   C15F13796   1.601   1.187   8.062  0.2827  0.7044 -0.2154
  128OSM   H15F13797   1.527   1.268   8.078 -0.1530  0.0120  1.5685
  128OSM   H15G13798   1.705   1.225   8.075  0.5413  0.1946 -0.7276
  128OSM   C16F13799   1.578   1.086   8.179 -0.5009  0.5348 -0.1793
  128OSM   H16F13800   1.629   0.989   8.160 -1.6279  0.1878 -1.5961
  128OSM   H16G13801   1.469   1.066   8.183 -0.3818 -0.6663 -1.8122
  128OSM   C17F13802   1.612   1.147   8.319  0.2838 -0.7900  0.2825
  128OSM   H17F13803   1.556   1.242   8.332  0.6414 -0.3929 -1.0214
  128OSM   H17G13804   1.720   1.171   8.312  0.3598 -0.9662  0.7935
  128OSM   C18F13805   1.592   1.058   8.437 -0.4362 -0.2137 -0.1257
  128OSM   H18F13806   1.492   1.066   8.486 -0.1427  1.3088  0.2930
  128OSM   H18G13807   1.666   1.087   8.514  0.8010  0.4048 -1.5122
  128OSM   H18H13808   1.596   0.950   8.413  1.3284 -0.0982 -0.4316
  129OSM      N13809   5.465   4.461   6.144  0.3192 -0.8502 -0.3534
  129OSM    C1513810   5.540   4.583   6.111 -0.5708 -0.0140  0.2166
  129OSM   H15A13811   5.530   4.594   6.004 -3.4814 -0.8403  0.3150
  129OSM   H15B13812   5.644   4.576   6.138 -0.7423  1.3481  1.3448
  129OSM   H15C13813   5.501   4.669   6.164 -1.3469 -1.5722  2.3484
  129OSM    C1413814   5.316   4.501   6.123  0.6731 -0.1962  0.6810
  129OSM   H14A13815   5.304   4.545   6.024 -0.7005  1.5308  1.5529
  129OSM   H14B13816   5.288   4.580   6.192  0.5039  0.7863 -0.4678
  129OSM   H14C13817   5.265   4.408   6.142 -0.2385  0.6424  2.6648
  129OSM    C1313818   5.498   4.359   6.042 -0.7534  0.1484 -0.0130
  129OSM   H13A13819   5.478   4.259   6.077 -0.8832  0.5076  0.9865
  129OSM   H13B13820   5.603   4.361   6.016 -1.0802 -0.6088 -1.4755
  129OSM   H13C13821   5.453   4.363   5.944  0.3015 -0.4044 -0.5345
  129OSM    C1213822   5.501   4.417   6.286 -0.0280 -0.1837  0.5850
  129OSM   H12A13823   5.482   4.501   6.350 -1.7438  1.5317 -1.9992
  129OSM   H12B13824   5.606   4.392   6.290 -0.2673 -1.3360  0.3083
  129OSM    C1113825   5.431   4.280   6.344 -1.0206 -0.4902 -0.0705
  129OSM   H11A13826   5.322   4.302   6.337 -1.2378 -1.4471  0.1111
  129OSM   H11B13827   5.453   4.268   6.452 -4.4066 -0.1719  0.7787
  129OSM      P13828   5.386   4.037   6.281  0.0991  0.2391  0.1154
  129OSM    O1313829   5.269   4.038   6.186 -0.3239 -0.5266  0.2963
  129OSM    O1413830   5.492   3.938   6.257  0.3364 -0.2873  0.5609
  129OSM    O1113831   5.335   4.035   6.427  0.0568 -0.6850 -0.5464
  129OSM    O1213832   5.463   4.170   6.264  0.3817  0.0629  0.2137
  129OSM    C1S13833   5.416   3.982   6.530 -0.8041 -0.2022 -0.3499
  129OSM    H1S13834   5.519   4.024   6.529 -1.4069  1.3843 -2.4012
  129OSM    H1T13835   5.427   3.872   6.522  0.2691 -0.1835  0.5948
  129OSM     NF13836   5.438   4.009   6.779  0.0822  0.0870  0.5113
  129OSM    HNF13837   5.430   3.926   6.833  0.5452 -0.4550 -0.2286
  129OSM    C2S13838   5.349   4.013   6.669 -0.6358 -0.3839  0.8039
  129OSM    H2S13839   5.308   4.116   6.657 -1.6643 -0.6263  2.0653
  129OSM    C3S13840   5.222   3.929   6.692  0.5038  0.1573  1.0081
  129OSM    H3S13841   5.245   3.821   6.703 -0.7342 -0.5658 -2.1441
  129OSM     O313842   5.132   3.946   6.585  0.3958  0.1181  0.1334
  129OSM    HO313843   5.183   3.953   6.504  0.8245  1.8962  0.5040
  129OSM    C4S13844   5.157   3.967   6.824  0.4588  0.2011  0.3634
  129OSM    H4S13845   5.195   3.911   6.910  1.4536  0.5850  0.1843
  129OSM    C5S13846   5.069   4.062   6.841  0.4534  0.3459  0.7118
  129OSM    H5S13847   5.053   4.131   6.756  1.8537 -0.8955 -0.6321
  129OSM    C6S13848   5.014   4.106   6.971  0.2895 -0.3071 -0.4797
  129OSM    H6S13849   4.904   4.107   6.956  0.6256 -0.2126 -3.8605
  129OSM    H6T13850   5.049   4.211   6.983  0.6517 -0.6354  1.6359
  129OSM    C7S13851   5.034   4.018   7.093  0.1696 -0.0799  0.8491
  129OSM    H7S13852   5.012   3.911   7.074  2.2024 -0.6876  1.6799
  129OSM    H7T13853   4.961   4.056   7.168  1.7904  0.4930  2.1849
  129OSM    C8S13854   5.167   4.038   7.168 -0.1236  0.1546  0.1303
  129OSM    H8S13855   5.179   4.145   7.196 -2.0876  0.3083  0.5427
  129OSM    H8T13856   5.247   3.993   7.105 -1.9879 -0.9131 -1.6176
  129OSM    C9S13857   5.175   3.962   7.300  0.2527  0.6180  0.3996
  129OSM    H9S13858   5.174   3.853   7.278 -1.1839  0.5188  0.8895
  129OSM    H9T13859   5.086   3.987   7.361  0.6883  0.6586  1.0386
  129OSM   C10S13860   5.304   3.995   7.384 -0.1394  0.6217  0.1658
  129OSM   H10S13861   5.307   4.102   7.415  2.3515  0.6641  0.0170
  129OSM   H10T13862   5.394   3.964   7.327 -1.4290  1.2850 -2.3706
  129OSM   C11S13863   5.294   3.909   7.515 -0.6219 -0.3053 -0.6749
  129OSM   H11S13864   5.319   3.801   7.505 -0.7995 -0.3733 -0.4002
  129OSM   H11T13865   5.186   3.916   7.541 -0.5489 -2.2351  0.3528
  129OSM   C12S13866   5.382   3.970   7.628  0.5877 -0.0433  0.3790
  129OSM   H12S13867   5.355   3.931   7.729 -0.7323  1.2914  0.5918
  129OSM   H12T13868   5.367   4.080   7.622 -2.3441 -0.4098 -0.5098
  129OSM   C13S13869   5.534   3.939   7.607 -0.3388  0.7060  0.0877
  129OSM   H13S13870   5.569   4.009   7.528 -1.2656  1.3744  0.2450
  129OSM   H13T13871   5.547   3.835   7.569  2.1597  1.7002 -2.0011
  129OSM   C14S13872   5.609   3.951   7.749 -0.4779 -0.3711 -0.4317
  129OSM   H14S13873   5.716   3.921   7.748 -0.9170 -2.0572 -0.1150
  129OSM   H14T13874   5.570   3.871   7.816 -0.5431 -0.3467 -0.4411
  129OSM   C15S13875   5.596   4.095   7.813 -0.2835  0.2635 -0.4842
  129OSM   H15S13876   5.494   4.133   7.830  0.3880  1.6881  0.5095
  129OSM   H15T13877   5.642   4.173   7.749  0.6565 -0.2134 -0.4102
  129OSM   C16S13878   5.661   4.094   7.953  0.1535  0.2006  0.5944
  129OSM   H16S13879   5.765   4.058   7.936 -0.5606 -1.5100 -0.3315
  129OSM   H16T13880   5.604   4.026   8.020 -1.3186 -0.7010 -1.4599
  129OSM   C17S13881   5.681   4.234   8.014  0.0844  0.0275  0.1339
  129OSM   H17S13882   5.702   4.216   8.122  1.4226  0.0707 -0.1114
  129OSM   H17T13883   5.587   4.293   8.026  1.0271  1.1768  2.7393
  129OSM   C18S13884   5.791   4.321   7.946 -0.5353 -0.0585 -0.7009
  129OSM   H18S13885   5.833   4.395   8.018 -1.5426 -0.1169 -0.0366
  129OSM   H18T13886   5.755   4.375   7.855  0.7964  2.1044 -0.0249
  129OSM   H18U13887   5.871   4.255   7.906 -0.9454 -0.5624 -0.6985
  129OSM    C1F13888   5.542   4.096   6.804  0.2474  0.3761 -1.3081
  129OSM     OF13889   5.561   4.194   6.736  0.3206 -0.0215  0.0565
  129OSM    C2F13890   5.644   4.061   6.909 -0.4274  0.4765 -0.3758
  129OSM    H2F13891   5.736   4.032   6.854  0.8308 -1.9734  2.6991
  129OSM    H2G13892   5.604   3.984   6.979  0.7748 -0.5720 -0.7971
  129OSM    C3F13893   5.689   4.180   7.004  0.5231 -0.0288 -0.2849
  129OSM    H3F13894   5.608   4.205   7.076  1.5476  0.4517  0.7270
  129OSM    H3G13895   5.714   4.274   6.950  0.4095 -0.3082 -0.8321
  129OSM    C4F13896   5.823   4.141   7.069 -0.5590 -0.0928  0.6796
  129OSM    H4F13897   5.895   4.098   6.997 -0.0896  0.0399  1.0646
  129OSM    H4G13898   5.802   4.058   7.140 -2.6512 -0.6589 -0.5131
  129OSM    C5F13899   5.886   4.266   7.136  0.6029 -0.5352  0.2005
  129OSM    H5F13900   5.805   4.315   7.193  0.1865  0.4957 -1.2232
  129OSM    H5G13901   5.926   4.334   7.058 -1.2821  1.2870  0.7428
  129OSM    C6F13902   6.013   4.238   7.219 -0.5870 -0.2375  0.2312
  129OSM    H6F13903   6.084   4.191   7.147  1.8396 -0.0731  2.3450
  129OSM    H6G13904   5.982   4.162   7.294 -1.0413 -0.1771  0.1029
  129OSM    C7F13905   6.069   4.363   7.287 -0.4130 -0.3126  0.4854
  129OSM    H7F13906   5.988   4.398   7.355 -2.4563 -1.6866 -1.1095
  129OSM    H7G13907   6.083   4.435   7.203  2.8784  2.6629  3.2547
  129OSM    C8F13908   6.203   4.335   7.358  0.2180 -0.0123 -0.8289
  129OSM    H8F13909   6.245   4.434   7.385 -0.4161  0.4689 -1.5526
  129OSM    H8G13910   6.284   4.285   7.300  0.3509  0.4329 -1.0300
  129OSM    C9F13911   6.178   4.245   7.479 -0.4312  0.5942 -0.9173
  129OSM    H9F13912   6.143   4.144   7.452 -2.0212 -0.4582  4.0041
  129OSM   C10F13913   6.191   4.273   7.610  0.4916 -0.0356 -0.5114
  129OSM   H10F13914   6.157   4.198   7.682  0.2737 -0.3526 -0.9406
  129OSM   C11F13915   6.229   4.404   7.666  0.1001  0.2638 -0.8206
  129OSM   H11F13916   6.196   4.491   7.605 -3.4174 -0.2683  0.0674
  129OSM   H11G13917   6.339   4.411   7.672  0.2710 -2.2946  0.6835
  129OSM   C12F13918   6.171   4.428   7.809  0.6082 -0.3535  0.3342
  129OSM   H12F13919   6.196   4.340   7.872 -0.9562 -0.4102  0.9259
  129OSM   H12G13920   6.062   4.426   7.786  1.0088 -2.3801 -1.8159
  129OSM   C13F13921   6.232   4.552   7.872  0.0525 -0.9699  0.4524
  129OSM   H13F13922   6.184   4.636   7.816 -2.0076 -1.4765  1.3963
  129OSM   H13G13923   6.339   4.557   7.842  0.9477  1.3774  3.5816
  129OSM   C14F13924   6.198   4.573   8.016 -0.3412 -0.1381  0.4793
  129OSM   H14F13925   6.095   4.541   8.040  0.3862 -0.8228  2.9749
  129OSM   H14G13926   6.191   4.681   8.040 -1.4062  0.0689 -0.6521
  129OSM   C15F13927   6.298   4.504   8.119  0.0866 -0.1673  0.2019
  129OSM   H15F13928   6.398   4.539   8.088 -1.0067  1.0733 -2.1893
  129OSM   H15G13929   6.289   4.394   8.102  0.2396 -0.2021  0.3396
  129OSM   C16F13930   6.259   4.528   8.265 -0.0513 -0.7783  0.2551
  129OSM   H16F13931   6.271   4.441   8.333 -0.5146 -1.0562 -0.0125
  129OSM   H16G13932   6.149   4.546   8.268  0.1247  0.2747  2.2521
  129OSM   C17F13933   6.336   4.650   8.324 -0.0371 -0.6575 -0.6416
  129OSM   H17F13934   6.318   4.735   8.254 -0.7216 -0.3241 -0.0678
  129OSM   H17G13935   6.446   4.639   8.328  0.3598  2.1527 -1.8150
  129OSM   C18F13936   6.272   4.705   8.455 -0.0317  0.4643 -0.3142
  129OSM   H18F13937   6.289   4.631   8.536 -0.9540  2.3849  1.7498
  129OSM   H18G13938   6.164   4.717   8.434 -0.3598  0.9072  1.4408
  129OSM   H18H13939   6.312   4.804   8.488 -0.1825 -0.3616  2.6607
  130OSM      N13940   3.644   6.690   6.241  0.6026  0.0352 -0.1553
  130OSM    C1513941   3.601   6.545   6.257  0.2690  0.0530  0.3999
  130OSM   H15A13942   3.583   6.521   6.361 -2.6194 -0.1942 -0.0647
  130OSM   H15B13943   3.673   6.476   6.217  0.3822  0.3038  0.1727
  130OSM   H15C13944   3.505   6.529   6.211  0.7184 -2.9661  0.3131
  130OSM    C1413945   3.783   6.695   6.311  0.1061  0.7313  0.2242
  130OSM   H14A13946   3.790   6.652   6.409  0.6682  0.3748  0.0317
  130OSM   H14B13947   3.812   6.799   6.305 -0.1350  0.8150  0.4834
  130OSM   H14C13948   3.846   6.634   6.249 -1.0163  1.0348 -1.2861
  130OSM    C1313949   3.669   6.716   6.095  0.4863  0.4749  0.1256
  130OSM   H13A13950   3.574   6.744   6.054  0.0058 -0.0823  0.8406
  130OSM   H13B13951   3.710   6.630   6.045  1.1111  1.5835 -1.3289
  130OSM   H13C13952   3.732   6.802   6.073  2.4130 -1.3303 -2.0137
  130OSM    C1213953   3.541   6.782   6.300 -0.3373  0.2414  0.9809
  130OSM   H12A13954   3.448   6.761   6.249  1.1208 -0.8491 -1.4556
  130OSM   H12B13955   3.569   6.885   6.282  0.8241 -0.4819 -1.9128
  130OSM    C1113956   3.521   6.773   6.456 -0.1908  0.6619 -0.1625
  130OSM   H11A13957   3.455   6.861   6.475 -0.3907 -0.1779  3.9205
  130OSM   H11B13958   3.604   6.808   6.521 -0.2067  3.0651 -1.3106
  130OSM      P13959   3.310   6.613   6.480 -0.6232 -0.0109 -0.5797
  130OSM    O1313960   3.236   6.720   6.420  0.2644 -0.0869 -0.6674
  130OSM    O1413961   3.312   6.491   6.400  0.7099 -0.5713  0.0675
  130OSM    O1113962   3.251   6.578   6.624 -0.7401  0.0039 -0.1331
  130OSM    O1213963   3.458   6.658   6.501 -0.4440  0.0112 -0.4448
  130OSM    C1S13964   3.276   6.675   6.728 -0.4391  0.4211  0.7148
  130OSM    H1S13965   3.205   6.759   6.710 -0.2117  0.0488 -2.6185
  130OSM    H1T13966   3.376   6.722   6.717 -0.0470 -0.8270 -2.1542
  130OSM     NF13967   3.268   6.718   6.960 -0.0751  0.3658 -0.3899
  130OSM    HNF13968   3.357   6.727   7.004 -0.6878  0.1421  0.9386
  130OSM    C2S13969   3.252   6.610   6.870 -0.3399  0.2872 -0.2823
  130OSM    H2S13970   3.148   6.574   6.883 -0.0443  0.3073  2.9374
  130OSM    C3S13971   3.359   6.499   6.889 -0.2748 -0.4377 -0.1294
  130OSM    H3S13972   3.457   6.550   6.879 -0.3597 -0.6032 -2.6205
  130OSM     O313973   3.358   6.395   6.794 -0.1699 -0.5304 -0.3748
  130OSM    HO313974   3.290   6.424   6.733  0.1120  0.3969 -0.2636
  130OSM    C4S13975   3.361   6.438   7.031  1.3934 -0.7185  0.2890
  130OSM    H4S13976   3.412   6.503   7.104 -0.0909 -0.0703  0.7704
  130OSM    C5S13977   3.304   6.333   7.083  0.0736  0.0491 -0.4006
  130OSM    H5S13978   3.246   6.267   7.016 -1.7839  0.4519  0.7180
  130OSM    C6S13979   3.313   6.284   7.225  0.8124 -0.3982 -0.8193
  130OSM    H6S13980   3.382   6.353   7.278 -0.3082  1.1300 -1.2741
  130OSM    H6T13981   3.362   6.184   7.229 -0.2256 -0.9016 -0.4247
  130OSM    C7S13982   3.193   6.279   7.319  0.2402 -0.0758 -0.1347
  130OSM    H7S13983   3.104   6.221   7.284 -1.2879  1.7220  0.5810
  130OSM    H7T13984   3.176   6.388   7.331  1.1491  0.1205 -0.5192
  130OSM    C8S13985   3.225   6.222   7.454 -0.1296  0.9248  0.3725
  130OSM    H8S13986   3.330   6.239   7.487  0.4674 -1.1419 -0.2962
  130OSM    H8T13987   3.218   6.114   7.431 -2.6970  0.5146  2.6484
  130OSM    C9S13988   3.118   6.229   7.564  0.4821 -1.2599 -0.1087
  130OSM    H9S13989   3.148   6.163   7.648  0.7968  0.3147  1.0608
  130OSM    H9T13990   3.022   6.192   7.522  0.1983  2.6386 -3.5380
  130OSM   C10S13991   3.105   6.373   7.623 -0.3365  0.1582  0.1793
  130OSM   H10S13992   3.069   6.441   7.542  1.2327  3.1480  1.8328
  130OSM   H10T13993   3.203   6.410   7.658 -0.2780 -0.4618  0.6763
  130OSM   C11S13994   2.997   6.363   7.729 -0.2450  0.2795  0.1896
  130OSM   H11S13995   3.042   6.302   7.810  0.9001  2.2753  1.1436
  130OSM   H11T13996   2.906   6.307   7.700  0.7093 -2.0117  1.3482
  130OSM   C12S13997   2.965   6.500   7.788  0.3739  0.7369  0.0376
  130OSM   H12S13998   2.926   6.564   7.705 -0.5209 -0.6056 -0.6129
  130OSM   H12T13999   3.058   6.543   7.833  1.1783 -1.1118  0.2206
  130OSM   C13S14000   2.858   6.498   7.897  0.4186  0.1611  0.2806
  130OSM   H13S14001   2.878   6.425   7.979 -0.7545  0.4534  0.8501
  130OSM   H13T14002   2.763   6.466   7.848  3.2805 -1.9138 -4.7229
  130OSM   C14S14003   2.844   6.635   7.969  0.3441 -0.2283  0.0860
  130OSM   H14S14004   2.762   6.630   8.044  0.1324 -0.3088 -0.1508
  130OSM   H14T14005   2.813   6.709   7.892 -1.9233 -1.3567 -0.1872
  130OSM   C15S14006   2.968   6.696   8.028  0.2607 -0.2758 -0.2219
  130OSM   H15S14007   3.022   6.757   7.952 -0.7868  1.7900  0.6241
  130OSM   H15T14008   3.033   6.611   8.061 -0.4684 -1.0539 -0.7492
  130OSM   C16S14009   2.953   6.791   8.152 -0.1616 -0.4892 -0.1484
  130OSM   H16S14010   2.910   6.746   8.245 -0.8684 -0.3987 -0.4241
  130OSM   H16T14011   2.889   6.872   8.112  1.2380  0.3652 -0.7154
  130OSM   C17S14012   3.086   6.867   8.172 -0.2980 -0.3796  0.9923
  130OSM   H17S14013   3.101   6.914   8.073 -2.4488  0.6577  1.1145
  130OSM   H17T14014   3.168   6.799   8.205  0.3238  0.3795  1.0396
  130OSM   C18S14015   3.071   6.984   8.268  0.1190  0.4233 -0.3772
  130OSM   H18S14016   2.968   7.025   8.262 -0.2963 -0.5450 -0.0241
  130OSM   H18T14017   3.146   7.062   8.241  0.1631  0.1551 -1.0516
  130OSM   H18U14018   3.090   6.955   8.373 -0.1592 -0.9409 -0.6851
  130OSM    C1F14019   3.161   6.806   6.974 -0.1411  0.5107 -0.8569
  130OSM     OF14020   3.049   6.788   6.927  0.1706  0.0729  0.2307
  130OSM    C2F14021   3.186   6.938   7.042  0.4807 -0.3206 -0.2057
  130OSM    H2F14022   3.227   7.006   6.964  0.3708 -0.0701 -0.0481
  130OSM    H2G14023   3.263   6.917   7.120  2.3236  1.8904 -1.3376
  130OSM    C3F14024   3.054   6.994   7.098  0.3511 -0.0410 -0.2882
  130OSM    H3F14025   2.977   7.003   7.018  1.3393  0.6984 -1.1834
  130OSM    H3G14026   3.074   7.098   7.133  2.8759 -1.3593  2.7096
  130OSM    C4F14027   2.992   6.911   7.206  0.1526  0.2433 -0.3548
  130OSM    H4F14028   2.992   6.805   7.171  2.2522 -1.1448  3.2632
  130OSM    H4G14029   2.887   6.944   7.215 -0.3738 -1.7360  1.6674
  130OSM    C5F14030   3.072   6.922   7.338 -0.0178  0.3083  0.7458
  130OSM    H5F14031   3.074   7.025   7.380  2.5251 -0.0224  1.6042
  130OSM    H5G14032   3.182   6.920   7.322 -0.1814 -0.5655 -0.4025
  130OSM    C6F14033   3.024   6.824   7.450  0.0305  0.0383 -0.1326
  130OSM    H6F14034   3.031   6.725   7.401 -2.1347 -0.9755  1.4542
  130OSM    H6G14035   2.918   6.849   7.472 -0.4161 -0.4276 -1.6263
  130OSM    C7F14036   3.122   6.818   7.571  0.5156  0.1848 -0.0263
  130OSM    H7F14037   3.225   6.854   7.549  0.6349  1.2042  1.9948
  130OSM    H7G14038   3.129   6.712   7.603 -0.7787  0.0134 -0.2693
  130OSM    C8F14039   3.074   6.888   7.700 -0.4064 -0.5212  0.0265
  130OSM    H8F14040   3.147   6.850   7.775  1.5359  1.8061 -0.5544
  130OSM    H8G14041   2.977   6.839   7.721  0.4058 -2.5836 -0.7649
  130OSM    C9F14042   3.072   7.036   7.694  0.4663 -0.2457  0.0570
  130OSM    H9F14043   3.151   7.083   7.633  0.0538 -0.6205 -0.7777
  130OSM   C10F14044   2.994   7.124   7.762  0.7605 -0.5586  0.2588
  130OSM   H10F14045   3.004   7.233   7.756  0.0495 -0.4885  0.3153
  130OSM   C11F14046   2.886   7.093   7.860  0.2961  0.4076 -0.2856
  130OSM   H11F14047   2.898   6.990   7.900  0.3889  0.1043 -1.0786
  130OSM   H11G14048   2.779   7.097   7.829 -0.6906 -1.2014  2.5166
  130OSM   C12F14049   2.902   7.194   7.978 -0.0282 -0.5894  0.0671
  130OSM   H12F14050   2.914   7.298   7.941  0.0523  0.1737  2.0905
  130OSM   H12G14051   2.991   7.165   8.038  1.6864 -2.4647 -3.1086
  130OSM   C13F14052   2.780   7.202   8.072  0.0511  0.2533 -0.2085
  130OSM   H13F14053   2.736   7.101   8.083 -1.8260  1.0068 -0.3813
  130OSM   H13G14054   2.697   7.258   8.022 -3.3173 -1.1944  3.2838
  130OSM   C14F14055   2.807   7.260   8.209  0.2789 -0.0806 -0.1824
  130OSM   H14F14056   2.839   7.366   8.209  0.6648 -0.1871  0.6867
  130OSM   H14G14057   2.881   7.189   8.252 -0.2023  0.9082  2.5085
  130OSM   C15F14058   2.684   7.236   8.300 -0.4611  0.4014  0.7763
  130OSM   H15F14059   2.643   7.138   8.269 -2.1285  0.8548  1.4387
  130OSM   H15G14060   2.604   7.301   8.260 -1.7040 -1.4736  0.0713
  130OSM   C16F14061   2.701   7.274   8.444  0.4608  0.0727 -0.5130
  130OSM   H16F14062   2.697   7.383   8.468  2.2550  0.1265 -0.2827
  130OSM   H16G14063   2.806   7.248   8.471  0.1267 -0.4413  0.2913
  130OSM   C17F14064   2.602   7.207   8.535 -0.5856 -0.2791  0.0843
  130OSM   H17F14065   2.603   7.099   8.508  3.8471 -0.0236 -1.6439
  130OSM   H17G14066   2.501   7.242   8.506 -0.2656  0.2476 -0.3949
  130OSM   C18F14067   2.626   7.227   8.686 -0.7038  0.2060 -0.5397
  130OSM   H18F14068   2.642   7.330   8.723  3.3637 -0.5574  0.2957
  130OSM   H18G14069   2.714   7.165   8.714 -1.4323 -0.7645 -0.3303
  130OSM   H18H14070   2.547   7.193   8.756 -0.6990 -2.3781 -1.6609
  131OSM      N14071   6.566   3.201   5.933  0.0459  0.0148 -0.2983
  131OSM    C1514072   6.423   3.164   5.978  0.6487  0.4278 -0.0373
  131OSM   H15A14073   6.383   3.234   6.050 -0.3281  4.7637 -4.2109
  131OSM   H15B14074   6.427   3.065   6.020 -2.0268 -0.0442 -0.7211
  131OSM   H15C14075   6.353   3.161   5.896 -1.3919  2.1410  1.5303
  131OSM    C1414076   6.614   3.084   5.849 -0.2982 -0.2821  0.6418
  131OSM   H14A14077   6.533   3.049   5.787 -0.8866  0.2019  1.1306
  131OSM   H14B14078   6.646   3.002   5.912  0.8578  0.0200  0.4676
  131OSM   H14C14079   6.686   3.109   5.772 -2.7133 -3.8761 -3.1857
  131OSM    C1314080   6.564   3.325   5.848 -0.1655  0.7734 -0.3893
  131OSM   H13A14081   6.514   3.296   5.757 -1.6660 -1.5704  1.0695
  131OSM   H13B14082   6.665   3.356   5.822 -0.0211  1.0396  0.4502
  131OSM   H13C14083   6.521   3.413   5.892 -0.4264  0.6152 -0.3303
  131OSM    C1214084   6.658   3.226   6.057  0.1630  0.0115  0.8854
  131OSM   H12A14085   6.649   3.134   6.113 -1.3262 -0.8628 -0.6932
  131OSM   H12B14086   6.608   3.303   6.114 -0.5262  0.9071 -0.8756
  131OSM    C1114087   6.801   3.277   6.027  0.5494  0.1323  0.3960
  131OSM   H11A14088   6.851   3.227   5.941  0.5519  2.1153 -0.8220
  131OSM   H11B14089   6.863   3.238   6.111 -1.4950 -1.5406  1.2329
  131OSM      P14090   6.915   3.507   5.971  0.0736 -0.0872 -0.0525
  131OSM    O1314091   7.019   3.416   5.925 -0.8698  0.4268 -0.3661
  131OSM    O1414092   6.867   3.616   5.878 -0.4265 -0.0341 -0.6119
  131OSM    O1114093   6.968   3.579   6.102  0.1435 -0.5514  0.2295
  131OSM    O1214094   6.797   3.417   6.018  0.7068 -0.7076 -0.6522
  131OSM    C1S14095   6.949   3.520   6.231  0.4643  0.1156 -0.1543
  131OSM    H1S14096   6.990   3.418   6.234  2.0714  0.6103 -2.6379
  131OSM    H1T14097   6.839   3.514   6.248 -0.3297  1.4303 -3.7807
  131OSM     NF14098   6.984   3.545   6.477 -0.8844 -0.7759 -0.9763
  131OSM    HNF14099   6.930   3.600   6.541 -2.3988 -3.6151  0.3888
  131OSM    C2S14100   7.020   3.597   6.352  0.9432 -0.8837  0.1012
  131OSM    H2S14101   7.130   3.592   6.338  1.3053  3.4532  0.0039
  131OSM    C3S14102   6.980   3.750   6.337  1.2242 -0.2824  0.8760
  131OSM    H3S14103   6.870   3.758   6.344  0.9695 -3.4692  2.4031
  131OSM     O314104   7.020   3.812   6.213 -0.2743 -0.1991  0.4488
  131OSM    HO314105   7.038   3.735   6.159  0.7090  0.2530  0.1160
  131OSM    C4S14106   7.038   3.827   6.452 -0.0835  0.1009  0.5235
  131OSM    H4S14107   7.145   3.805   6.463  0.0080  0.8749  1.3269
  131OSM    C5S14108   6.976   3.921   6.527 -0.1408  0.2202 -0.4031
  131OSM    H5S14109   6.871   3.949   6.508 -0.5511 -1.4254 -0.7031
  131OSM    C6S14110   7.035   3.989   6.653 -0.9181 -0.1733  0.0412
  131OSM    H6S14111   7.027   4.100   6.651  5.1200  0.5576 -2.1047
  131OSM    H6T14112   7.143   3.965   6.656 -0.5458  1.2078 -1.1819
  131OSM    C7S14113   6.964   3.937   6.776  0.5190 -0.7100 -0.5495
  131OSM    H7S14114   6.978   3.827   6.786 -1.4363 -1.0503 -1.0353
  131OSM    H7T14115   6.857   3.967   6.768  0.8637  0.9906  0.6859
  131OSM    C8S14116   7.037   4.013   6.899 -0.0869 -0.3645  0.2868
  131OSM    H8S14117   7.013   4.121   6.888 -0.7026 -0.4135  1.0745
  131OSM    H8T14118   7.146   4.004   6.883  0.1442  2.0278  0.1566
  131OSM    C9S14119   6.979   3.981   7.040  0.7091 -0.3930 -0.2522
  131OSM    H9S14120   7.018   3.879   7.059 -0.2239 -0.5639  0.8415
  131OSM    H9T14121   6.869   3.964   7.038  0.8437 -1.5686  1.0479
  131OSM   C10S14122   7.029   4.063   7.157 -0.1974 -0.0219 -0.0904
  131OSM   H10S14123   7.015   4.173   7.161  0.1066 -0.0158  1.4659
  131OSM   H10T14124   7.137   4.039   7.162 -0.5883 -1.6060  2.3597
  131OSM   C11S14125   6.959   4.004   7.280 -0.1229 -0.2898  0.5786
  131OSM   H11S14126   7.000   3.900   7.286  0.7742  0.0615  0.7891
  131OSM   H11T14127   6.849   3.996   7.271  0.0336 -1.7926 -0.3695
  131OSM   C12S14128   6.990   4.074   7.416  0.5773  0.0369 -0.0486
  131OSM   H12S14129   6.947   4.176   7.420  1.4919  0.4291  0.0910
  131OSM   H12T14130   7.101   4.076   7.426  0.6276 -2.7570  0.7685
  131OSM   C13S14131   6.952   3.994   7.541 -0.5525  0.1989 -0.3290
  131OSM   H13S14132   7.015   3.902   7.544 -2.1271 -0.9369 -0.8110
  131OSM   H13T14133   6.847   3.958   7.532 -0.7575  1.1281 -2.0963
  131OSM   C14S14134   6.962   4.063   7.685 -0.7437 -0.1723  0.5361
  131OSM   H14S14135   6.873   4.130   7.690 -0.1237  0.9561 -1.7323
  131OSM   H14T14136   7.052   4.128   7.681 -1.1424  0.3577 -0.0144
  131OSM   C15S14137   6.964   3.955   7.788 -0.4385  0.6107  1.0710
  131OSM   H15S14138   7.058   3.898   7.777  0.5930  2.4968 -0.4535
  131OSM   H15T14139   6.886   3.883   7.756  0.8804 -0.5679  0.4309
  131OSM   C16S14140   6.940   3.992   7.932  0.0109 -0.1195  0.1466
  131OSM   H16S14141   6.847   4.049   7.951 -1.5690 -2.2065 -1.0395
  131OSM   H16T14142   7.019   4.062   7.968 -0.7846  0.6530  0.4162
  131OSM   C17S14143   6.951   3.872   8.030 -0.4512 -0.0235  0.4211
  131OSM   H17S14144   7.055   3.859   8.068 -0.4623 -2.8549 -0.3468
  131OSM   H17T14145   6.924   3.780   7.975  1.2567 -2.2998  3.1231
  131OSM   C18S14146   6.871   3.888   8.158 -0.2797  0.0910  0.2801
  131OSM   H18S14147   6.765   3.899   8.129  0.0294 -0.6102 -1.2405
  131OSM   H18T14148   6.899   3.986   8.203  1.0609 -0.7928  1.4728
  131OSM   H18U14149   6.891   3.814   8.238  1.2391  1.8347  1.6270
  131OSM    C1F14150   7.006   3.421   6.506 -1.0599  0.6189  0.2286
  131OSM     OF14151   7.089   3.354   6.444 -0.3363  0.1036  0.3689
  131OSM    C2F14152   6.933   3.371   6.623 -0.1984  0.0825 -0.1398
  131OSM    H2F14153   6.984   3.413   6.712 -1.0262  0.8218  0.0045
  131OSM    H2G14154   6.939   3.260   6.614  1.4156  0.0145  1.2790
  131OSM    C3F14155   6.789   3.412   6.640 -0.7070  0.1088  0.4148
  131OSM    H3F14156   6.736   3.391   6.544  3.7693 -0.5808 -2.1764
  131OSM    H3G14157   6.775   3.521   6.650 -0.8696  0.1831 -0.5162
  131OSM    C4F14158   6.718   3.334   6.754  0.6374 -0.2278 -0.5400
  131OSM    H4F14159   6.757   3.338   6.857  0.5967  2.4909 -0.5434
  131OSM    H4G14160   6.712   3.227   6.725  1.2466  0.1787 -2.3153
  131OSM    C5F14161   6.581   3.400   6.763  0.8027 -1.3153  0.1919
  131OSM    H5F14162   6.533   3.412   6.663  0.1869  1.5602  0.7330
  131OSM    H5G14163   6.594   3.504   6.801  0.0876 -0.9237 -0.6045
  131OSM    C6F14164   6.487   3.323   6.859  0.5081  0.6447 -0.4013
  131OSM    H6F14165   6.525   3.336   6.963 -1.6869  1.9834  0.3058
  131OSM    H6G14166   6.496   3.216   6.832  2.1520  0.8358 -0.7414
  131OSM    C7F14167   6.341   3.361   6.872 -0.1514 -0.2995  0.0143
  131OSM    H7F14168   6.295   3.358   6.771  1.0207 -0.2250 -0.5387
  131OSM    H7G14169   6.347   3.470   6.894 -2.5539 -0.0813 -0.0557
  131OSM    C8F14170   6.264   3.289   6.978  0.2109 -0.4886  0.1299
  131OSM    H8F14171   6.317   3.319   7.071  0.2477 -1.5227  0.4651
  131OSM    H8G14172   6.271   3.180   6.957 -0.0747 -1.0546  2.6171
  131OSM    C9F14173   6.118   3.343   6.982  0.2956 -0.9489 -0.1494
  131OSM    H9F14174   6.069   3.345   6.883  1.2538  0.5233 -0.6209
  131OSM   C10F14175   6.049   3.379   7.091 -0.1873 -0.3817  0.4876
  131OSM   H10F14176   5.946   3.417   7.085  0.3549  0.9735 -1.4948
  131OSM   C11F14177   6.108   3.373   7.228 -0.4670  0.2445 -0.1723
  131OSM   H11F14178   6.171   3.463   7.247  0.9413 -1.1657  2.2268
  131OSM   H11G14179   6.175   3.285   7.237 -1.8734 -1.0113 -1.4918
  131OSM   C12F14180   6.003   3.350   7.336  0.5500  0.0655  0.5739
  131OSM   H12F14181   5.950   3.254   7.319  0.2207  0.1468  1.1058
  131OSM   H12G14182   5.925   3.428   7.337 -2.2781 -2.5686 -0.3184
  131OSM   C13F14183   6.075   3.342   7.472  0.3103 -0.2371  0.8255
  131OSM   H13F14184   6.138   3.431   7.493 -1.8294  1.1457  1.8162
  131OSM   H13G14185   6.140   3.252   7.463  0.8954  0.0871  1.7039
  131OSM   C14F14186   5.981   3.314   7.591 -0.1378  0.3694 -0.3070
  131OSM   H14F14187   5.898   3.244   7.567  0.3890 -0.1684 -0.6035
  131OSM   H14G14188   5.944   3.414   7.621 -0.3309  1.0910 -2.6985
  131OSM   C15F14189   6.063   3.265   7.711 -0.4052  0.5506 -0.7790
  131OSM   H15F14190   6.116   3.353   7.752  1.3286 -0.9183  0.3470
  131OSM   H15G14191   6.139   3.194   7.671 -0.5609  0.2467 -0.5440
  131OSM   C16F14192   5.984   3.202   7.829  0.8395  0.5059  0.0663
  131OSM   H16F14193   5.944   3.102   7.801 -0.5689  0.5558  1.6976
  131OSM   H16G14194   5.885   3.251   7.842 -0.2542 -1.8998  1.2115
  131OSM   C17F14195   6.042   3.189   7.965 -0.5950  0.2817 -0.8935
  131OSM   H17F14196   6.129   3.120   7.957 -0.6496  0.2802 -1.4763
  131OSM   H17G14197   5.973   3.127   8.026 -0.2745  0.7691 -0.0061
  131OSM   C18F14198   6.096   3.320   8.034  0.5630 -0.7423 -0.0206
  131OSM   H18F14199   6.191   3.354   7.988  0.6635 -1.0722 -0.0633
  131OSM   H18G14200   6.120   3.308   8.142 -0.7170  0.3243  0.4085
  131OSM   H18H14201   6.015   3.395   8.033 -0.6318 -1.8999  2.2323
  132OSM      N14202   1.749   4.352   6.312 -0.1211  0.3559  0.0933
  132OSM    C1514203   1.683   4.466   6.384 -0.4797  0.2249  0.0992
  132OSM   H15A14204   1.742   4.510   6.463  1.3891 -2.4971  0.3489
  132OSM   H15B14205   1.587   4.442   6.427  0.4182 -3.8201  0.1968
  132OSM   H15C14206   1.658   4.534   6.304 -1.9569 -2.4148 -1.8293
  132OSM    C1414207   1.673   4.294   6.202 -0.0611  0.4281  0.0220
  132OSM   H14A14208   1.583   4.260   6.251 -1.1210 -2.3787 -3.4470
  132OSM   H14B14209   1.711   4.202   6.158  0.8302  0.7437  0.1015
  132OSM   H14C14210   1.651   4.362   6.122 -1.3968  0.4886  0.4281
  132OSM    C1314211   1.880   4.407   6.255  0.5336  0.7256 -0.0816
  132OSM   H13A14212   1.923   4.464   6.336  3.0545 -1.5292  0.2941
  132OSM   H13B14213   1.838   4.465   6.174 -2.6631 -1.7778 -0.4290
  132OSM   H13C14214   1.941   4.325   6.220  0.9927  0.1503  1.9858
  132OSM    C1214215   1.768   4.238   6.412 -0.2655 -0.1596 -0.1863
  132OSM   H12A14216   1.825   4.287   6.490 -0.2470 -1.5824  0.7289
  132OSM   H12B14217   1.830   4.164   6.363  0.9461  0.8309 -0.1906
  132OSM    C1114218   1.646   4.168   6.471  0.8484 -0.1560 -0.3462
  132OSM   H11A14219   1.571   4.238   6.512  2.9410  1.3941  1.0767
  132OSM   H11B14220   1.682   4.103   6.553  4.1017  0.9672 -0.7218
  132OSM      P14221   1.607   3.938   6.346 -0.0028 -0.2216 -0.4863
  132OSM    O1314222   1.500   3.880   6.263  0.7478 -0.1051  0.2634
  132OSM    O1414223   1.747   3.928   6.298  0.5412  0.2797 -0.2589
  132OSM    O1114224   1.591   3.879   6.499  0.0133 -0.2072 -0.5605
  132OSM    O1214225   1.581   4.090   6.368 -0.1543  0.0839  0.4247
  132OSM    C1S14226   1.460   3.891   6.564  0.1695 -0.7672  0.2054
  132OSM    H1S14227   1.373   3.852   6.506  0.1703  0.6728 -0.8136
  132OSM    H1T14228   1.440   3.993   6.603  2.9219  1.2345 -3.1050
  132OSM     NF14229   1.322   3.778   6.737 -0.0982 -0.3489  0.3545
  132OSM    HNF14230   1.298   3.836   6.815 -0.9901  0.4456 -0.4764
  132OSM    C2S14231   1.458   3.789   6.686 -0.0485  0.3934  0.1856
  132OSM    H2S14232   1.496   3.692   6.647  2.8110 -0.2129  3.8885
  132OSM    C3S14233   1.559   3.836   6.789  0.1134 -0.3249  0.3542
  132OSM    H3S14234   1.542   3.943   6.815  1.5371 -0.0263  0.1144
  132OSM     O314235   1.698   3.837   6.758 -0.6428  0.1975  0.1052
  132OSM    HO314236   1.708   3.796   6.672 -0.7237 -0.2247  0.2937
  132OSM    C4S14237   1.532   3.764   6.915 -0.3246  0.2386 -0.6007
  132OSM    H4S14238   1.436   3.793   6.961 -0.9072  1.1103 -2.2628
  132OSM    C5S14239   1.610   3.660   6.967  0.8830  0.3844 -0.4245
  132OSM    H5S14240   1.704   3.634   6.915 -0.2360 -0.7455 -1.9529
  132OSM    C6S14241   1.580   3.585   7.096  0.3032  0.0545 -0.2040
  132OSM    H6S14242   1.679   3.572   7.145 -0.2601 -0.4946  0.8319
  132OSM    H6T14243   1.563   3.477   7.078  1.3584 -0.0893 -0.4408
  132OSM    C7S14244   1.465   3.649   7.190 -0.0915  0.0585 -0.1924
  132OSM    H7S14245   1.376   3.634   7.125  1.0750 -2.5270 -1.3377
  132OSM    H7T14246   1.492   3.756   7.203  1.7716 -0.3105 -0.6658
  132OSM    C8S14247   1.442   3.576   7.324 -0.3213  0.5876  0.9499
  132OSM    H8S14248   1.441   3.466   7.308 -0.9694  0.8721 -1.2474
  132OSM    H8T14249   1.344   3.604   7.368 -0.3414 -0.8678  1.8767
  132OSM    C9S14250   1.557   3.588   7.426 -0.1566  0.4842  0.3799
  132OSM    H9S14251   1.658   3.559   7.390 -0.9048  0.3619 -1.6981
  132OSM    H9T14252   1.519   3.510   7.496  0.3975  0.9008  1.1650
  132OSM   C10S14253   1.570   3.718   7.501 -0.2551  0.0359  0.6632
  132OSM   H10S14254   1.599   3.796   7.428 -1.6908  2.4717  2.5130
  132OSM   H10T14255   1.656   3.721   7.571 -0.9697 -1.6118  1.6831
  132OSM   C11S14256   1.450   3.759   7.590 -0.7972  0.3149 -0.1440
  132OSM   H11S14257   1.357   3.725   7.539 -2.1473  2.9792  0.3951
  132OSM   H11T14258   1.445   3.870   7.595  1.2530  0.3961  1.3149
  132OSM   C12S14259   1.461   3.698   7.731  0.3273  0.3930 -0.2072
  132OSM   H12S14260   1.555   3.739   7.773  0.3143 -0.6954  0.9658
  132OSM   H12T14261   1.484   3.589   7.728  0.8131  0.5005 -0.6881
  132OSM   C13S14262   1.344   3.731   7.827  0.2758 -0.2962 -0.3365
  132OSM   H13S14263   1.248   3.684   7.798 -0.4341  1.0684 -0.2711
  132OSM   H13T14264   1.321   3.839   7.822 -0.0258 -0.4040 -1.6845
  132OSM   C14S14265   1.361   3.690   7.976 -0.0182 -0.0341 -0.6659
  132OSM   H14S14266   1.362   3.580   7.992  0.3352  0.3233  2.1712
  132OSM   H14T14267   1.269   3.720   8.030 -1.9620 -0.2894 -3.5790
  132OSM   C15S14268   1.473   3.768   8.050 -0.3996  0.0590 -0.1833
  132OSM   H15S14269   1.480   3.871   8.009  1.8958  0.1527  0.2919
  132OSM   H15T14270   1.573   3.721   8.043 -0.9264 -1.1025 -0.1206
  132OSM   C16S14271   1.456   3.788   8.198 -0.4960  0.2229 -0.7173
  132OSM   H16S14272   1.461   3.682   8.231 -1.0306  0.4061 -0.0169
  132OSM   H16T14273   1.351   3.820   8.219 -1.5038 -2.4666 -1.2492
  132OSM   C17S14274   1.571   3.869   8.274  0.4913  0.1599  0.0931
  132OSM   H17S14275   1.548   3.977   8.264  3.0144  1.2163  3.5926
  132OSM   H17T14276   1.672   3.855   8.231 -0.0426 -0.8531 -0.8781
  132OSM   C18S14277   1.559   3.841   8.419  0.0359 -0.0158 -0.1010
  132OSM   H18S14278   1.459   3.871   8.456  0.8618  1.2330  1.2241
  132OSM   H18T14279   1.630   3.903   8.479 -2.4176  1.7603  1.1170
  132OSM   H18U14280   1.577   3.734   8.442  0.6565  0.7083  3.3843
  132OSM    C1F14281   1.230   3.695   6.690 -0.5839  0.1852 -0.1243
  132OSM     OF14282   1.267   3.621   6.603  0.3143  0.1634 -0.5453
  132OSM    C2F14283   1.092   3.684   6.752 -0.4455  0.0985 -0.0797
  132OSM    H2F14284   1.023   3.732   6.681  0.0111  0.9871  0.0589
  132OSM    H2G14285   1.085   3.742   6.847  0.3068 -0.3043  0.2356
  132OSM    C3F14286   1.041   3.540   6.787 -0.0838 -0.2176  0.0306
  132OSM    H3F14287   1.065   3.479   6.698  0.7071  1.4988 -0.9771
  132OSM    H3G14288   0.933   3.552   6.812 -0.0294 -1.0967  0.7427
  132OSM    C4F14289   1.107   3.473   6.912  0.2705 -0.2581  0.0322
  132OSM    H4F14290   1.217   3.474   6.897  0.3518 -3.7449 -0.4235
  132OSM    H4G14291   1.086   3.365   6.895  0.5288  0.0652 -2.7312
  132OSM    C5F14292   1.075   3.534   7.042 -0.1276  0.3899 -0.1935
  132OSM    H5F14293   0.969   3.563   7.054 -0.5208 -1.3793  0.8733
  132OSM    H5G14294   1.135   3.624   7.068 -1.1102  0.8864  0.4192
  132OSM    C6F14295   1.116   3.432   7.152 -0.1124 -0.6004 -0.0885
  132OSM    H6F14296   1.223   3.404   7.146  0.0645 -0.3379  1.4399
  132OSM    H6G14297   1.060   3.337   7.135 -0.7662 -0.1692 -0.3783
  132OSM    C7F14298   1.078   3.482   7.291  0.0985  0.1440  0.0271
  132OSM    H7F14299   0.968   3.491   7.300  0.2687  1.1106  1.5459
  132OSM    H7G14300   1.124   3.583   7.291  2.1176 -0.7079  1.1943
  132OSM    C8F14301   1.135   3.391   7.395 -0.8012 -0.6553 -0.3731
  132OSM    H8F14302   1.241   3.373   7.367 -0.5563 -0.5232  0.4639
  132OSM    H8G14303   1.087   3.291   7.393  0.4013 -1.3106  1.3049
  132OSM    C9F14304   1.136   3.444   7.536  0.1055  0.3123  0.6334
  132OSM    H9F14305   1.216   3.517   7.555  0.6182 -0.4021  1.2831
  132OSM   C10F14306   1.060   3.412   7.642  0.4507  0.1716  0.2223
  132OSM   H10F14307   1.077   3.461   7.739 -1.5140 -1.5061  1.4935
  132OSM   C11F14308   0.962   3.295   7.649 -0.8448 -1.1338  0.0096
  132OSM   H11F14309   1.003   3.207   7.595  2.1803  0.5320 -0.6589
  132OSM   H11G14310   0.868   3.328   7.598 -0.8128 -0.5065  0.3469
  132OSM   C12F14311   0.928   3.256   7.790  0.0597  0.4145 -0.2434
  132OSM   H12F14312   0.840   3.188   7.794  0.9507 -0.7377  0.8524
  132OSM   H12G14313   0.893   3.345   7.846 -2.3485 -1.4314  1.4072
  132OSM   C13F14314   1.037   3.174   7.865 -0.2715  0.2490 -0.8618
  132OSM   H13F14315   1.139   3.212   7.842  0.1706 -0.6150 -0.3521
  132OSM   H13G14316   1.029   3.073   7.821  1.6220 -0.2480 -0.1633
  132OSM   C14F14317   1.017   3.167   8.021 -0.2981  0.0341 -0.1944
  132OSM   H14F14318   1.041   3.266   8.064  1.1988  0.5029 -1.9841
  132OSM   H14G14319   1.083   3.089   8.064  0.3251 -0.0394 -1.2506
  132OSM   C15F14320   0.871   3.148   8.070  0.0595  0.3255  0.0786
  132OSM   H15F14321   0.844   3.060   8.008  2.7633 -0.3057 -0.2875
  132OSM   H15G14322   0.800   3.232   8.051 -0.9603 -0.5200  0.0198
  132OSM   C16F14323   0.856   3.110   8.214  0.0892 -0.2534 -0.3907
  132OSM   H16F14324   0.916   3.020   8.240 -1.2319 -0.9135  0.5227
  132OSM   H16G14325   0.751   3.077   8.230 -0.4181  1.8720  0.8884
  132OSM   C17F14326   0.873   3.226   8.314 -0.4327 -0.4094  0.1836
  132OSM   H17F14327   0.774   3.271   8.338 -0.8456 -2.2502  2.2639
  132OSM   H17G14328   0.953   3.296   8.282  0.4634 -1.3573  0.2856
  132OSM   C18F14329   0.925   3.169   8.449 -0.2083 -0.0150 -0.4516
  132OSM   H18F14330   1.006   3.096   8.425  0.0034 -0.0021  0.2265
  132OSM   H18G14331   0.848   3.117   8.510 -0.5339 -0.5236 -1.2803
  132OSM   H18H14332   0.952   3.264   8.498 -2.2611  0.6981 -0.6066
  133OSM      N14333   3.109   4.839   6.216 -0.3070 -0.1784 -0.2161
  133OSM    C1514334   3.198   4.957   6.234  0.1676 -0.5606  0.1882
  133OSM   H15A14335   3.276   4.944   6.308 -0.4641 -0.7606  0.8420
  133OSM   H15B14336   3.142   5.042   6.269  1.5675  0.6271 -0.3831
  133OSM   H15C14337   3.242   4.986   6.140 -1.5042  1.8648  0.0736
  133OSM    C1414338   2.997   4.896   6.142 -0.3099 -0.3231  0.0754
  133OSM   H14A14339   3.014   4.951   6.051  0.1715  1.7697  1.3592
  133OSM   H14B14340   2.952   4.971   6.205  0.4083  0.1523  0.0310
  133OSM   H14C14341   2.932   4.815   6.111  0.1573 -2.0388  3.0669
  133OSM    C1314342   3.179   4.742   6.126  0.3119 -0.3021  0.2626
  133OSM   H13A14343   3.110   4.659   6.116 -1.6551  1.2139  0.6451
  133OSM   H13B14344   3.267   4.709   6.180  0.4047  0.8885  0.8778
  133OSM   H13C14345   3.221   4.790   6.038 -0.7506  1.0324  0.4541
  133OSM    C1214346   3.066   4.787   6.354 -0.4296  0.3102  0.3439
  133OSM   H12A14347   2.984   4.717   6.349 -1.3868  1.4734 -1.7099
  133OSM   H12B14348   3.013   4.872   6.396 -1.0627 -0.2218  0.6381
  133OSM    C1114349   3.167   4.738   6.458  0.1253 -0.2722  0.5967
  133OSM   H11A14350   3.102   4.716   6.545 -0.8080  0.5435  0.1228
  133OSM   H11B14351   3.244   4.816   6.473 -0.3193 -0.0103  1.5475
  133OSM      P14352   3.167   4.484   6.454 -0.0490 -0.4123  0.1451
  133OSM    O1314353   3.022   4.493   6.428  0.9833  0.1650  0.8730
  133OSM    O1414354   3.243   4.379   6.383 -0.1243 -0.3082  0.4808
  133OSM    O1114355   3.198   4.467   6.611 -0.1516 -0.9507  0.0343
  133OSM    O1214356   3.235   4.621   6.420 -0.2929 -0.7230  0.2346
  133OSM    C1S14357   3.310   4.515   6.682 -0.1799 -0.4791 -0.3944
  133OSM    H1S14358   3.346   4.607   6.631 -0.0503 -1.2168 -1.6817
  133OSM    H1T14359   3.395   4.443   6.679  0.0034 -0.2672 -0.2752
  133OSM     NF14360   3.417   4.581   6.897  0.0094  0.2193 -0.0657
  133OSM    HNF14361   3.471   4.505   6.933 -0.5491 -0.1543 -0.0069
  133OSM    C2S14362   3.289   4.545   6.838 -0.0038 -0.8082  0.0308
  133OSM    H2S14363   3.227   4.636   6.855  2.0063  0.5096  0.7365
  133OSM    C3S14364   3.231   4.423   6.905 -0.5077 -0.4336  0.3283
  133OSM    H3S14365   3.319   4.355   6.908 -0.0275  0.1139 -0.6090
  133OSM     O314366   3.125   4.351   6.842 -0.1462 -0.3041 -0.0622
  133OSM    HO314367   3.120   4.395   6.757  0.6237 -0.3618 -0.1487
  133OSM    C4S14368   3.202   4.449   7.052  0.3882 -0.1487  0.0959
  133OSM    H4S14369   3.287   4.465   7.120  1.3362 -0.3669 -1.0118
  133OSM    C5S14370   3.080   4.478   7.107 -0.2861  0.2084 -0.3118
  133OSM    H5S14371   2.983   4.479   7.054 -0.5605 -1.2558  0.1296
  133OSM    C6S14372   3.061   4.520   7.253  0.1669 -0.2756 -0.3868
  133OSM    H6S14373   2.966   4.467   7.277 -2.6301  4.2027 -0.2098
  133OSM    H6T14374   3.028   4.626   7.257 -0.9454 -0.5033 -2.3247
  133OSM    C7S14375   3.175   4.483   7.350  0.8153 -0.0805  0.3973
  133OSM    H7S14376   3.270   4.519   7.306  0.9698  2.0375  2.2791
  133OSM    H7T14377   3.169   4.372   7.355 -1.9357  0.0384  1.8474
  133OSM    C8S14378   3.163   4.539   7.491 -0.4221  0.7280 -0.1501
  133OSM    H8S14379   3.171   4.649   7.483  0.5258  0.7377  0.7846
  133OSM    H8T14380   3.254   4.507   7.546 -0.5034  1.8232  0.6398
  133OSM    C9S14381   3.036   4.502   7.564  0.1082  0.2013  1.1936
  133OSM    H9S14382   3.036   4.398   7.602 -0.0834 -1.3397 -2.5679
  133OSM    H9T14383   2.955   4.507   7.488 -1.2497 -1.3714  2.4774
  133OSM   C10S14384   2.993   4.600   7.671  0.7367 -0.2084 -0.1249
  133OSM   H10S14385   2.885   4.579   7.680  1.3400 -5.2971 -1.4485
  133OSM   H10T14386   3.011   4.703   7.634 -1.7856  0.5943  0.7322
  133OSM   C11S14387   3.058   4.569   7.800 -0.0721  0.1709  0.2961
  133OSM   H11S14388   3.169   4.561   7.790 -0.2725 -0.9478 -1.5586
  133OSM   H11T14389   3.016   4.473   7.835 -2.0110  0.3245 -1.4123
  133OSM   C12S14390   3.040   4.671   7.922 -0.5412 -0.5255 -0.0528
  133OSM   H12S14391   2.942   4.654   7.970 -1.2773  1.7105 -0.6594
  133OSM   H12T14392   3.032   4.775   7.884 -0.2796 -0.2788  0.5662
  133OSM   C13S14393   3.159   4.648   8.007 -0.6581 -0.4937  0.1748
  133OSM   H13S14394   3.250   4.686   7.956 -1.4389  1.5058  0.1727
  133OSM   H13T14395   3.176   4.539   8.021 -1.2627 -0.5758  0.3239
  133OSM   C14S14396   3.167   4.732   8.130 -0.6578  0.2948 -0.1906
  133OSM   H14S14397   3.095   4.698   8.207 -2.3677  0.2448 -1.7562
  133OSM   H14T14398   3.129   4.833   8.105 -0.7608  0.4025  0.3959
  133OSM   C15S14399   3.307   4.750   8.194 -0.8779  0.0913  0.3906
  133OSM   H15S14400   3.376   4.809   8.130 -0.5815 -0.8148 -0.1443
  133OSM   H15T14401   3.342   4.645   8.199  3.3806  1.3840  1.6270
  133OSM   C16S14402   3.312   4.809   8.336  0.6107  0.7045  0.1688
  133OSM   H16S14403   3.243   4.759   8.407 -0.3161 -0.4258 -1.4649
  133OSM   H16T14404   3.287   4.917   8.334 -0.9339  0.3673 -0.1028
  133OSM   C17S14405   3.455   4.799   8.381 -0.5054  0.1911  0.3859
  133OSM   H17S14406   3.523   4.858   8.315  1.1100 -1.2206  0.6918
  133OSM   H17T14407   3.483   4.692   8.373 -0.7110  0.1546  0.1429
  133OSM   C18S14408   3.472   4.850   8.526  0.0723 -0.0552  0.5164
  133OSM   H18S14409   3.424   4.951   8.523 -1.2054 -0.6679 -1.7970
  133OSM   H18T14410   3.575   4.886   8.546 -0.1027  0.8831 -0.2041
  133OSM   H18U14411   3.428   4.775   8.594 -0.0252  0.5855  1.1764
  133OSM    C1F14412   3.478   4.702   6.886  0.3766  0.1250 -0.1977
  133OSM     OF14413   3.432   4.796   6.822 -0.3783 -0.0837  0.4339
  133OSM    C2F14414   3.617   4.707   6.949 -0.5795 -0.7548  0.3682
  133OSM    H2F14415   3.676   4.769   6.878 -0.0433 -1.7256 -0.0508
  133OSM    H2G14416   3.650   4.602   6.958  0.2308 -0.3816  2.3031
  133OSM    C3F14417   3.622   4.767   7.092 -0.2790  0.0028 -0.1520
  133OSM    H3F14418   3.574   4.866   7.080 -1.1531 -0.3306  0.4814
  133OSM    H3G14419   3.728   4.779   7.124 -0.3801 -0.8664  0.5395
  133OSM    C4F14420   3.554   4.680   7.196 -0.7190 -0.2910  0.1896
  133OSM    H4F14421   3.608   4.583   7.182 -1.2005 -0.7594  1.3931
  133OSM    H4G14422   3.448   4.664   7.168 -0.8432  2.1122 -0.8694
  133OSM    C5F14423   3.585   4.727   7.335 -0.5722 -0.0877  0.5484
  133OSM    H5F14424   3.539   4.828   7.336  1.2560  0.7827  0.5431
  133OSM    H5G14425   3.694   4.728   7.358  0.4845 -0.6326 -3.5493
  133OSM    C6F14426   3.523   4.637   7.441  0.3112  0.3091  0.1238
  133OSM    H6F14427   3.564   4.535   7.424 -1.4374 -0.0852 -2.1697
  133OSM    H6G14428   3.414   4.638   7.420  0.5902  0.4909 -1.4210
  133OSM    C7F14429   3.543   4.711   7.574 -0.1006 -0.2083  0.6790
  133OSM    H7F14430   3.511   4.816   7.557 -0.5978 -0.7193 -1.9784
  133OSM    H7G14431   3.651   4.694   7.594 -0.3944 -3.6602  0.0292
  133OSM    C8F14432   3.465   4.667   7.701  0.5336  0.7409  0.1244
  133OSM    H8F14433   3.357   4.653   7.681  0.1533  2.6255  0.6822
  133OSM    H8G14434   3.481   4.750   7.773  0.0096  1.5335 -0.6599
  133OSM    C9F14435   3.531   4.542   7.754 -0.7722 -1.2841 -0.7091
  133OSM    H9F14436   3.538   4.470   7.671 -1.9282 -0.8154 -1.2362
  133OSM   C10F14437   3.583   4.521   7.875 -0.2709 -0.5748 -0.1042
  133OSM   H10F14438   3.635   4.427   7.898  1.2140  0.0691 -0.7037
  133OSM   C11F14439   3.580   4.618   7.990 -0.1787  1.0844  0.1216
  133OSM   H11F14440   3.487   4.609   8.051 -1.5751  3.3381 -1.5192
  133OSM   H11G14441   3.566   4.723   7.956 -2.2324  1.2322  1.1981
  133OSM   C12F14442   3.706   4.618   8.082 -0.3026  0.0798 -0.2069
  133OSM   H12F14443   3.696   4.689   8.167  0.1822  0.9832 -0.8813
  133OSM   H12G14444   3.791   4.641   8.013 -0.3038  0.7428  0.0070
  133OSM   C13F14445   3.743   4.481   8.145  0.1095  0.1480 -0.1871
  133OSM   H13F14446   3.771   4.409   8.066 -0.2182 -0.3195  0.1169
  133OSM   H13G14447   3.645   4.443   8.183 -0.5117  1.8638  0.0302
  133OSM   C14F14448   3.849   4.483   8.249 -0.6315  0.6269 -0.1464
  133OSM   H14F14449   3.831   4.526   8.350  0.0033 -1.3300  0.8561
  133OSM   H14G14450   3.942   4.533   8.214  0.3794 -0.3131  1.0520
  133OSM   C15F14451   3.892   4.336   8.291 -0.2739 -0.1270  0.4028
  133OSM   H15F14452   3.917   4.284   8.195 -0.5703  0.1713  0.1611
  133OSM   H15G14453   3.809   4.281   8.339 -0.2682  0.7675  1.4858
  133OSM   C16F14454   4.006   4.341   8.402 -1.0354  0.3826  0.6433
  133OSM   H16F14455   3.992   4.438   8.455  0.0422  0.7498  0.2737
  133OSM   H16G14456   4.103   4.341   8.347 -1.6874  0.5039 -0.5409
  133OSM   C17F14457   4.019   4.228   8.504  1.0079  0.4060  0.4648
  133OSM   H17F14458   4.115   4.214   8.559  0.3704  0.9685  1.7685
  133OSM   H17G14459   4.004   4.135   8.446 -2.0518  1.2099 -0.1714
  133OSM   C18F14460   3.906   4.236   8.602 -0.6983 -0.0388  0.2936
  133OSM   H18F14461   3.936   4.311   8.679 -0.0530  1.2917 -1.1933
  133OSM   H18G14462   3.884   4.144   8.660  0.1605  0.1571  0.9584
  133OSM   H18H14463   3.822   4.287   8.550  0.2681 -0.0866 -1.3865
  134OSM      N14464   2.979   1.450   6.322  0.5345  0.1084  0.2978
  134OSM    C1514465   3.107   1.403   6.264  0.5243  0.4946 -0.2982
  134OSM   H15A14466   3.090   1.300   6.237 -1.7760  0.2104  1.8367
  134OSM   H15B14467   3.177   1.393   6.346  1.3782 -0.5349 -1.1199
  134OSM   H15C14468   3.150   1.448   6.176 -0.6002 -1.6434 -2.0410
  134OSM    C1414469   2.981   1.595   6.347  0.0191  0.6558  0.0352
  134OSM   H14A14470   2.915   1.631   6.424  0.3801  0.3814  0.4815
  134OSM   H14B14471   2.955   1.644   6.254 -1.0456  1.2096  0.6139
  134OSM   H14C14472   3.083   1.622   6.369  0.3644 -0.2954 -0.3105
  134OSM    C1314473   2.864   1.424   6.228  0.2962 -0.3839  0.5878
  134OSM   H13A14474   2.772   1.468   6.263  0.1214 -0.7977  0.6591
  134OSM   H13B14475   2.843   1.318   6.216 -0.1149 -0.3089  0.6124
  134OSM   H13C14476   2.874   1.470   6.131  1.1525 -0.3860  0.6710
  134OSM    C1214477   2.947   1.379   6.450  0.1015  0.2282 -0.1583
  134OSM   H12A14478   2.906   1.282   6.428 -1.5498  0.7545  0.4567
  134OSM   H12B14479   2.866   1.425   6.505 -0.2872 -1.1934  0.5059
  134OSM    C1114480   3.068   1.367   6.551  0.4983  0.3245  0.0152
  134OSM   H11A14481   3.032   1.325   6.647  2.7729 -1.3091  0.2314
  134OSM   H11B14482   3.117   1.463   6.576  3.1800 -0.5633 -1.4776
  134OSM      P14483   3.142   1.125   6.498  0.0371  0.2481  0.0148
  134OSM    O1314484   2.996   1.114   6.472  0.2266 -0.1732  0.2888
  134OSM    O1414485   3.241   1.061   6.404 -0.3266 -0.3168 -0.1921
  134OSM    O1114486   3.178   1.066   6.641  0.1784  0.3747 -0.7278
  134OSM    O1214487   3.171   1.283   6.502 -0.4200  0.7277 -0.5232
  134OSM    C1S14488   3.225   1.131   6.758 -0.6176  0.1403  0.1113
  134OSM    H1S14489   3.135   1.176   6.806 -1.1421 -0.7191 -0.0388
  134OSM    H1T14490   3.301   1.211   6.743  1.9621 -2.2870 -0.6393
  134OSM     NF14491   3.335   1.098   6.971  0.1375 -0.0199 -0.3725
  134OSM    HNF14492   3.425   1.141   6.970  1.0503 -1.4801  3.2772
  134OSM    C2S14493   3.301   1.036   6.846 -0.2983 -0.4381 -0.4021
  134OSM    H2S14494   3.234   0.951   6.872  0.7484 -2.0502 -2.6797
  134OSM    C3S14495   3.424   0.978   6.776 -0.4398  0.5629  0.7391
  134OSM    H3S14496   3.491   1.063   6.752 -0.9939  0.6234 -0.6420
  134OSM     O314497   3.395   0.906   6.654 -0.4515  0.5778  0.1399
  134OSM    HO314498   3.303   0.933   6.641 -0.3025  1.9969  1.6906
  134OSM    C4S14499   3.490   0.875   6.864 -0.6620 -0.6157  0.0396
  134OSM    H4S14500   3.426   0.793   6.900 -1.3594 -0.1676 -0.1630
  134OSM    C5S14501   3.626   0.879   6.893 -0.0511 -0.0722  0.1780
  134OSM    H5S14502   3.693   0.957   6.854  0.3218 -0.2804  0.3988
  134OSM    C6S14503   3.692   0.778   6.985  0.1804 -0.0199 -0.0684
  134OSM    H6S14504   3.791   0.754   6.941 -0.0244 -1.9727  0.4551
  134OSM    H6T14505   3.646   0.678   6.993 -0.7041  0.5224  2.4918
  134OSM    C7S14506   3.728   0.840   7.124  0.1579 -0.6383 -0.0608
  134OSM    H7S14507   3.796   0.928   7.131  1.1318 -1.3240 -0.5367
  134OSM    H7T14508   3.785   0.762   7.180  1.6277 -0.7891 -1.6594
  134OSM    C8S14509   3.601   0.870   7.201 -0.2929 -0.2854 -0.1728
  134OSM    H8S14510   3.539   0.778   7.189  2.1130 -2.2796  1.6820
  134OSM    H8T14511   3.541   0.953   7.157 -0.6990  0.1726  1.1995
  134OSM    C9S14512   3.626   0.900   7.356  0.0709  0.2782 -0.0621
  134OSM    H9S14513   3.696   0.986   7.360 -0.0957  0.3932  0.4041
  134OSM    H9T14514   3.668   0.802   7.389 -2.0154 -0.8499 -0.5871
  134OSM   C10S14515   3.492   0.925   7.440  0.4502  0.2821  0.5858
  134OSM   H10S14516   3.415   0.855   7.400  1.6057 -0.9964  0.5372
  134OSM   H10T14517   3.469   1.027   7.403 -1.4350 -0.8016 -1.5193
  134OSM   C11S14518   3.495   0.900   7.587 -0.2466  0.2572  0.1442
  134OSM   H11S14519   3.529   0.795   7.592 -0.4386  0.2373  1.1299
  134OSM   H11T14520   3.392   0.897   7.629 -0.5207  0.1631 -0.5114
  134OSM   C12S14521   3.584   0.997   7.656  0.1539 -0.1512  0.1767
  134OSM   H12S14522   3.556   1.095   7.613 -1.9095 -0.5182  0.5870
  134OSM   H12T14523   3.692   0.977   7.638 -0.0195 -0.1248 -0.9620
  134OSM   C13S14524   3.561   1.000   7.807  0.6097  0.2585 -0.8730
  134OSM   H13S14525   3.452   0.994   7.827  0.1400  2.7784 -2.3548
  134OSM   H13T14526   3.614   1.074   7.870  0.2521 -0.6077  0.5020
  134OSM   C14S14527   3.635   0.869   7.854  0.7727  0.1883 -0.0217
  134OSM   H14S14528   3.735   0.845   7.811 -0.1385 -0.8853 -1.6232
  134OSM   H14T14529   3.579   0.779   7.820  1.1470 -0.3454  0.7328
  134OSM   C15S14530   3.634   0.863   8.011  0.0554  0.2738  0.4597
  134OSM   H15S14531   3.524   0.856   8.029  0.1559  0.3466  1.1542
  134OSM   H15T14532   3.663   0.957   8.063 -0.3430  0.9652 -0.5351
  134OSM   C16S14533   3.703   0.741   8.082  0.9311  0.1403 -0.0972
  134OSM   H16S14534   3.811   0.736   8.054  1.3405  1.6252  1.0753
  134OSM   H16T14535   3.642   0.650   8.064 -0.0152  0.7289  0.0681
  134OSM   C17S14536   3.706   0.765   8.236 -0.6447 -0.6881 -0.2156
  134OSM   H17S14537   3.605   0.798   8.267 -0.4482 -2.2323  2.4319
  134OSM   H17T14538   3.766   0.852   8.271 -1.2736 -0.8245  1.2999
  134OSM   C18S14539   3.758   0.645   8.316 -0.1813 -0.2158  0.1576
  134OSM   H18S14540   3.859   0.608   8.291 -0.3689 -1.6677  1.3932
  134OSM   H18T14541   3.683   0.563   8.316 -0.3441 -0.1244  2.2520
  134OSM   H18U14542   3.764   0.665   8.425 -0.7797  3.5415 -0.3477
  134OSM    C1F14543   3.234   1.116   7.058  0.1177 -0.3173 -0.1036
  134OSM     OF14544   3.120   1.066   7.044 -0.0405 -0.1487 -0.4481
  134OSM    C2F14545   3.271   1.208   7.171  0.1914  1.1815  0.4601
  134OSM    H2F14546   3.282   1.302   7.113 -2.2239  0.7648 -0.8070
  134OSM    H2G14547   3.368   1.180   7.217  1.2779  1.6249 -1.4421
  134OSM    C3F14548   3.163   1.222   7.278  1.0182 -0.2090 -0.5154
  134OSM    H3F14549   3.110   1.128   7.305 -0.5116  0.4024 -1.2329
  134OSM    H3G14550   3.087   1.299   7.251  0.7346 -0.0842  0.6136
  134OSM    C4F14551   3.224   1.272   7.412 -0.2164 -0.3625  0.6183
  134OSM    H4F14552   3.282   1.365   7.395 -2.8560  1.2917 -0.0432
  134OSM    H4G14553   3.281   1.193   7.464 -0.9586 -0.4631  1.3072
  134OSM    C5F14554   3.120   1.308   7.519  0.3012 -0.0714 -1.0321
  134OSM    H5F14555   3.060   1.216   7.540 -2.9771  2.2856  0.8022
  134OSM    H5G14556   3.038   1.373   7.484  0.0795 -0.0477 -0.4849
  134OSM    C6F14557   3.167   1.367   7.653 -0.5303  0.9360 -0.8288
  134OSM    H6F14558   3.085   1.416   7.710  1.8279  1.8106  2.0795
  134OSM    H6G14559   3.233   1.455   7.632  0.7475  0.0563 -0.6490
  134OSM    C7F14560   3.244   1.269   7.740 -0.9132  0.7158  0.1160
  134OSM    H7F14561   3.317   1.212   7.678 -0.9261 -1.2966  1.8470
  134OSM    H7G14562   3.186   1.182   7.777  2.1893 -1.1435  0.9594
  134OSM    C8F14563   3.343   1.336   7.842  0.0869  0.3951  0.2677
  134OSM    H8F14564   3.421   1.403   7.799 -1.0932  1.0742 -0.9123
  134OSM    H8G14565   3.404   1.252   7.882  0.1848  0.3339 -0.0069
  134OSM    C9F14566   3.257   1.408   7.945 -0.0681 -0.0121 -0.0407
  134OSM    H9F14567   3.207   1.497   7.905  1.4490  0.9743  0.1946
  134OSM   C10F14568   3.240   1.368   8.073 -0.0893  0.3584 -0.4475
  134OSM   H10F14569   3.195   1.440   8.143  0.4714 -0.1713  0.4782
  134OSM   C11F14570   3.308   1.262   8.152 -0.9609  0.2325  0.1388
  134OSM   H11F14571   3.409   1.235   8.114 -0.3703  1.0315  1.0944
  134OSM   H11G14572   3.243   1.173   8.136  0.8316 -1.3170  1.1372
  134OSM   C12F14573   3.334   1.291   8.300 -0.0225 -0.6721  0.7208
  134OSM   H12F14574   3.235   1.322   8.340  0.5382  0.9908  0.9134
  134OSM   H12G14575   3.409   1.373   8.298  0.3382 -1.0047 -0.7177
  134OSM   C13F14576   3.414   1.190   8.380 -0.4991 -0.0870 -0.3092
  134OSM   H13F14577   3.511   1.182   8.327 -0.4694  1.7418 -0.5959
  134OSM   H13G14578   3.365   1.091   8.370 -0.0006 -0.2920 -0.7760
  134OSM   C14F14579   3.424   1.229   8.533 -0.5394 -0.0010 -0.3155
  134OSM   H14F14580   3.322   1.203   8.569 -0.6762  1.2115  0.2314
  134OSM   H14G14581   3.428   1.338   8.555  1.2072 -0.1155  0.0919
  134OSM   C15F14582   3.537   1.160   8.609 -0.1276 -0.5609  0.0870
  134OSM   H15F14583   3.636   1.195   8.571  0.4981 -2.1322  0.2182
  134OSM   H15G14584   3.536   1.053   8.581 -0.3224 -0.8076  1.0225
  134OSM   C16F14585   3.535   1.177   8.763 -0.0817  0.1424  0.7718
  134OSM   H16F14586   3.447   1.131   8.811  1.0009  0.3712  3.0967
  134OSM   H16G14587   3.537   1.287   8.781  3.1829  0.1309  1.1903
  134OSM   C17F14588   3.656   1.111   8.831 -0.0045  0.0522 -0.2860
  134OSM   H17F14589   3.745   1.146   8.776 -0.8942  1.6315 -0.7580
  134OSM   H17G14590   3.642   1.001   8.819  2.9277 -0.1857 -2.8060
  134OSM   C18F14591   3.687   1.149   8.973 -0.2655  0.0213 -0.7540
  134OSM   H18F14592   3.595   1.162   9.034 -1.4028 -2.0963 -1.9229
  134OSM   H18G14593   3.740   1.246   8.960  3.0607 -1.7983 -2.0661
  134OSM   H18H14594   3.761   1.082   9.022 -0.4659  1.8266  2.2827
  135OSM      N14595   2.913   0.230   6.637 -0.4296  0.0710 -0.3843
  135OSM    C1514596   2.775   0.254   6.695  0.0598  0.1238 -0.1361
  135OSM   H15A14597   2.702   0.204   6.633 -0.9031  0.7288  0.4930
  135OSM   H15B14598   2.759   0.359   6.676 -1.3099  0.1479  1.0589
  135OSM   H15C14599   2.757   0.225   6.797  0.0171 -0.1822 -0.2315
  135OSM    C1414600   3.024   0.282   6.727  0.2877  0.7055  0.4678
  135OSM   H14A14601   3.019   0.227   6.819  0.6168  1.1930  0.7853
  135OSM   H14B14602   3.004   0.386   6.749 -0.6050  0.3642  1.3146
  135OSM   H14C14603   3.121   0.271   6.681  0.4625  2.8094  0.2194
  135OSM    C1314604   2.930   0.080   6.619 -0.4889 -0.3558 -0.5095
  135OSM   H13A14605   2.859   0.033   6.552  0.2319 -0.1190 -1.4716
  135OSM   H13B14606   2.926   0.032   6.715  1.6693 -0.3225 -0.3521
  135OSM   H13C14607   3.030   0.062   6.582  1.0531  1.9484  2.1508
  135OSM    C1214608   2.927   0.276   6.496 -0.0808  0.1189  1.0860
  135OSM   H12A14609   2.853   0.223   6.438  0.8809 -0.7792  0.6354
  135OSM   H12B14610   3.023   0.244   6.458  0.4154  2.4818  0.1623
  135OSM    C1114611   2.926   0.426   6.464  0.2256 -0.1367  0.2634
  135OSM   H11A14612   2.923   0.446   6.354 -1.3113  0.3781  0.3639
  135OSM   H11B14613   3.020   0.471   6.502 -0.1657 -0.2399  1.3919
  135OSM      P14614   2.784   0.630   6.573 -0.3218 -0.1732 -0.6117
  135OSM    O1314615   2.744   0.718   6.465  0.3123  0.4644 -0.7608
  135OSM    O1414616   2.692   0.620   6.688 -0.7730 -0.6263 -0.2439
  135OSM    O1114617   2.925   0.682   6.634 -0.5404 -0.1236  0.3759
  135OSM    O1214618   2.811   0.488   6.525  0.2163  0.1974  0.5407
  135OSM    C1S14619   2.941   0.811   6.690 -1.2421  0.0526 -0.8010
  135OSM    H1S14620   2.866   0.881   6.647  0.6179  1.2917 -2.1633
  135OSM    H1T14621   3.040   0.851   6.662  0.0711 -1.1294  1.8564
  135OSM     NF14622   2.919   0.946   6.902  0.2180 -0.8337  0.1524
  135OSM    HNF14623   3.003   0.976   6.948  0.0168  0.6669 -0.3825
  135OSM    C2S14624   2.916   0.810   6.847 -0.0475 -0.8916 -0.3631
  135OSM    H2S14625   2.812   0.772   6.856 -0.8469  1.1208 -0.5814
  135OSM    C3S14626   3.020   0.723   6.923  0.0465 -0.0173 -0.0915
  135OSM    H3S14627   3.116   0.778   6.919 -0.2372  0.6611  1.5371
  135OSM     O314628   3.026   0.590   6.871  0.4753  0.1788 -0.1046
  135OSM    HO314629   2.978   0.588   6.788  1.3236  1.0074 -0.6360
  135OSM    C4S14630   2.998   0.711   7.071 -0.0779 -0.1220 -0.3131
  135OSM    H4S14631   2.924   0.634   7.099 -1.8589  1.8364  0.7435
  135OSM    C5S14632   3.065   0.771   7.177  0.8948  0.1659  0.0240
  135OSM    H5S14633   3.147   0.838   7.150  0.4370  1.4224  1.5775
  135OSM    C6S14634   3.036   0.748   7.321  0.5256 -0.0992 -0.2669
  135OSM    H6S14635   3.117   0.680   7.354 -0.7401 -1.9818 -0.8827
  135OSM    H6T14636   2.936   0.700   7.325  0.9407 -0.9256  1.5646
  135OSM    C7S14637   3.021   0.869   7.415 -0.1943 -0.0233  0.4446
  135OSM    H7S14638   2.929   0.924   7.387 -1.0634 -1.5179  0.2221
  135OSM    H7T14639   3.099   0.945   7.397  0.8983 -1.1021  0.5185
  135OSM    C8S14640   3.014   0.833   7.561 -0.2668  0.3356 -0.6358
  135OSM    H8S14641   3.086   0.751   7.582 -1.7073 -0.7721  0.1828
  135OSM    H8T14642   2.914   0.788   7.581 -0.7084 -0.0059 -3.2440
  135OSM    C9S14643   3.042   0.949   7.651 -0.0426 -0.1362  0.0975
  135OSM    H9S14644   2.985   1.040   7.620 -0.2188  0.1338  1.1762
  135OSM    H9T14645   3.147   0.983   7.643  0.6786 -2.1635  0.5059
  135OSM   C10S14646   3.033   0.916   7.803 -0.0826  0.4474  0.6741
  135OSM   H10S14647   2.930   0.873   7.811 -0.5581  1.6917  1.5480
  135OSM   H10T14648   3.031   1.008   7.864 -3.4547  1.4968 -0.7777
  135OSM   C11S14649   3.134   0.817   7.847 -0.4492  1.0444 -0.5995
  135OSM   H11S14650   3.238   0.850   7.826  0.7457 -0.2292  2.5884
  135OSM   H11T14651   3.135   0.714   7.806  1.9937  0.2383  1.2192
  135OSM   C12S14652   3.117   0.781   7.996  0.4255 -0.9508  0.2381
  135OSM   H12S14653   3.008   0.768   8.007  0.3094  0.2559  0.5743
  135OSM   H12T14654   3.154   0.871   8.050  0.1677 -0.3182 -0.6203
  135OSM   C13S14655   3.186   0.657   8.042 -0.0489  0.2423  0.6689
  135OSM   H13S14656   3.292   0.673   8.011  0.0630 -0.1826  0.8242
  135OSM   H13T14657   3.140   0.569   7.991  0.0202  0.8289 -0.4323
  135OSM   C14S14658   3.191   0.634   8.189 -0.0594  0.0173  0.2028
  135OSM   H14S14659   3.213   0.528   8.212 -2.2362 -0.1028  2.1371
  135OSM   H14T14660   3.088   0.650   8.228 -1.3541 -1.2259 -2.4884
  135OSM   C15S14661   3.284   0.726   8.263  0.3720  0.3424 -0.3059
  135OSM   H15S14662   3.252   0.828   8.231 -0.9697 -0.2682 -0.9485
  135OSM   H15T14663   3.386   0.732   8.217  0.8684 -0.4172  0.6644
  135OSM   C16S14664   3.277   0.696   8.412  0.9706  0.7519  0.3643
  135OSM   H16S14665   3.280   0.587   8.431 -1.7856  0.3940 -0.6856
  135OSM   H16T14666   3.180   0.722   8.461  0.9748 -1.9329  1.9722
  135OSM   C17S14667   3.375   0.789   8.479 -0.7521 -0.4318 -0.1897
  135OSM   H17S14668   3.378   0.892   8.440 -1.7065  0.2699  1.4772
  135OSM   H17T14669   3.474   0.746   8.451  0.0882  1.4925 -0.3313
  135OSM   C18S14670   3.365   0.790   8.631 -0.4384 -0.4164  0.7585
  135OSM   H18S14671   3.278   0.847   8.668  0.0262  0.0461  1.1515
  135OSM   H18T14672   3.454   0.835   8.681  1.0981 -0.7356 -1.5011
  135OSM   H18U14673   3.358   0.684   8.661  0.5692 -1.1215 -1.3341
  135OSM    C1F14674   2.826   1.042   6.863 -0.5104 -0.0194  0.1424
  135OSM     OF14675   2.733   1.010   6.792  0.0857 -0.7681 -0.0543
  135OSM    C2F14676   2.841   1.190   6.897  0.1855  0.1038  0.5459
  135OSM    H2F14677   2.824   1.240   6.799 -0.3366 -0.1246  0.5188
  135OSM    H2G14678   2.950   1.205   6.915 -0.2357  0.2377  3.5481
  135OSM    C3F14679   2.739   1.226   7.010 -0.0676  0.0556 -0.3600
  135OSM    H3F14680   2.646   1.166   7.014  0.6326 -1.1890 -1.6408
  135OSM    H3G14681   2.715   1.334   7.003 -0.2861  0.1425  1.3366
  135OSM    C4F14682   2.807   1.213   7.151  0.2065 -0.2413  0.3484
  135OSM    H4F14683   2.899   1.274   7.158 -1.6954  3.4291 -2.5952
  135OSM    H4G14684   2.838   1.107   7.153 -1.3844 -0.7313  0.4817
  135OSM    C5F14685   2.707   1.249   7.263 -0.1535  0.2225 -0.0428
  135OSM    H5F14686   2.617   1.185   7.253  0.3477 -0.4110 -0.6495
  135OSM    H5G14687   2.689   1.358   7.250  0.4396  0.4537  0.9927
  135OSM    C6F14688   2.760   1.212   7.408 -0.5575 -0.1269  0.1181
  135OSM    H6F14689   2.860   1.260   7.400  0.5537 -2.3204  0.0561
  135OSM    H6G14690   2.784   1.104   7.421  0.7924  0.1389  0.0517
  135OSM    C7F14691   2.670   1.258   7.524  0.2457  0.4795 -0.0842
  135OSM    H7F14692   2.581   1.192   7.532 -0.3357  0.7735 -2.9182
  135OSM    H7G14693   2.638   1.364   7.508 -2.0214 -0.1099  0.2773
  135OSM    C8F14694   2.737   1.252   7.662  0.2478 -0.1288  0.0208
  135OSM    H8F14695   2.816   1.331   7.660 -1.3849  1.5604 -0.7104
  135OSM    H8G14696   2.785   1.152   7.668  2.0616  0.4874 -2.5244
  135OSM    C9F14697   2.639   1.266   7.776 -0.0986  0.4279  0.3475
  135OSM    H9F14698   2.542   1.316   7.768  1.2655  3.4283  0.8424
  135OSM   C10F14699   2.667   1.222   7.902  0.5749  0.9444  0.1912
  135OSM   H10F14700   2.597   1.230   7.987  1.5413  0.2085  1.0816
  135OSM   C11F14701   2.794   1.147   7.948  0.0054  0.4645 -0.1809
  135OSM   H11F14702   2.855   1.129   7.856  0.3691  1.6122 -0.1842
  135OSM   H11G14703   2.757   1.053   7.993  0.3375 -0.2078 -1.2729
  135OSM   C12F14704   2.888   1.221   8.041  0.4723 -0.1405 -0.2190
  135OSM   H12F14705   2.838   1.310   8.087  0.9428  0.1318 -0.2291
  135OSM   H12G14706   2.977   1.250   7.981  0.9059 -0.9475  0.0243
  135OSM   C13F14707   2.931   1.125   8.157  0.3877 -0.0863  0.1152
  135OSM   H13F14708   2.999   1.187   8.219 -1.6168  1.1390  1.1760
  135OSM   H13G14709   2.989   1.036   8.124  0.1330 -0.6168  1.0761
  135OSM   C14F14710   2.812   1.075   8.242  0.0854 -0.9930 -0.0694
  135OSM   H14F14711   2.740   1.015   8.183 -0.5572  0.5545 -0.9301
  135OSM   H14G14712   2.754   1.159   8.285  0.1689 -0.9103 -0.1161
  135OSM   C15F14713   2.866   0.977   8.360  0.6262  0.6799  0.5929
  135OSM   H15F14714   2.925   0.894   8.316  0.4552  0.4119  0.8659
  135OSM   H15G14715   2.779   0.928   8.408  1.9845 -1.2528  1.2302
  135OSM   C16F14716   2.956   1.044   8.462 -0.1160 -0.2933 -0.0230
  135OSM   H16F14717   3.049   1.067   8.405  0.7061 -0.4068  1.2436
  135OSM   H16G14718   2.971   0.963   8.536  0.4447 -0.6552 -0.5273
  135OSM   C17F14719   2.906   1.176   8.531 -0.6554  0.2656  0.0612
  135OSM   H17F14720   2.806   1.159   8.576 -1.7376  1.3039 -1.8128
  135OSM   H17G14721   2.880   1.255   8.457  1.0215 -0.0874 -0.9625
  135OSM   C18F14722   3.001   1.241   8.632 -0.1813  0.0214 -0.3874
  135OSM   H18F14723   3.033   1.167   8.708  1.8357  2.8189  1.6578
  135OSM   H18G14724   2.958   1.333   8.678  1.0305  0.5337 -0.2653
  135OSM   H18H14725   3.093   1.275   8.581 -0.8400  1.4993 -0.6587
  136OSM      N14726   1.425   1.943   5.888 -0.0372 -0.0489 -0.1001
  136OSM    C1514727   1.353   2.053   5.814 -1.1771  0.0831 -0.0331
  136OSM   H15A14728   1.246   2.043   5.830 -1.9102  2.7789 -2.4395
  136OSM   H15B14729   1.364   2.048   5.707  0.7084  1.5667  0.0308
  136OSM   H15C14730   1.400   2.144   5.847 -1.7225  0.9876 -1.6260
  136OSM    C1414731   1.571   1.944   5.839  0.4665  0.1360  0.2207
  136OSM   H14A14732   1.615   2.042   5.850  0.0465  0.1416  2.2195
  136OSM   H14B14733   1.581   1.922   5.734 -1.1786 -1.0641  0.2658
  136OSM   H14C14734   1.634   1.872   5.890  0.2260 -0.7455 -0.6931
  136OSM    C1314735   1.427   1.981   6.033  0.6121 -0.1413  0.4939
  136OSM   H13A14736   1.328   1.962   6.071  0.4373 -1.2052 -0.4398
  136OSM   H13B14737   1.449   2.085   6.048  1.8417 -0.0296 -1.6893
  136OSM   H13C14738   1.504   1.931   6.091  0.5276 -0.6378  0.1882
  136OSM    C1214739   1.365   1.802   5.869 -0.2244 -0.2574  0.0395
  136OSM   H12A14740   1.432   1.732   5.917 -0.6267  0.1391  1.2021
  136OSM   H12B14741   1.359   1.775   5.764  1.2719  0.3972 -0.2465
  136OSM    C1114742   1.227   1.783   5.928 -0.3820 -0.9518  0.3688
  136OSM   H11A14743   1.181   1.689   5.891  0.5461 -0.5557 -1.9366
  136OSM   H11B14744   1.161   1.869   5.907 -2.6329 -2.5676  0.4691
  136OSM      P14745   1.261   1.641   6.142  0.2176 -0.1403 -0.3488
  136OSM    O1314746   1.132   1.568   6.133 -0.6394  0.0173 -0.4478
  136OSM    O1414747   1.375   1.582   6.073  0.3414  0.2211  0.5894
  136OSM    O1114748   1.289   1.681   6.296 -0.5443 -0.6781  0.3959
  136OSM    O1214749   1.230   1.780   6.071  0.1394 -0.3185  0.9299
  136OSM    C1S14750   1.416   1.745   6.314 -0.9239  0.1532  0.2404
  136OSM    H1S14751   1.437   1.836   6.254  1.1306 -0.3343  0.1588
  136OSM    H1T14752   1.505   1.681   6.299 -1.7455 -0.7812 -0.8750
  136OSM     NF14753   1.529   1.863   6.499 -0.5698 -0.1908  0.0210
  136OSM    HNF14754   1.588   1.828   6.571  0.9761 -0.9751 -1.5513
  136OSM    C2S14755   1.416   1.793   6.459  0.4913 -0.0712 -0.7633
  136OSM    H2S14756   1.330   1.862   6.468 -0.2243 -1.0024 -0.3104
  136OSM    C3S14757   1.379   1.671   6.554  0.3231  0.2429  0.5786
  136OSM    H3S14758   1.440   1.581   6.532  3.8937  2.5264  0.2319
  136OSM     O314759   1.242   1.624   6.556  0.3811  0.6129 -0.7764
  136OSM    HO314760   1.214   1.651   6.469 -1.3573 -0.6008 -0.6428
  136OSM    C4S14761   1.415   1.703   6.694 -0.0064  0.4167 -0.0954
  136OSM    H4S14762   1.394   1.808   6.719  0.7917  0.2371  1.4555
  136OSM    C5S14763   1.490   1.632   6.773 -0.4851  0.9328 -0.8109
  136OSM    H5S14764   1.519   1.531   6.742 -0.3681  0.8918 -0.5697
  136OSM    C6S14765   1.532   1.663   6.916 -0.2533 -0.4211 -0.3399
  136OSM    H6S14766   1.555   1.771   6.923 -1.5451 -0.1077 -0.5572
  136OSM    H6T14767   1.629   1.617   6.943  1.3918  2.5193 -0.8857
  136OSM    C7S14768   1.428   1.631   7.022  0.0571 -0.4813 -0.1041
  136OSM    H7S14769   1.408   1.522   7.029  0.1882 -0.4305  1.5441
  136OSM    H7T14770   1.332   1.686   7.010  1.0051  1.8883  2.0796
  136OSM    C8S14771   1.493   1.679   7.158 -0.2514 -0.0350  0.2261
  136OSM    H8S14772   1.491   1.790   7.152  0.3851 -0.0487 -0.3849
  136OSM    H8T14773   1.597   1.642   7.171 -0.6887 -0.9605  1.1534
  136OSM    C9S14774   1.411   1.635   7.277 -0.3251 -0.0323  0.5715
  136OSM    H9S14775   1.389   1.527   7.268 -0.2576  0.0148 -0.2251
  136OSM    H9T14776   1.312   1.681   7.257 -0.4270  1.1830  3.3812
  136OSM   C10S14777   1.464   1.683   7.414 -0.2195 -0.0557 -1.2895
  136OSM   H10S14778   1.486   1.790   7.395 -0.5704  0.5775  1.5185
  136OSM   H10T14779   1.553   1.619   7.436 -0.6577  0.1557  1.4368
  136OSM   C11S14780   1.361   1.673   7.523  0.5000  0.1828 -0.2086
  136OSM   H11S14781   1.345   1.567   7.549  0.9529  0.4715  1.3585
  136OSM   H11T14782   1.264   1.723   7.502 -2.2365 -4.2534  0.5837
  136OSM   C12S14783   1.411   1.746   7.652 -0.1942  0.0403 -0.2925
  136OSM   H12S14784   1.461   1.838   7.615  0.0382  0.8511  1.8838
  136OSM   H12T14785   1.490   1.688   7.705 -0.7278 -0.6030 -0.1793
  136OSM   C13S14786   1.304   1.782   7.759 -0.2517 -0.1931 -0.4438
  136OSM   H13S14787   1.221   1.838   7.710 -0.5343  0.4653  0.7382
  136OSM   H13T14788   1.359   1.847   7.831 -1.8510 -1.7628  2.3540
  136OSM   C14S14789   1.258   1.660   7.836 -0.7979 -0.4247  0.0213
  136OSM   H14S14790   1.348   1.607   7.875 -1.3980 -1.7071 -0.2857
  136OSM   H14T14791   1.211   1.591   7.762 -1.5089 -0.3840  0.4306
  136OSM   C15S14792   1.170   1.695   7.950 -0.4117 -0.4732 -0.1697
  136OSM   H15S14793   1.087   1.755   7.908  0.0754  0.5271  0.2716
  136OSM   H15T14794   1.220   1.758   8.026 -1.2612  0.4777 -0.3710
  136OSM   C16S14795   1.101   1.574   8.010 -0.2651  0.3685  0.3368
  136OSM   H16S14796   1.063   1.511   7.927 -1.0469  0.1467  0.8520
  136OSM   H16T14797   1.032   1.610   8.090  1.1190  2.2428  0.7545
  136OSM   C17S14798   1.198   1.474   8.086  0.4155 -0.5108 -0.0933
  136OSM   H17S14799   1.262   1.538   8.150 -1.3511  1.1125  0.1401
  136OSM   H17T14800   1.272   1.417   8.025  2.6178  0.1156  1.8520
  136OSM   C18S14801   1.107   1.385   8.172  0.1924  0.5049 -0.0483
  136OSM   H18S14802   1.167   1.296   8.201 -1.6255 -0.4145  1.0577
  136OSM   H18T14803   1.022   1.342   8.115  0.9627 -2.2490  0.7179
  136OSM   H18U14804   1.066   1.429   8.266  1.1522 -0.4678  0.8544
  136OSM    C1F14805   1.556   1.984   6.441 -0.8479 -0.4716  0.0494
  136OSM     OF14806   1.484   2.051   6.372  1.3227 -0.1550  0.5010
  136OSM    C2F14807   1.680   2.034   6.503  0.1933 -0.8261 -0.3657
  136OSM    H2F14808   1.729   2.106   6.434  1.7221 -2.1208 -0.6880
  136OSM    H2G14809   1.755   1.954   6.520  1.0594  0.2248  1.0782
  136OSM    C3F14810   1.651   2.111   6.637 -0.5315 -1.1819 -0.5530
  136OSM    H3F14811   1.595   2.206   6.624  0.9737 -0.2189 -0.2462
  136OSM    H3G14812   1.753   2.148   6.661 -0.6298 -0.3242 -1.3929
  136OSM    C4F14813   1.605   2.037   6.763  0.3459 -0.1215  0.2407
  136OSM    H4F14814   1.647   1.934   6.761 -0.1887 -0.3357 -1.3539
  136OSM    H4G14815   1.496   2.020   6.761  0.4406 -0.7458  0.3285
  136OSM    C5F14816   1.650   2.107   6.889 -0.3102  0.5378 -0.2032
  136OSM    H5F14817   1.611   2.211   6.890  0.3723  0.7994  0.8226
  136OSM    H5G14818   1.761   2.114   6.883 -0.1418  3.8186  2.9988
  136OSM    C6F14819   1.619   2.033   7.019 -1.5059 -0.0338 -0.4408
  136OSM    H6F14820   1.660   1.930   7.011 -1.8805 -0.1118 -1.5209
  136OSM    H6G14821   1.508   2.034   7.015 -1.5136 -1.2630 -3.3900
  136OSM    C7F14822   1.698   2.097   7.140 -0.4743 -0.1348  0.2660
  136OSM    H7F14823   1.672   2.204   7.155  0.1608  0.5769 -2.8735
  136OSM    H7G14824   1.806   2.096   7.114 -0.8164 -0.3659 -1.2312
  136OSM    C8F14825   1.665   2.027   7.268  0.3304  0.6898  0.3990
  136OSM    H8F14826   1.670   1.920   7.238 -1.4196  1.6426 -4.0661
  136OSM    H8G14827   1.555   2.031   7.281  0.1876  1.5713 -0.8626
  136OSM    C9F14828   1.742   2.068   7.394 -0.2703  0.2536  0.0911
  136OSM    H9F14829   1.850   2.068   7.374 -0.7136 -2.3525 -3.0635
  136OSM   C10F14830   1.695   2.108   7.515  0.0571 -0.0695  0.9011
  136OSM   H10F14831   1.762   2.156   7.588  0.9464 -0.3230  0.2678
  136OSM   C11F14832   1.555   2.112   7.558  0.7378 -0.0461 -0.0467
  136OSM   H11F14833   1.549   2.063   7.658  0.3064 -0.0760 -0.0880
  136OSM   H11G14834   1.481   2.067   7.489 -1.6564  0.3778  2.1126
  136OSM   C12F14835   1.509   2.259   7.578  0.2145 -0.7153 -0.2871
  136OSM   H12F14836   1.401   2.255   7.606 -0.2897  1.2204 -1.7778
  136OSM   H12G14837   1.513   2.314   7.481  1.3608  0.4247  0.3861
  136OSM   C13F14838   1.580   2.335   7.689  0.3958  0.5848 -0.3711
  136OSM   H13F14839   1.687   2.351   7.662  0.1145 -0.9686 -2.6658
  136OSM   H13G14840   1.573   2.270   7.780 -0.2995 -0.6531 -1.2726
  136OSM   C14F14841   1.525   2.478   7.712 -0.9339 -0.2579 -0.3898
  136OSM   H14F14842   1.417   2.467   7.737 -0.2776 -2.6933  1.7302
  136OSM   H14G14843   1.538   2.526   7.613  0.0455 -0.5440 -0.4056
  136OSM   C15F14844   1.590   2.551   7.836 -0.3458  0.3928 -0.1523
  136OSM   H15F14845   1.595   2.661   7.818 -0.5471  0.0315 -2.7471
  136OSM   H15G14846   1.696   2.519   7.840 -0.9146 -1.5243  0.5489
  136OSM   C16F14847   1.537   2.506   7.978  0.3626  0.2644 -0.2494
  136OSM   H16F14848   1.541   2.396   7.989 -1.8453  0.2942  1.4932
  136OSM   H16G14849   1.428   2.530   7.977  0.9979  3.8939  0.5908
  136OSM   C17F14850   1.600   2.593   8.090  0.1628  0.0944 -0.3184
  136OSM   H17F14851   1.612   2.698   8.057  0.8047 -0.0764 -0.6372
  136OSM   H17G14852   1.701   2.555   8.117  0.9748  2.8603  0.8549
  136OSM   C18F14853   1.528   2.601   8.227  0.1173  0.3462  0.6180
  136OSM   H18F14854   1.546   2.501   8.272  2.0609 -0.1786 -1.2003
  136OSM   H18G14855   1.420   2.625   8.211  0.1562 -0.6848 -1.5800
  136OSM   H18H14856   1.566   2.686   8.288 -1.7164  0.7942  1.2272
  137OSM      N14857   4.261   0.152   6.456 -0.1381  0.1127  0.3995
  137OSM    C1514858   4.310   0.294   6.462  0.0090 -0.6231  0.7621
  137OSM   H15A14859   4.387   0.323   6.392 -0.7405 -0.7026 -0.1142
  137OSM   H15B14860   4.341   0.317   6.563  1.5109 -2.2327  0.7259
  137OSM   H15C14861   4.227   0.362   6.448 -0.4352 -0.4736  3.5419
  137OSM    C1414862   4.165   0.137   6.343  0.1215 -0.2794 -0.2482
  137OSM   H14A14863   4.074   0.193   6.361  0.3013 -0.6033  2.0210
  137OSM   H14B14864   4.132   0.035   6.329 -1.3538  0.3547 -1.8123
  137OSM   H14C14865   4.205   0.170   6.249  0.1089 -0.6964 -0.4041
  137OSM    C1314866   4.378   0.065   6.423 -0.1528  0.2142 -0.1198
  137OSM   H13A14867   4.343  -0.035   6.403  0.3542 -0.0927  0.4794
  137OSM   H13B14868   4.455   0.066   6.498  0.9407  1.9535 -1.1984
  137OSM   H13C14869   4.425   0.105   6.334 -1.3976 -0.1692 -0.9810
  137OSM    C1214870   4.195   0.111   6.581  0.3904  0.2878 -0.1423
  137OSM   H12A14871   4.144   0.017   6.564  0.3657  0.4201 -0.8171
  137OSM   H12B14872   4.113   0.179   6.602 -1.7673 -1.9655 -0.7608
  137OSM    C1114873   4.274   0.102   6.718 -0.1685 -0.2497  0.7520
  137OSM   H11A14874   4.193   0.101   6.795 -2.7756  0.2476 -1.8329
  137OSM   H11B14875   4.336   0.194   6.724  1.2596 -1.1259  0.0475
  137OSM      P14876   4.329  -0.156   6.734 -0.5128 -0.1960  0.1873
  137OSM    O1314877   4.189  -0.192   6.770 -0.4238 -0.4201 -0.1764
  137OSM    O1414878   4.376  -0.211   6.610 -0.1943  0.2893  0.2967
  137OSM    O1114879   4.421  -0.208   6.848  0.3561  0.9713 -0.1296
  137OSM    O1214880   4.364  -0.004   6.738  0.2339 -0.0244  0.0864
  137OSM    C1S14881   4.564  -0.190   6.854 -0.4805 -0.2141  0.3292
  137OSM    H1S14882   4.585  -0.081   6.845  1.3113 -0.4111  1.4272
  137OSM    H1T14883   4.607  -0.256   6.776 -0.4865  0.1787 -0.0072
  137OSM     NF14884   4.754  -0.176   7.006  0.3961 -0.2651  0.4612
  137OSM    HNF14885   4.829  -0.242   6.998 -1.5264 -2.3993 -2.1014
  137OSM    C2S14886   4.618  -0.227   6.990  0.6487  0.2452 -0.3750
  137OSM    H2S14887   4.559  -0.178   7.071  1.9366  1.3728 -0.0850
  137OSM    C3S14888   4.600  -0.381   7.022  0.0236  0.0467  0.0989
  137OSM    H3S14889   4.665  -0.435   6.951 -1.2015  0.7535 -1.6174
  137OSM     O314890   4.464  -0.429   6.988 -0.8111 -0.5141 -1.1935
  137OSM    HO314891   4.427  -0.350   6.951 -1.9773  0.3745  1.6069
  137OSM    C4S14892   4.646  -0.414   7.164 -0.5099 -0.1094 -0.1779
  137OSM    H4S14893   4.751  -0.447   7.169 -0.6806 -0.8281 -0.9712
  137OSM    C5S14894   4.571  -0.413   7.275 -0.5476 -0.3471  0.3586
  137OSM    H5S14895   4.468  -0.376   7.264 -0.9626 -1.4122  0.6185
  137OSM    C6S14896   4.614  -0.450   7.415  0.5998  0.3103  0.2698
  137OSM    H6S14897   4.518  -0.465   7.468 -1.3448 -0.1090 -3.0885
  137OSM    H6T14898   4.663  -0.362   7.462 -1.5921  0.8201  1.7212
  137OSM    C7S14899   4.708  -0.573   7.429  0.3871 -0.1415  1.3599
  137OSM    H7S14900   4.779  -0.559   7.345 -2.0043 -2.5310 -1.3005
  137OSM    H7T14901   4.642  -0.662   7.413 -1.0294  1.0773 -0.0025
  137OSM    C8S14902   4.778  -0.568   7.563 -0.1033  0.3484 -0.5343
  137OSM    H8S14903   4.830  -0.470   7.571  0.1982  0.0302  3.9896
  137OSM    H8T14904   4.849  -0.654   7.571  0.4053  0.7180 -0.9870
  137OSM    C9S14905   4.686  -0.585   7.687 -0.9403 -0.2548  0.1634
  137OSM    H9S14906   4.643  -0.688   7.683 -0.1715 -0.5980  0.6470
  137OSM    H9T14907   4.596  -0.520   7.696 -0.1720  0.7153  0.9854
  137OSM   C10S14908   4.768  -0.572   7.811 -0.3986 -0.3588  0.6103
  137OSM   H10S14909   4.791  -0.463   7.816 -3.9771  0.5098  0.9479
  137OSM   H10T14910   4.856  -0.640   7.806  0.2277  0.4640  0.1724
  137OSM   C11S14911   4.688  -0.594   7.938 -1.0066  0.7027 -0.4939
  137OSM   H11S14912   4.637  -0.693   7.940 -0.5376  0.4663  0.5824
  137OSM   H11T14913   4.611  -0.514   7.947  0.2694  1.8513  0.5245
  137OSM   C12S14914   4.784  -0.585   8.065  0.0173  0.7823  0.1799
  137OSM   H12S14915   4.826  -0.482   8.060 -0.8790  1.0984 -2.5563
  137OSM   H12T14916   4.868  -0.651   8.037  0.0434  1.2283 -0.8303
  137OSM   C13S14917   4.705  -0.613   8.200  0.7749  0.8155  0.9599
  137OSM   H13S14918   4.646  -0.702   8.171 -1.1486  3.1169 -3.0878
  137OSM   H13T14919   4.632  -0.529   8.213 -0.6502  0.5107 -3.4721
  137OSM   C14S14920   4.804  -0.651   8.308  0.1619 -0.1071  0.0117
  137OSM   H14S14921   4.865  -0.563   8.338 -1.5979  1.0597  0.3096
  137OSM   H14T14922   4.870  -0.727   8.262 -1.2963 -0.1825 -2.0853
  137OSM   C15S14923   4.752  -0.716   8.432  0.7058  0.4819  0.3225
  137OSM   H15S14924   4.704  -0.812   8.403  0.5755  0.6193  0.0781
  137OSM   H15T14925   4.675  -0.653   8.482 -0.8253 -2.3296  1.7563
  137OSM   C16S14926   4.868  -0.743   8.529  0.4799  0.5688  0.6384
  137OSM   H16S14927   4.932  -0.655   8.547 -0.1966  1.4053 -0.8850
  137OSM   H16T14928   4.938  -0.817   8.484 -0.5207  1.2681 -2.3100
  137OSM   C17S14929   4.821  -0.799   8.666  0.3272  0.3988  0.2374
  137OSM   H17S14930   4.751  -0.884   8.654  1.1480 -0.3540  0.6314
  137OSM   H17T14931   4.764  -0.713   8.707 -0.5840  0.8363 -1.8380
  137OSM   C18S14932   4.943  -0.840   8.755 -0.1974  0.1080 -0.0084
  137OSM   H18S14933   5.005  -0.913   8.697 -0.8905  0.1084 -0.7635
  137OSM   H18T14934   4.913  -0.881   8.853 -1.0178  0.1098 -0.2509
  137OSM   H18U14935   5.012  -0.756   8.776  1.1247 -0.2873 -2.3526
  137OSM    C1F14936   4.792  -0.049   7.013  0.0703  0.2787 -0.1423
  137OSM     OF14937   4.721   0.047   6.979  0.6654 -0.0628 -0.3700
  137OSM    C2F14938   4.937  -0.028   7.047  0.9808 -0.8001  0.4425
  137OSM    H2F14939   4.981   0.028   6.962 -0.1411 -0.8556 -0.1998
  137OSM    H2G14940   4.999  -0.120   7.061  2.4977  0.5700  3.5076
  137OSM    C3F14941   4.962   0.047   7.179 -0.0744  0.5385  0.7147
  137OSM    H3F14942   4.904   0.141   7.172 -2.2380 -0.8274 -1.2724
  137OSM    H3G14943   5.072   0.057   7.188  0.0087 -0.2912  0.7006
  137OSM    C4F14944   4.923  -0.024   7.312  0.6417  0.6084 -0.4892
  137OSM    H4F14945   4.815  -0.006   7.329  0.4139 -1.2043  0.1932
  137OSM    H4G14946   4.989   0.027   7.386  1.1692  1.9443 -1.8159
  137OSM    C5F14947   4.958  -0.169   7.312  0.7379  0.1974  0.2106
  137OSM    H5F14948   5.062  -0.194   7.281  1.2296  2.2854 -0.0048
  137OSM    H5G14949   4.898  -0.224   7.237  1.3246  1.5364 -1.2918
  137OSM    C6F14950   4.940  -0.243   7.452  0.3297  0.4984  0.0903
  137OSM    H6F14951   4.963  -0.350   7.430 -2.5368  0.0702 -1.3488
  137OSM    H6G14952   4.835  -0.240   7.487 -0.1519 -1.2370 -1.0507
  137OSM    C7F14953   5.040  -0.193   7.557  0.7019  0.2883  0.0538
  137OSM    H7F14954   4.999  -0.094   7.585 -1.3539 -0.4931 -0.0178
  137OSM    H7G14955   5.144  -0.195   7.518  0.9051 -0.6891  0.6045
  137OSM    C8F14956   5.040  -0.284   7.679 -0.2041  0.3369 -0.3763
  137OSM    H8F14957   4.935  -0.294   7.712  0.1796  2.0841  1.5672
  137OSM    H8G14958   5.094  -0.227   7.758  0.4444 -0.1048 -0.4911
  137OSM    C9F14959   5.108  -0.418   7.658  0.0147 -0.1437  0.3622
  137OSM    H9F14960   5.125  -0.449   7.554 -0.7625  0.7604 -0.0519
  137OSM   C10F14961   5.141  -0.503   7.757 -0.2438 -0.5235  0.9596
  137OSM   H10F14962   5.183  -0.599   7.725 -0.5438 -0.1131 -0.7236
  137OSM   C11F14963   5.116  -0.476   7.903  0.6970  0.4783  0.2788
  137OSM   H11F14964   5.112  -0.570   7.961  0.9660  0.2358 -0.0940
  137OSM   H11G14965   5.016  -0.428   7.904  0.3408 -0.2489  0.1384
  137OSM   C12F14966   5.212  -0.378   7.969  0.3909  0.1069 -0.3863
  137OSM   H12F14967   5.237  -0.292   7.902 -2.2053  0.7924 -0.5653
  137OSM   H12G14968   5.299  -0.445   7.989 -0.6404 -1.8098 -2.0297
  137OSM   C13F14969   5.169  -0.327   8.113 -0.0773 -0.1667 -0.1026
  137OSM   H13F14970   5.090  -0.250   8.099  1.8560  1.8673 -0.5406
  137OSM   H13G14971   5.259  -0.277   8.155 -0.3123  0.6683 -0.5694
  137OSM   C14F14972   5.117  -0.436   8.198 -0.1060  0.4819 -0.6666
  137OSM   H14F14973   5.197  -0.512   8.211 -2.8717 -3.0347 -2.2635
  137OSM   H14G14974   5.039  -0.499   8.150 -0.4178  0.7046 -0.4545
  137OSM   C15F14975   5.080  -0.392   8.341  0.3471 -0.0500  0.0236
  137OSM   H15F14976   5.015  -0.467   8.391 -0.2370  0.6971  0.4068
  137OSM   H15G14977   5.034  -0.291   8.333  0.0588 -0.2320 -0.7158
  137OSM   C16F14978   5.202  -0.376   8.432  0.4025 -0.4313 -0.2015
  137OSM   H16F14979   5.254  -0.284   8.396  0.9745 -1.0346 -0.9465
  137OSM   H16G14980   5.274  -0.459   8.415  1.5477  0.9627 -2.8053
  137OSM   C17F14981   5.175  -0.360   8.587  0.6117 -0.2357  0.1990
  137OSM   H17F14982   5.155  -0.459   8.633  1.0250  0.3677  1.7325
  137OSM   H17G14983   5.091  -0.292   8.613  2.3152  1.5986  1.1519
  137OSM   C18F14984   5.297  -0.318   8.668  0.0135 -0.1498 -0.2147
  137OSM   H18F14985   5.373  -0.399   8.669 -0.7541 -0.8850  0.0021
  137OSM   H18G14986   5.270  -0.287   8.771 -0.0293 -3.2466  0.8089
  137OSM   H18H14987   5.338  -0.228   8.619  1.9967 -0.4116  0.8709
  138OSM      N14988   5.639   1.130   5.914 -0.4268  0.5300 -0.4522
  138OSM    C1514989   5.543   1.025   5.866 -0.4899 -0.1443 -0.3731
  138OSM   H15A14990   5.446   1.028   5.913 -0.2954  0.3516  0.0026
  138OSM   H15B14991   5.586   0.930   5.892  0.1068  0.4844  1.0133
  138OSM   H15C14992   5.519   1.025   5.760 -1.7782  0.3321 -0.0969
  138OSM    C1414993   5.623   1.131   6.061  0.2116  0.6206  0.4670
  138OSM   H14A14994   5.689   1.205   6.103 -0.3658  1.0055  0.6970
  138OSM   H14B14995   5.640   1.029   6.092  1.5736  1.2222  1.8342
  138OSM   H14C14996   5.523   1.146   6.098 -0.1198 -0.9702  0.3181
  138OSM    C1314997   5.776   1.078   5.879  0.0852 -0.4592  0.2597
  138OSM   H13A14998   5.774   1.055   5.774 -1.0017 -2.5575  0.6948
  138OSM   H13B14999   5.793   0.987   5.935 -0.4630 -0.6672  0.0940
  138OSM   H13C15000   5.859   1.142   5.905  0.1699  0.0171 -1.1391
  138OSM    C1215001   5.603   1.261   5.854 -0.3588  0.5061  0.2612
  138OSM   H12A15002   5.497   1.262   5.835  0.0244  0.6529 -2.1729
  138OSM   H12B15003   5.639   1.267   5.753 -1.8843  1.9142 -0.2458
  138OSM    C1115004   5.648   1.397   5.921 -0.0221  1.1332  0.2817
  138OSM   H11A15005   5.600   1.479   5.864  0.5467  1.6723  0.5691
  138OSM   H11B15006   5.759   1.403   5.918  0.0562 -0.2745 -0.9832
  138OSM      P15007   5.667   1.514   6.161 -0.1091 -0.0036  0.2574
  138OSM    O1315008   5.776   1.455   6.242 -0.4101  0.4671  0.0845
  138OSM    O1415009   5.704   1.640   6.089  0.0754 -0.6922  0.0825
  138OSM    O1115010   5.538   1.545   6.257 -0.0503 -0.3576  0.8373
  138OSM    O1215011   5.608   1.412   6.058  0.9501  0.0252  0.2421
  138OSM    C1S15012   5.494   1.443   6.353 -0.0474 -0.0313  0.9201
  138OSM    H1S15013   5.554   1.349   6.358 -0.4068 -0.2146  2.1934
  138OSM    H1T15014   5.400   1.407   6.305 -0.9516  4.4811 -1.3009
  138OSM     NF15015   5.472   1.390   6.590  0.1669 -0.4553  0.3691
  138OSM    HNF15016   5.381   1.383   6.631  0.8620  1.1897  2.4097
  138OSM    C2S15017   5.479   1.502   6.496 -0.3682  0.2787  0.0304
  138OSM    H2S15018   5.569   1.562   6.519 -1.3512  1.6459  0.4598
  138OSM    C3S15019   5.359   1.608   6.504 -0.6117 -0.1101 -0.7678
  138OSM    H3S15020   5.266   1.552   6.482 -1.1841 -0.0878  1.4053
  138OSM     O315021   5.368   1.713   6.412 -0.7709 -0.3764 -0.4591
  138OSM    HO315022   5.421   1.664   6.348 -0.9747 -1.4891  0.1937
  138OSM    C4S15023   5.343   1.651   6.651  0.9629 -0.1228 -0.1664
  138OSM    H4S15024   5.278   1.577   6.699  0.6061  0.4376  0.2247
  138OSM    C5S15025   5.400   1.753   6.721  0.0624 -0.8533  0.6927
  138OSM    H5S15026   5.468   1.824   6.672 -0.9309 -0.5066 -0.2137
  138OSM    C6S15027   5.370   1.778   6.863  0.3166  0.1470 -0.4221
  138OSM    H6S15028   5.448   1.724   6.920  0.3767  1.3239  0.6483
  138OSM    H6T15029   5.267   1.746   6.892 -0.9254  2.0662 -2.3712
  138OSM    C7S15030   5.395   1.927   6.895  0.3576  0.1336 -0.3287
  138OSM    H7S15031   5.313   1.993   6.860 -0.5588 -0.0689  1.2927
  138OSM    H7T15032   5.486   1.963   6.842  0.5621  0.7450  0.4161
  138OSM    C8S15033   5.419   1.950   7.048  0.2807  0.0997 -0.1079
  138OSM    H8S15034   5.417   2.059   7.070 -1.8324  0.2975 -1.0648
  138OSM    H8T15035   5.519   1.910   7.075  0.3864  0.3500 -0.1269
  138OSM    C9S15036   5.321   1.876   7.138  0.3937 -0.4192 -0.0171
  138OSM    H9S15037   5.344   1.768   7.139  1.5104 -0.2019 -0.1680
  138OSM    H9T15038   5.223   1.898   7.090 -0.1036 -0.3026  1.0238
  138OSM   C10S15039   5.314   1.943   7.276  0.4069  0.0100 -0.0360
  138OSM   H10S15040   5.281   2.049   7.270 -2.2896 -0.7509  0.3358
  138OSM   H10T15041   5.413   1.932   7.326  1.0513  1.0474 -1.0214
  138OSM   C11S15042   5.203   1.884   7.373 -0.3872  0.2981  0.8244
  138OSM   H11S15043   5.232   1.778   7.391  2.4983  1.3209  2.9977
  138OSM   H11T15044   5.111   1.911   7.316 -0.1890 -0.9991 -0.1641
  138OSM   C12S15045   5.201   1.945   7.510  0.3595  0.4026  0.6178
  138OSM   H12S15046   5.176   2.053   7.496  0.2055  0.4846  1.4620
  138OSM   H12T15047   5.305   1.951   7.551  0.3447  2.9141  0.4944
  138OSM   C13S15048   5.117   1.867   7.615 -0.0407  0.0066  0.2626
  138OSM   H13S15049   5.143   1.759   7.611 -0.3351 -0.0223 -1.0697
  138OSM   H13T15050   5.015   1.873   7.572  0.0819  0.7555  0.0603
  138OSM   C14S15051   5.149   1.913   7.763 -0.7673 -0.0101 -0.0211
  138OSM   H14S15052   5.115   2.019   7.765 -1.9208 -0.3361 -0.9567
  138OSM   H14T15053   5.259   1.904   7.776 -0.2502  0.3065 -3.2129
  138OSM   C15S15054   5.068   1.840   7.870 -0.2915 -0.3464 -0.3515
  138OSM   H15S15055   5.098   1.733   7.876 -1.7367 -0.7003  2.0786
  138OSM   H15T15056   4.961   1.848   7.843 -1.2067  2.7088  3.2179
  138OSM   C16S15057   5.078   1.901   8.008 -0.3958 -0.2919  0.2555
  138OSM   H16S15058   5.026   1.998   8.007  0.6452  0.3195 -1.8084
  138OSM   H16T15059   5.184   1.920   8.037 -1.1485  1.4026  2.0306
  138OSM   C17S15060   5.017   1.807   8.120  0.2991  0.1088  0.7239
  138OSM   H17S15061   5.061   1.708   8.092 -1.3490  0.2440 -2.9709
  138OSM   H17T15062   4.909   1.817   8.095  0.2141 -1.4811  0.3403
  138OSM   C18S15063   5.035   1.849   8.263  0.3673 -0.2948 -0.2391
  138OSM   H18S15064   4.997   1.774   8.336 -1.2499  0.4489 -0.2493
  138OSM   H18T15065   4.970   1.940   8.268  0.2022 -0.4766  2.5588
  138OSM   H18U15066   5.141   1.863   8.293  0.3279 -0.6399  0.0533
  138OSM    C1F15067   5.584   1.328   6.630 -0.0363  0.5686 -0.0998
  138OSM     OF15068   5.692   1.368   6.598  0.3145 -0.3222  0.3824
  138OSM    C2F15069   5.574   1.205   6.723  0.1499 -0.3911  0.1323
  138OSM    H2F15070   5.554   1.110   6.668  0.7259 -0.0005 -0.7833
  138OSM    H2G15071   5.478   1.218   6.777  0.1139 -1.2254  0.2859
  138OSM    C3F15072   5.685   1.195   6.828 -0.1144 -0.7109 -0.7399
  138OSM    H3F15073   5.784   1.218   6.785  1.5021 -2.1308  1.9037
  138OSM    H3G15074   5.680   1.085   6.848 -1.0326 -0.2160  2.4017
  138OSM    C4F15075   5.663   1.276   6.950 -0.6250  0.3500 -0.1544
  138OSM    H4F15076   5.752   1.279   7.016 -0.3305 -1.8464 -0.3711
  138OSM    H4G15077   5.580   1.227   7.006 -0.7243  0.4083 -0.2488
  138OSM    C5F15078   5.637   1.422   6.929  0.3557 -0.2410  0.4047
  138OSM    H5F15079   5.555   1.429   6.854  0.2206  0.3101  0.5946
  138OSM    H5G15080   5.721   1.477   6.880 -1.1328  1.7635 -0.0077
  138OSM    C6F15081   5.606   1.505   7.054 -0.2677  0.5485 -0.0149
  138OSM    H6F15082   5.610   1.610   7.018 -2.7573  0.0156 -2.1703
  138OSM    H6G15083   5.689   1.490   7.125  0.8846  1.1561 -1.1950
  138OSM    C7F15084   5.469   1.473   7.116 -0.0373 -0.0896  0.4691
  138OSM    H7F15085   5.447   1.364   7.118 -2.9603  0.3251 -1.6392
  138OSM    H7G15086   5.394   1.503   7.040  1.4458  0.8520 -0.6955
  138OSM    C8F15087   5.466   1.537   7.254  0.5086  0.0023 -0.5059
  138OSM    H8F15088   5.358   1.541   7.281  0.7452  2.4772  0.3716
  138OSM    H8G15089   5.501   1.642   7.250  2.2257 -0.4181  1.5102
  138OSM    C9F15090   5.550   1.469   7.364  0.4444 -0.2761 -0.1857
  138OSM    H9F15091   5.628   1.403   7.325  1.0655  0.3175  0.0246
  138OSM   C10F15092   5.519   1.485   7.499  0.0963 -0.5299  0.9366
  138OSM   H10F15093   5.574   1.428   7.575 -0.3149 -0.0419  1.6161
  138OSM   C11F15094   5.406   1.570   7.562 -0.2291 -0.3067  0.0570
  138OSM   H11F15095   5.324   1.506   7.601  0.5407 -1.7200 -0.5718
  138OSM   H11G15096   5.355   1.633   7.486  1.6826  0.1046 -0.9398
  138OSM   C12F15097   5.470   1.654   7.681  0.0827  0.2071  0.0662
  138OSM   H12F15098   5.388   1.712   7.729 -0.3760  0.2531 -0.7481
  138OSM   H12G15099   5.542   1.718   7.625  1.0234 -1.9666 -1.3494
  138OSM   C13F15100   5.516   1.570   7.799  0.3128 -0.0046 -0.0514
  138OSM   H13F15101   5.563   1.631   7.880 -1.5574 -0.7953  1.7135
  138OSM   H13G15102   5.594   1.495   7.773  0.7388  0.1433  0.7462
  138OSM   C14F15103   5.404   1.492   7.864 -0.8373 -0.4396 -0.1143
  138OSM   H14F15104   5.381   1.410   7.792 -1.8366 -0.6533  0.4319
  138OSM   H14G15105   5.313   1.554   7.879 -0.2842  0.8231 -1.6128
  138OSM   C15F15106   5.433   1.421   7.993  0.1337  0.2553  0.5090
  138OSM   H15F15107   5.513   1.345   7.985  0.5394  0.9253 -3.9617
  138OSM   H15G15108   5.345   1.359   8.023  0.1812  0.1096  0.3482
  138OSM   C16F15109   5.466   1.528   8.100  0.2195  0.7981 -0.3271
  138OSM   H16F15110   5.402   1.619   8.103  0.6712  1.1850 -1.6093
  138OSM   H16G15111   5.568   1.566   8.076  0.4252 -0.3872 -1.4472
  138OSM   C17F15112   5.452   1.470   8.244  0.3877 -0.2353 -0.3796
  138OSM   H17F15113   5.518   1.381   8.249 -0.0958 -0.5577  0.3705
  138OSM   H17G15114   5.348   1.434   8.258  0.3830 -0.0323  0.1354
  138OSM   C18F15115   5.481   1.580   8.350  0.1360 -0.1955  0.0598
  138OSM   H18F15116   5.456   1.538   8.450 -0.9990  1.0109  0.3047
  138OSM   H18G15117   5.404   1.659   8.348 -1.5427 -1.7372  0.5956
  138OSM   H18H15118   5.580   1.629   8.340 -0.6609  1.4913  0.1248
  139OSM      N15119   4.329   1.491   6.103  0.0532 -0.1498  0.3315
  139OSM    C1515120   4.182   1.499   6.094  0.0699  0.3348  0.0265
  139OSM   H15A15121   4.138   1.459   6.003  0.8966  0.0407 -0.2557
  139OSM   H15B15122   4.161   1.605   6.097 -1.8481 -0.0176  0.2732
  139OSM   H15C15123   4.131   1.469   6.184 -3.3794 -0.5850 -2.0526
  139OSM    C1415124   4.358   1.343   6.128  0.2656 -0.3520 -0.6339
  139OSM   H14A15125   4.463   1.327   6.108  0.6541  0.1135  0.9192
  139OSM   H14B15126   4.291   1.276   6.076 -2.0925  1.0496  0.3882
  139OSM   H14C15127   4.350   1.314   6.231  1.4192  0.1174 -0.4063
  139OSM    C1315128   4.389   1.543   5.972 -0.4047  0.4795 -0.5631
  139OSM   H13A15129   4.337   1.499   5.888  0.7674  0.3617 -1.2542
  139OSM   H13B15130   4.489   1.504   5.965 -0.3606 -0.1035  2.2273
  139OSM   H13C15131   4.388   1.651   5.969  0.0000  0.5867  1.7886
  139OSM    C1215132   4.389   1.557   6.221  0.9385  0.0643 -0.7682
  139OSM   H12A15133   4.497   1.564   6.216  0.8350  2.0023 -0.9961
  139OSM   H12B15134   4.372   1.503   6.313  0.2282  0.8312 -0.4318
  139OSM    C1115135   4.352   1.709   6.238  0.1992 -0.0719  0.3009
  139OSM   H11A15136   4.243   1.728   6.245 -0.1145 -1.5581 -0.2407
  139OSM   H11B15137   4.394   1.743   6.141  0.9189 -1.7399 -0.0093
  139OSM      P15138   4.521   1.895   6.339 -0.3437 -0.0069  0.4741
  139OSM    O1315139   4.640   1.850   6.260  0.1290 -0.1323 -0.4200
  139OSM    O1415140   4.436   1.992   6.277  0.5790 -0.7400 -0.4306
  139OSM    O1115141   4.553   1.956   6.481 -0.3703  0.1155 -0.4079
  139OSM    O1215142   4.427   1.764   6.346  0.1929  0.5312 -0.3099
  139OSM    C1S15143   4.464   1.938   6.592  0.1412 -0.4843 -0.4656
  139OSM    H1S15144   4.457   1.834   6.630 -3.2107 -0.6461 -1.2461
  139OSM    H1T15145   4.360   1.948   6.553  0.3435 -2.3867 -1.6004
  139OSM     NF15146   4.425   1.983   6.838  0.1751 -0.6222  0.8204
  139OSM    HNF15147   4.347   2.036   6.871 -1.0135 -2.2224  0.6786
  139OSM    C2S15148   4.494   2.025   6.719 -0.6971  0.3334 -0.2783
  139OSM    H2S15149   4.603   2.020   6.738 -0.3782 -2.0893 -2.2445
  139OSM    C3S15150   4.462   2.178   6.687  1.0680 -0.8435  0.0988
  139OSM    H3S15151   4.351   2.177   6.674  0.8245 -0.3808  1.8518
  139OSM     O315152   4.523   2.228   6.563  0.2187  0.3366  0.2934
  139OSM    HO315153   4.549   2.147   6.518 -0.5914 -0.5167  1.3064
  139OSM    C4S15154   4.494   2.263   6.802  0.8957 -1.2181  0.1984
  139OSM    H4S15155   4.411   2.267   6.874  0.1232  1.0900 -0.7090
  139OSM    C5S15156   4.606   2.332   6.832 -0.4374 -0.3464  0.0525
  139OSM    H5S15157   4.692   2.341   6.764 -0.0030  0.1453  0.6600
  139OSM    C6S15158   4.629   2.413   6.957  0.1589 -0.1900 -0.0728
  139OSM    H6S15159   4.625   2.517   6.919  1.3664 -0.1953 -0.2275
  139OSM    H6T15160   4.732   2.394   6.994  0.0272  0.1464  0.4889
  139OSM    C7S15161   4.526   2.398   7.072 -0.8856 -0.0738  0.1369
  139OSM    H7S15162   4.419   2.391   7.041 -2.0742  3.6541  2.6471
  139OSM    H7T15163   4.529   2.486   7.139 -2.2612  0.8335 -0.9472
  139OSM    C8S15164   4.547   2.268   7.141  0.1032 -0.1347 -0.4444
  139OSM    H8S15165   4.656   2.263   7.161  0.1623  3.2230  0.5868
  139OSM    H8T15166   4.531   2.184   7.070 -1.2401 -0.1082 -0.1887
  139OSM    C9S15167   4.467   2.252   7.266  0.8168 -0.6711 -0.2498
  139OSM    H9S15168   4.442   2.146   7.285  0.1596 -0.6178 -0.7881
  139OSM    H9T15169   4.367   2.299   7.258  0.6287 -1.2015 -1.1354
  139OSM   C10S15170   4.531   2.313   7.388  0.2693 -0.3419  0.0671
  139OSM   H10S15171   4.546   2.423   7.382  3.2160 -0.7377 -2.0321
  139OSM   H10T15172   4.625   2.255   7.401 -0.2654 -1.0238  0.9836
  139OSM   C11S15173   4.448   2.278   7.513 -0.6281 -0.7458 -0.5245
  139OSM   H11S15174   4.417   2.172   7.514  0.3051 -1.0265  0.0821
  139OSM   H11T15175   4.353   2.336   7.512  0.9465  2.0522 -2.7353
  139OSM   C12S15176   4.534   2.308   7.635 -0.2619  0.0180 -0.1061
  139OSM   H12S15177   4.569   2.414   7.636 -0.7744  0.1922  0.7878
  139OSM   H12T15178   4.627   2.247   7.637 -0.0140  0.3092 -1.5543
  139OSM   C13S15179   4.460   2.309   7.771  1.1871 -0.7372  0.4994
  139OSM   H13S15180   4.386   2.227   7.777  0.5159 -0.1307  0.6320
  139OSM   H13T15181   4.394   2.398   7.777 -0.0941 -1.5141 -1.3687
  139OSM   C14S15182   4.562   2.307   7.886 -0.2604 -0.5484 -0.5437
  139OSM   H14S15183   4.618   2.403   7.885 -1.0390  0.0746  2.9357
  139OSM   H14T15184   4.637   2.227   7.869  0.9861  0.5125 -0.1485
  139OSM   C15S15185   4.495   2.289   8.026  0.0132 -0.5051 -0.1132
  139OSM   H15S15186   4.432   2.198   8.020 -2.5767  1.1740 -0.1019
  139OSM   H15T15187   4.425   2.375   8.043 -0.5200 -0.3058 -2.8748
  139OSM   C16S15188   4.587   2.287   8.150  0.4676 -0.0167  0.2903
  139OSM   H16S15189   4.523   2.282   8.241 -1.6126 -1.7705 -1.1659
  139OSM   H16T15190   4.633   2.388   8.151  1.1853 -0.3293 -0.2914
  139OSM   C17S15191   4.678   2.160   8.160 -0.0792  0.2312 -0.1819
  139OSM   H17S15192   4.773   2.168   8.103  0.6331  2.9264  1.2103
  139OSM   H17T15193   4.627   2.064   8.137  0.6011  0.0733 -1.0751
  139OSM   C18S15194   4.727   2.136   8.302 -0.2851 -0.2481  0.4906
  139OSM   H18S15195   4.648   2.154   8.378  0.1230  0.6911  0.7200
  139OSM   H18T15196   4.818   2.199   8.312 -0.0363 -0.7215  1.2665
  139OSM   H18U15197   4.773   2.036   8.310 -1.6457 -1.1232 -1.7420
  139OSM    C1F15198   4.454   1.874   6.898  1.1609  0.6772 -0.5766
  139OSM     OF15199   4.544   1.799   6.853  0.5151 -0.2787  0.1072
  139OSM    C2F15200   4.375   1.833   7.015  0.3472 -1.0418 -0.9041
  139OSM    H2F15201   4.295   1.758   6.995  0.1464 -0.9192 -0.5815
  139OSM    H2G15202   4.329   1.921   7.066 -0.5800 -1.4227 -1.0599
  139OSM    C3F15203   4.461   1.775   7.127  0.8326  0.3701  0.3328
  139OSM    H3F15204   4.516   1.683   7.098 -1.0465 -0.7966  0.3129
  139OSM    H3G15205   4.387   1.731   7.197 -0.0630  0.5505 -0.4889
  139OSM    C4F15206   4.553   1.873   7.196  0.3176  0.4298 -0.7565
  139OSM    H4F15207   4.496   1.961   7.233 -1.3122 -1.5970  2.0040
  139OSM    H4G15208   4.625   1.901   7.116  2.2461  1.8138  1.3276
  139OSM    C5F15209   4.625   1.816   7.323  0.2036  0.4295  0.1349
  139OSM    H5F15210   4.718   1.875   7.337 -0.0477  0.7322  0.5633
  139OSM    H5G15211   4.645   1.709   7.303 -1.7000  0.1833 -0.7000
  139OSM    C6F15212   4.533   1.819   7.442 -0.1206 -0.4957 -0.1304
  139OSM    H6F15213   4.432   1.783   7.415 -0.0264 -1.8946  1.2435
  139OSM    H6G15214   4.530   1.925   7.475 -1.5106 -0.3142 -0.7741
  139OSM    C7F15215   4.596   1.743   7.558 -0.1735  0.3469 -0.0133
  139OSM    H7F15216   4.697   1.791   7.557  0.8293 -1.6474 -1.1461
  139OSM    H7G15217   4.625   1.638   7.535  0.0619  0.4932 -0.4011
  139OSM    C8F15218   4.529   1.758   7.695  0.2628  0.0035  0.2082
  139OSM    H8F15219   4.534   1.659   7.745 -1.4214  0.8821  2.2544
  139OSM    H8G15220   4.424   1.791   7.684  0.8004  2.4205  1.7055
  139OSM    C9F15221   4.597   1.860   7.789  0.1767  1.2046  0.3476
  139OSM    H9F15222   4.667   1.926   7.735  2.4820 -1.9092 -0.8125
  139OSM   C10F15223   4.600   1.854   7.917 -0.7808  0.3171 -0.2718
  139OSM   H10F15224   4.646   1.932   7.980 -2.0649 -0.8567  2.2787
  139OSM   C11F15225   4.529   1.748   8.002 -0.6013  0.1020 -0.3040
  139OSM   H11F15226   4.571   1.646   7.993 -1.9037 -0.5111  0.3496
  139OSM   H11G15227   4.426   1.743   7.962 -1.5536 -2.1499  2.1230
  139OSM   C12F15228   4.515   1.806   8.143  0.5782 -0.2367  0.4788
  139OSM   H12F15229   4.462   1.903   8.132  1.4200  0.2916  0.9768
  139OSM   H12G15230   4.615   1.825   8.189  0.5215 -0.1318  0.5580
  139OSM   C13F15231   4.418   1.719   8.233  0.4835 -0.0312  0.0737
  139OSM   H13F15232   4.318   1.717   8.186  0.1574  0.7226  0.7255
  139OSM   H13G15233   4.420   1.766   8.333 -0.8429 -0.2270  0.2101
  139OSM   C14F15234   4.476   1.578   8.256 -0.4783  0.6819  0.0086
  139OSM   H14F15235   4.587   1.575   8.259 -0.4999  0.6588  1.4446
  139OSM   H14G15236   4.443   1.527   8.162 -0.2870  0.1440  0.2325
  139OSM   C15F15237   4.408   1.494   8.371 -0.9946  0.4055  0.6315
  139OSM   H15F15238   4.448   1.391   8.358 -1.4189  0.3549 -0.3309
  139OSM   H15G15239   4.299   1.498   8.349 -1.1672  2.8396  1.5688
  139OSM   C16F15240   4.432   1.537   8.514 -0.2374 -0.1545 -0.1000
  139OSM   H16F15241   4.379   1.635   8.519  0.2962  0.3326 -2.5845
  139OSM   H16G15242   4.538   1.565   8.530  0.0665 -0.6991 -1.0598
  139OSM   C17F15243   4.380   1.440   8.623  0.8022 -0.9331  0.7775
  139OSM   H17F15244   4.270   1.433   8.612  0.9814 -2.0212 -0.4815
  139OSM   H17G15245   4.403   1.484   8.723 -1.7382  0.8126  0.6781
  139OSM   C18F15246   4.435   1.302   8.608 -0.3379 -0.1474  0.4934
  139OSM   H18F15247   4.545   1.309   8.612 -0.2047 -1.9113  3.6847
  139OSM   H18G15248   4.418   1.253   8.510  2.4843  2.3035 -1.3764
  139OSM   H18H15249   4.400   1.231   8.687  0.2339 -1.9324 -0.7977
  140OSM      N15250   4.452   5.397   6.123 -0.2657 -0.4388 -0.2018
  140OSM    C1515251   4.459   5.259   6.177  0.3775  0.6941  0.6317
  140OSM   H15A15252   4.508   5.278   6.272  3.8508  1.4895 -1.1730
  140OSM   H15B15253   4.504   5.189   6.109  0.2906 -0.9750  2.1906
  140OSM   H15C15254   4.360   5.219   6.195  0.9599 -1.5193 -0.7084
  140OSM    C1415255   4.588   5.448   6.097  0.6400  0.2771  0.0872
  140OSM   H14A15256   4.639   5.384   6.027 -3.3114 -1.0689 -1.8650
  140OSM   H14B15257   4.650   5.446   6.185  0.5913 -0.4805  0.1142
  140OSM   H14C15258   4.584   5.551   6.065  3.4851  0.6001  0.5376
  140OSM    C1315259   4.357   5.416   6.004 -0.2216  0.0007 -0.9024
  140OSM   H13A15260   4.362   5.519   5.973 -0.3140  0.3075  0.0580
  140OSM   H13B15261   4.254   5.398   6.032 -0.9013  2.4325 -1.6574
  140OSM   H13C15262   4.390   5.352   5.923 -0.6698  0.2147 -1.2607
  140OSM    C1215263   4.401   5.484   6.232  0.1964  0.1902 -0.6113
  140OSM   H12A15264   4.293   5.496   6.226  0.3535  0.9852 -2.6985
  140OSM   H12B15265   4.437   5.584   6.213 -0.1316  1.0991  2.8596
  140OSM    C1115266   4.432   5.451   6.384  0.7889 -0.4511  0.7679
  140OSM   H11A15267   4.391   5.355   6.422  1.1776 -0.2799  1.6477
  140OSM   H11B15268   4.374   5.528   6.439  0.4606 -1.3499  1.7110
  140OSM      P15269   4.660   5.537   6.462 -0.4868  0.3894 -0.2578
  140OSM    O1315270   4.800   5.498   6.481 -0.2913 -0.0895  0.5132
  140OSM    O1415271   4.629   5.662   6.398  0.1365  0.2954  0.4856
  140OSM    O1115272   4.608   5.556   6.608  0.4337  0.7059  0.5295
  140OSM    O1215273   4.574   5.425   6.407  1.0014  0.2078  0.8299
  140OSM    C1S15274   4.596   5.440   6.684  0.0875  0.6911  0.1792
  140OSM    H1S15275   4.692   5.384   6.691  0.5375  1.3508 -0.4824
  140OSM    H1T15276   4.514   5.376   6.645 -0.1884  0.7540  0.6515
  140OSM     NF15277   4.615   5.380   6.928 -0.2734  0.0514 -0.1247
  140OSM    HNF15278   4.561   5.297   6.942  0.2763 -0.7292 -2.2371
  140OSM    C2S15279   4.559   5.476   6.833  0.1082 -0.6263  0.5783
  140OSM    H2S15280   4.617   5.570   6.851  2.1719 -2.0926  2.1915
  140OSM    C3S15281   4.404   5.510   6.837  0.2333 -0.3996 -0.0116
  140OSM    H3S15282   4.368   5.408   6.811  2.5120 -1.5027  0.9015
  140OSM     O315283   4.354   5.595   6.735 -0.0874 -0.3480 -0.1907
  140OSM    HO315284   4.428   5.613   6.677 -0.8492  0.7674 -0.8487
  140OSM    C4S15285   4.361   5.557   6.970  0.0623 -0.2919 -0.6299
  140OSM    H4S15286   4.357   5.473   7.040 -0.2728  0.2966  0.0768
  140OSM    C5S15287   4.359   5.688   7.011  0.8963 -1.0298 -0.4181
  140OSM    H5S15288   4.387   5.776   6.950  1.6187 -0.5308  0.6001
  140OSM    C6S15289   4.308   5.733   7.148 -0.4646 -0.6535  0.6629
  140OSM    H6S15290   4.211   5.786   7.142  0.7599  1.5365 -2.1718
  140OSM    H6T15291   4.379   5.806   7.191  2.2290 -2.6071 -0.1848
  140OSM    C7S15292   4.282   5.627   7.257  0.2107  0.7020  0.3003
  140OSM    H7S15293   4.373   5.567   7.281 -2.3185 -2.4045  3.1557
  140OSM    H7T15294   4.220   5.539   7.231 -0.8291  1.3040  0.6957
  140OSM    C8S15295   4.245   5.676   7.397  0.2380 -0.7032  0.6870
  140OSM    H8S15296   4.166   5.752   7.386  0.7469 -0.5243 -3.1001
  140OSM    H8T15297   4.327   5.723   7.455 -0.0831  1.7023 -0.6942
  140OSM    C9S15298   4.188   5.556   7.474 -0.1479 -0.0419 -0.1280
  140OSM    H9S15299   4.257   5.469   7.469  0.5757  0.6049 -2.5469
  140OSM    H9T15300   4.099   5.518   7.420 -0.5962  2.0286 -0.9455
  140OSM   C10S15301   4.144   5.583   7.623 -0.3874  0.1834 -0.1099
  140OSM   H10S15302   4.072   5.668   7.630 -0.9798 -0.2021 -1.2341
  140OSM   H10T15303   4.228   5.611   7.690 -1.0138  0.5132  0.5663
  140OSM   C11S15304   4.088   5.457   7.680  0.8330  1.2884  0.0276
  140OSM   H11S15305   4.155   5.368   7.672 -1.1829 -0.3961  0.9998
  140OSM   H11T15306   4.007   5.420   7.614  1.8855 -2.4261  0.5710
  140OSM   C12S15307   4.038   5.481   7.820  0.2915  0.9728  0.5239
  140OSM   H12S15308   3.972   5.394   7.844  0.5458  0.7635  0.4661
  140OSM   H12T15309   3.975   5.571   7.836  0.0991  0.7158  1.2538
  140OSM   C13S15310   4.153   5.481   7.922 -0.2119  0.0666  0.0727
  140OSM   H13S15311   4.219   5.569   7.905  0.9670 -0.9447 -0.7043
  140OSM   H13T15312   4.217   5.391   7.911 -1.6127 -0.6947 -2.4316
  140OSM   C14S15313   4.098   5.487   8.066 -0.6103 -0.0401 -0.4681
  140OSM   H14S15314   4.031   5.401   8.088 -0.8721  0.3151  0.1402
  140OSM   H14T15315   4.042   5.580   8.085 -1.4555 -0.7101  0.4029
  140OSM   C15S15316   4.206   5.479   8.170 -0.0298 -0.1049 -0.3888
  140OSM   H15S15317   4.271   5.567   8.149  1.1110 -0.9271 -0.3474
  140OSM   H15T15318   4.278   5.399   8.143 -0.5571 -0.8426  0.3282
  140OSM   C16S15319   4.168   5.456   8.310 -0.5294 -0.4398  0.8346
  140OSM   H16S15320   4.258   5.427   8.368 -0.4244 -2.2475 -0.1697
  140OSM   H16T15321   4.096   5.371   8.313  0.3908 -1.2017  1.7954
  140OSM   C17S15322   4.096   5.572   8.392  0.4691 -0.4442  0.2998
  140OSM   H17S15323   4.029   5.633   8.328  0.7363  2.6708  2.7196
  140OSM   H17T15324   4.168   5.649   8.428  0.1384  0.4192 -0.8245
  140OSM   C18S15325   4.025   5.525   8.512  0.5259  0.8991 -0.6311
  140OSM   H18S15326   4.094   5.474   8.582  0.0528 -0.5599 -1.1973
  140OSM   H18T15327   3.949   5.450   8.483  2.4007 -0.4585 -2.2593
  140OSM   H18U15328   3.988   5.613   8.569  0.2094  1.2242 -1.3339
  140OSM    C1F15329   4.735   5.390   6.969 -1.1208 -0.0792  0.0104
  140OSM     OF15330   4.808   5.489   6.947  0.3308 -0.1719  0.3652
  140OSM    C2F15331   4.785   5.282   7.061  0.5966  0.5381  0.2274
  140OSM    H2F15332   4.894   5.263   7.060  0.2896 -1.4068 -1.0260
  140OSM    H2G15333   4.730   5.188   7.040  1.9193 -0.4652  1.0597
  140OSM    C3F15334   4.757   5.320   7.212  0.0101  0.2043 -0.9694
  140OSM    H3F15335   4.797   5.419   7.245 -1.6942  0.4004  0.6686
  140OSM    H3G15336   4.802   5.244   7.280 -0.4432 -1.4511 -2.4524
  140OSM    C4F15337   4.598   5.313   7.246 -0.5662 -0.1014  0.8305
  140OSM    H4F15338   4.560   5.209   7.240  0.0209 -0.2997  0.5016
  140OSM    H4G15339   4.555   5.376   7.166 -1.1005 -0.8825  0.4989
  140OSM    C5F15340   4.557   5.361   7.383  0.3582 -0.2564 -0.3115
  140OSM    H5F15341   4.447   5.372   7.381  0.1519 -1.7768  0.7869
  140OSM    H5G15342   4.590   5.462   7.416  1.3049 -0.7295  0.2481
  140OSM    C6F15343   4.607   5.260   7.493 -0.8218 -0.3395  0.1001
  140OSM    H6F15344   4.717   5.271   7.492 -0.7834 -0.4576  1.5050
  140OSM    H6G15345   4.562   5.162   7.464 -1.0017  0.6380 -3.3183
  140OSM    C7F15346   4.545   5.296   7.629  0.4945 -0.1007  0.1821
  140OSM    H7F15347   4.442   5.337   7.615 -0.5335 -2.1107  1.2565
  140OSM    H7G15348   4.613   5.374   7.669  2.2783 -2.3537  1.7795
  140OSM    C8F15349   4.551   5.173   7.727  0.5109  0.5472 -0.4270
  140OSM    H8F15350   4.657   5.144   7.735  0.3170 -0.2861 -0.7271
  140OSM    H8G15351   4.495   5.082   7.698  0.8040 -0.0578  0.8548
  140OSM    C9F15352   4.488   5.222   7.859 -0.4573  0.6146  0.3222
  140OSM    H9F15353   4.389   5.265   7.839 -0.3679 -0.4410 -2.9446
  140OSM   C10F15354   4.546   5.222   7.981 -0.4250  0.4229 -0.6044
  140OSM   H10F15355   4.479   5.236   8.067  0.9508 -0.1081  0.5975
  140OSM   C11F15356   4.693   5.181   8.019  0.3686  0.0701  0.0941
  140OSM   H11F15357   4.757   5.183   7.928 -0.6907  3.3890 -0.7343
  140OSM   H11G15358   4.686   5.076   8.056 -0.5058  0.3191  0.6847
  140OSM   C12F15359   4.745   5.277   8.126  0.1641  0.2162 -0.0219
  140OSM   H12F15360   4.752   5.380   8.087  0.6643  0.4232  0.5887
  140OSM   H12G15361   4.847   5.238   8.147  0.0172  0.9931  2.4333
  140OSM   C13F15362   4.669   5.275   8.258 -0.1118 -0.3918 -0.1363
  140OSM   H13F15363   4.575   5.332   8.246  0.1413 -0.1334 -1.0024
  140OSM   H13G15364   4.733   5.324   8.335 -0.8136  0.1633  0.1023
  140OSM   C14F15365   4.632   5.131   8.302  0.0721  0.3884  0.0682
  140OSM   H14F15366   4.730   5.079   8.312  0.7406  1.7265  0.8979
  140OSM   H14G15367   4.570   5.080   8.226 -0.1433  1.1790 -0.2975
  140OSM   C15F15368   4.556   5.137   8.432 -0.1099  0.1297  0.4713
  140OSM   H15F15369   4.467   5.204   8.432  0.3078  0.7595 -2.0669
  140OSM   H15G15370   4.626   5.191   8.499  0.9467  0.2717 -0.7317
  140OSM   C16F15371   4.526   4.998   8.491 -0.0293 -0.3045  0.6564
  140OSM   H16F15372   4.621   4.942   8.477  1.2237  2.1453 -1.6721
  140OSM   H16G15373   4.457   4.943   8.424  0.9965 -0.0309 -0.6833
  140OSM   C17F15374   4.459   4.989   8.627 -0.2188  0.5202  0.1092
  140OSM   H17F15375   4.459   4.882   8.657 -0.3103  0.1148 -1.2525
  140OSM   H17G15376   4.358   5.034   8.616 -0.3501  0.4188  0.8392
  140OSM   C18F15377   4.541   5.059   8.735 -0.2407 -0.7430  0.7144
  140OSM   H18F15378   4.487   5.054   8.832  1.6506  3.2256  2.2059
  140OSM   H18G15379   4.550   5.166   8.706 -0.9142 -1.1813 -1.2518
  140OSM   H18H15380   4.648   5.030   8.744 -0.1754 -2.0415 -2.9578
  141OSM      N15381   3.244   0.677   6.433  0.2169 -1.0029 -0.3655
  141OSM    C1515382   3.116   0.751   6.418 -0.5888 -0.7180  0.1455
  141OSM   H15A15383   3.102   0.772   6.313  1.0973  1.2589  0.2657
  141OSM   H15B15384   3.116   0.850   6.461 -0.3476 -0.4638 -0.4328
  141OSM   H15C15385   3.032   0.705   6.469  0.6072 -1.4685  1.4879
  141OSM    C1415386   3.254   0.647   6.582  0.4075 -0.5451  0.1812
  141OSM   H14A15387   3.339   0.586   6.606  0.2368 -1.0006 -0.3499
  141OSM   H14B15388   3.168   0.588   6.613  1.4738 -1.3530  1.7555
  141OSM   H14C15389   3.259   0.743   6.632  0.5326 -0.7571  0.5776
  141OSM    C1315390   3.228   0.552   6.356 -0.1250  0.0427 -0.5916
  141OSM   H13A15391   3.224   0.571   6.250 -0.1501 -0.5639 -0.7029
  141OSM   H13B15392   3.141   0.495   6.387  1.0723 -1.7157 -0.2901
  141OSM   H13C15393   3.318   0.492   6.364  0.3828  0.9453  1.2054
  141OSM    C1215394   3.365   0.762   6.388 -0.3915  0.7884  0.2828
  141OSM   H12A15395   3.369   0.857   6.440  0.1068  1.1423 -0.3874
  141OSM   H12B15396   3.357   0.779   6.282  0.1000 -0.9568 -0.0620
  141OSM    C1115397   3.502   0.687   6.413  0.5742  0.1140  0.1075
  141OSM   H11A15398   3.518   0.670   6.521  1.1728  0.0597  0.0137
  141OSM   H11B15399   3.582   0.759   6.384  0.6294  0.2317  0.5470
  141OSM      P15400   3.553   0.434   6.385 -0.2387 -0.2274  0.3101
  141OSM    O1315401   3.459   0.333   6.329  0.0938 -0.1312 -0.8404
  141OSM    O1415402   3.696   0.416   6.359  0.1421 -0.4034  0.2346
  141OSM    O1115403   3.535   0.449   6.546  0.5510 -0.5745  0.8876
  141OSM    O1215404   3.517   0.574   6.329  0.1781  0.1366  0.2341
  141OSM    C1S15405   3.638   0.383   6.620  0.3701  0.1429 -0.5921
  141OSM    H1S15406   3.742   0.418   6.603  1.5062 -2.4741  0.3883
  141OSM    H1T15407   3.637   0.273   6.602  0.2401  0.0366  0.0467
  141OSM     NF15408   3.726   0.347   6.843  0.0313 -0.7444 -0.5878
  141OSM    HNF15409   3.724   0.255   6.884  0.0878  0.4725  2.4336
  141OSM    C2S15410   3.618   0.407   6.774  0.4069 -0.5928 -0.0487
  141OSM    H2S15411   3.624   0.516   6.793 -1.3094 -0.7486  1.7202
  141OSM    C3S15412   3.482   0.359   6.823  0.4671 -0.1118  0.4695
  141OSM    H3S15413   3.497   0.250   6.839  2.0659  0.4309  3.2013
  141OSM     O315414   3.368   0.380   6.734  0.2426 -0.5368  0.3841
  141OSM    HO315415   3.414   0.405   6.653 -0.1947 -0.1519  0.2527
  141OSM    C4S15416   3.452   0.412   6.962 -0.4418 -0.0537  0.1139
  141OSM    H4S15417   3.509   0.363   7.043 -0.0875  1.8628  1.0982
  141OSM    C5S15418   3.378   0.520   7.001  0.6010  0.1226 -0.4250
  141OSM    H5S15419   3.319   0.581   6.930 -2.6491 -2.6662 -0.3523
  141OSM    C6S15420   3.360   0.561   7.154  0.0519  0.1729  1.1519
  141OSM    H6S15421   3.274   0.507   7.200  0.3101 -1.5538 -0.2562
  141OSM    H6T15422   3.360   0.672   7.155 -1.6102  0.2271 -0.1406
  141OSM    C7S15423   3.469   0.504   7.234 -0.1047 -0.1619  0.1206
  141OSM    H7S15424   3.570   0.534   7.201 -0.1469 -1.3876 -1.2085
  141OSM    H7T15425   3.463   0.393   7.229 -0.8522 -0.1914  1.2145
  141OSM    C8S15426   3.457   0.536   7.379  0.1454 -0.2358  0.1945
  141OSM    H8S15427   3.356   0.578   7.399 -0.4879 -2.9937  3.8614
  141OSM    H8T15428   3.532   0.615   7.402 -0.0997 -0.6321  2.5679
  141OSM    C9S15429   3.477   0.419   7.478 -0.6280 -0.4671  0.5040
  141OSM    H9S15430   3.574   0.368   7.463  1.0409  1.9286  2.3656
  141OSM    H9T15431   3.397   0.346   7.451 -1.3694  0.2038  0.8389
  141OSM   C10S15432   3.483   0.458   7.626  0.0532  0.4389  0.2512
  141OSM   H10S15433   3.387   0.505   7.655 -0.5321 -1.4926  1.6903
  141OSM   H10T15434   3.569   0.520   7.657 -0.8797  0.5458  2.8367
  141OSM   C11S15435   3.489   0.341   7.726 -0.4506 -0.3040 -0.4473
  141OSM   H11S15436   3.585   0.288   7.709 -0.4493 -0.2828 -0.5049
  141OSM   H11T15437   3.412   0.262   7.712 -1.5212  0.3145  1.5951
  141OSM   C12S15438   3.485   0.396   7.871  0.0859 -0.0555  0.3810
  141OSM   H12S15439   3.386   0.443   7.885 -0.3505  0.7159 -3.8948
  141OSM   H12T15440   3.567   0.467   7.897 -2.5967  2.7671  1.7693
  141OSM   C13S15441   3.500   0.293   7.988  0.1525 -0.3294 -0.1605
  141OSM   H13S15442   3.604   0.253   7.982  1.0409  1.9838 -1.3220
  141OSM   H13T15443   3.429   0.208   7.974  1.9728 -2.2512  1.5280
  141OSM   C14S15444   3.485   0.346   8.127 -0.1120 -0.3191 -0.1840
  141OSM   H14S15445   3.396   0.411   8.138  0.8575  1.1175 -0.5278
  141OSM   H14T15446   3.571   0.415   8.145  1.8599 -2.6449 -0.1476
  141OSM   C15S15447   3.507   0.239   8.234  0.0903  0.2859  0.2238
  141OSM   H15S15448   3.610   0.205   8.212 -0.1482  1.1916 -2.7788
  141OSM   H15T15449   3.443   0.152   8.207  0.2442  1.1955 -3.7538
  141OSM   C16S15450   3.475   0.281   8.382 -0.3232  0.6397  0.2386
  141OSM   H16S15451   3.366   0.300   8.383 -0.3951  0.7116  3.3396
  141OSM   H16T15452   3.526   0.375   8.412 -1.1466  1.3385 -0.5011
  141OSM   C17S15453   3.494   0.173   8.492  0.4408  0.4999 -0.5878
  141OSM   H17S15454   3.490   0.217   8.594  1.7932 -2.1818  0.7273
  141OSM   H17T15455   3.591   0.120   8.479  0.9083  1.2052 -0.0249
  141OSM   C18S15456   3.376   0.064   8.492  0.6562 -0.2603  0.7003
  141OSM   H18S15457   3.391  -0.023   8.559 -0.5742  0.1014  1.4772
  141OSM   H18T15458   3.381   0.024   8.388 -0.7838  2.3527 -0.4725
  141OSM   H18U15459   3.281   0.119   8.511 -1.0464 -1.9056 -2.2977
  141OSM    C1F15460   3.849   0.397   6.842  0.0019 -1.0590  0.1709
  141OSM     OF15461   3.862   0.513   6.792 -0.2114  0.4746  0.1262
  141OSM    C2F15462   3.966   0.322   6.894 -0.4014 -0.2131  0.5545
  141OSM    H2F15463   4.041   0.308   6.813 -0.2084 -0.6150  0.7953
  141OSM    H2G15464   3.939   0.220   6.929 -0.5836  0.9467  4.2148
  141OSM    C3F15465   4.028   0.399   7.015  0.3854 -0.0023  0.6946
  141OSM    H3F15466   4.046   0.507   6.998 -0.8517  0.1593  0.3812
  141OSM    H3G15467   4.129   0.354   7.030  0.3517 -0.6098 -0.7364
  141OSM    C4F15468   3.949   0.397   7.144 -0.7748  0.9745  0.1548
  141OSM    H4F15469   3.931   0.290   7.167 -0.2783  0.8773  0.1025
  141OSM    H4G15470   3.853   0.449   7.124  0.4891  3.2038 -0.4712
  141OSM    C5F15471   4.033   0.458   7.259  0.4004  0.6499 -0.2754
  141OSM    H5F15472   4.037   0.567   7.242 -1.6896  1.0460  1.3654
  141OSM    H5G15473   4.138   0.424   7.246 -0.1986 -0.9521 -1.2306
  141OSM    C6F15474   3.972   0.412   7.395  0.0719 -0.2578  0.8287
  141OSM    H6F15475   3.957   0.302   7.393  3.2990 -0.8150  1.1948
  141OSM    H6G15476   3.869   0.453   7.398 -0.6611 -2.0476  1.3803
  141OSM    C7F15477   4.042   0.453   7.526 -0.0206  0.1841  0.1918
  141OSM    H7F15478   4.104   0.544   7.511  0.4018 -0.2786 -0.9576
  141OSM    H7G15479   4.100   0.367   7.566 -0.3742 -1.1172 -1.9308
  141OSM    C8F15480   3.940   0.485   7.642 -0.1081  0.5651 -0.0988
  141OSM    H8F15481   3.867   0.554   7.594 -0.9776 -1.0705 -1.2207
  141OSM    H8G15482   4.001   0.526   7.726  1.3099  0.7498 -1.1837
  141OSM    C9F15483   3.875   0.356   7.667 -0.5773  0.2432  0.9045
  141OSM    H9F15484   3.798   0.333   7.592 -0.0152  2.4881 -0.4532
  141OSM   C10F15485   3.898   0.269   7.772 -0.9982 -0.2438 -0.2294
  141OSM   H10F15486   3.834   0.180   7.760 -1.8735  0.6396 -2.9494
  141OSM   C11F15487   3.995   0.276   7.895 -0.0255  0.2432  0.6662
  141OSM   H11F15488   4.069   0.357   7.880 -0.9102  0.8469 -0.6535
  141OSM   H11G15489   4.049   0.180   7.912  0.1545  0.1060 -0.6009
  141OSM   C12F15490   3.910   0.304   8.023 -0.1590  0.2720  0.0612
  141OSM   H12F15491   3.827   0.231   8.026 -1.3054  1.4719 -1.3126
  141OSM   H12G15492   3.865   0.406   8.014 -0.6078 -0.1062 -3.0616
  141OSM   C13F15493   3.992   0.278   8.149 -0.0043  0.2421 -0.5527
  141OSM   H13F15494   4.062   0.363   8.158  0.3537 -0.2009  1.3283
  141OSM   H13G15495   4.059   0.189   8.147  5.2313  3.7280 -0.4584
  141OSM   C14F15496   3.922   0.283   8.284  0.6616 -0.3332 -0.1418
  141OSM   H14F15497   3.846   0.203   8.276 -1.0066  1.0131  1.3095
  141OSM   H14G15498   3.857   0.373   8.292  0.1884 -0.5204 -1.6416
  141OSM   C15F15499   4.018   0.270   8.398  0.1036 -1.0024 -0.2635
  141OSM   H15F15500   4.087   0.358   8.398 -0.8932 -0.1915 -0.5247
  141OSM   H15G15501   4.079   0.178   8.386  0.0850 -0.9028 -1.1868
  141OSM   C16F15502   3.953   0.261   8.539 -0.1061  0.4583  1.0144
  141OSM   H16F15503   3.876   0.182   8.531 -0.3043  0.6832  0.6478
  141OSM   H16G15504   3.897   0.354   8.561 -1.0071  0.4719 -1.0588
  141OSM   C17F15505   4.054   0.241   8.654  0.0205 -0.1887  0.3650
  141OSM   H17F15506   4.107   0.335   8.682 -0.9418  1.1404 -1.9795
  141OSM   H17G15507   4.126   0.165   8.617 -1.5514 -1.1083 -0.9307
  141OSM   C18F15508   3.997   0.171   8.781 -0.0064 -0.1852  0.2470
  141OSM   H18F15509   3.929   0.094   8.738 -0.7952  1.3398 -1.3651
  141OSM   H18G15510   3.953   0.247   8.848  3.9440  0.1574  2.8025
  141OSM   H18H15511   4.076   0.109   8.830  0.0566 -0.4858 -0.2221
  142OSM      N15512   3.750   1.594   6.346 -0.0535  0.5934  0.0865
  142OSM    C1515513   3.743   1.469   6.262 -0.1489 -0.4116 -0.2264
  142OSM   H15A15514   3.818   1.397   6.292  1.0849  0.8510 -0.1920
  142OSM   H15B15515   3.776   1.501   6.164  0.7330  2.7053  0.9920
  142OSM   H15C15516   3.644   1.429   6.246  0.3596 -1.2085 -1.5575
  142OSM    C1415517   3.893   1.643   6.326 -0.1689 -0.0301 -0.4428
  142OSM   H14A15518   3.917   1.718   6.400  1.2885  2.9463 -3.6797
  142OSM   H14B15519   3.887   1.693   6.230 -0.1983  0.5111 -0.1637
  142OSM   H14C15520   3.969   1.566   6.323 -1.5268 -1.3946 -1.5925
  142OSM    C1315521   3.663   1.703   6.301 -0.6032  0.1815  0.4127
  142OSM   H13A15522   3.707   1.750   6.215  1.4728 -2.1513  0.0994
  142OSM   H13B15523   3.654   1.779   6.379 -0.4351 -1.5751  2.2271
  142OSM   H13C15524   3.565   1.670   6.272 -0.9714  1.2664  0.3810
  142OSM    C1215525   3.724   1.558   6.494 -0.2705  0.4930 -0.7603
  142OSM   H12A15526   3.628   1.509   6.504 -0.3693  0.7387 -0.5164
  142OSM   H12B15527   3.714   1.653   6.544  1.1801  0.2528  0.0445
  142OSM    C1115528   3.835   1.487   6.573 -1.2795  0.9506  0.1724
  142OSM   H11A15529   3.804   1.505   6.678 -2.0977 -0.4217  0.1918
  142OSM   H11B15530   3.929   1.545   6.561  1.0707 -2.2799  1.5093
  142OSM      P15531   3.764   1.233   6.574 -0.1499  0.0908 -0.0554
  142OSM    O1315532   3.644   1.231   6.488 -0.9715  0.1592  0.8717
  142OSM    O1415533   3.834   1.101   6.581  0.0950 -0.1835  0.5293
  142OSM    O1115534   3.728   1.276   6.720 -0.1109  0.0495  0.1042
  142OSM    O1215535   3.865   1.348   6.536 -0.3499 -0.0555 -0.1219
  142OSM    C1S15536   3.840   1.263   6.817  0.1657 -0.3519 -0.1568
  142OSM    H1S15537   3.925   1.320   6.775 -0.1088 -1.8989 -3.0685
  142OSM    H1T15538   3.869   1.156   6.826  0.7257 -0.0501  2.2832
  142OSM     NF15539   3.922   1.288   7.048 -0.2104 -0.6103 -0.0146
  142OSM    HNF15540   3.916   1.213   7.114 -1.2236 -0.5496 -0.0116
  142OSM    C2S15541   3.802   1.304   6.964 -0.2695 -0.2218  0.6164
  142OSM    H2S15542   3.767   1.409   6.954 -0.8492 -0.4039  0.6525
  142OSM    C3S15543   3.678   1.227   7.016  0.2534 -0.5048 -0.1952
  142OSM    H3S15544   3.703   1.119   7.009  1.8655 -0.2681  1.3192
  142OSM     O315545   3.558   1.256   6.939  0.0076 -0.0011  0.3177
  142OSM    HO315546   3.599   1.263   6.853 -0.6453  1.2486  0.0883
  142OSM    C4S15547   3.655   1.274   7.156  0.0721 -0.0357  0.2985
  142OSM    H4S15548   3.712   1.221   7.234  1.3984  1.1053  0.1474
  142OSM    C5S15549   3.596   1.387   7.196  0.6298  0.8146 -0.1686
  142OSM    H5S15550   3.569   1.461   7.119  0.9129 -0.9613 -2.0567
  142OSM    C6S15551   3.573   1.434   7.335  0.7865  0.4865  0.3659
  142OSM    H6S15552   3.473   1.403   7.373  0.6026 -0.3211 -0.7272
  142OSM    H6T15553   3.582   1.544   7.340 -2.6542  1.0390 -2.0661
  142OSM    C7S15554   3.666   1.361   7.442 -0.2241 -0.6372  0.3142
  142OSM    H7S15555   3.770   1.357   7.404 -0.3618 -0.9790 -0.0272
  142OSM    H7T15556   3.631   1.258   7.461  1.6974 -1.2074  1.0618
  142OSM    C8S15557   3.676   1.438   7.567  0.2072  0.1126 -0.1316
  142OSM    H8S15558   3.572   1.457   7.602  0.0614  1.1005 -1.0475
  142OSM    H8T15559   3.733   1.532   7.555  1.0287 -0.1827  1.2599
  142OSM    C9S15560   3.759   1.361   7.670  1.6537  0.1928  0.7508
  142OSM    H9S15561   3.858   1.336   7.627  1.1154 -1.8099  0.5525
  142OSM    H9T15562   3.716   1.262   7.696  1.7094 -0.1099 -0.2649
  142OSM   C10S15563   3.761   1.445   7.801  0.2984  0.4439  0.2306
  142OSM   H10S15564   3.658   1.470   7.833 -0.6528  0.5779 -2.6167
  142OSM   H10T15565   3.809   1.545   7.803  0.5497  0.4436 -2.1841
  142OSM   C11S15566   3.822   1.356   7.911 -0.6676  0.2102  0.3290
  142OSM   H11S15567   3.909   1.308   7.861 -1.0514  0.2921 -0.4204
  142OSM   H11T15568   3.741   1.288   7.945  0.1198 -0.3253  1.1928
  142OSM   C12S15569   3.887   1.436   8.031 -0.6633  0.0543  0.3602
  142OSM   H12S15570   3.842   1.537   8.048 -0.9818 -0.1208  0.5526
  142OSM   H12T15571   3.995   1.458   8.014 -0.7972 -1.1442 -2.5713
  142OSM   C13S15572   3.861   1.349   8.158 -0.6495 -0.5073  0.3896
  142OSM   H13S15573   3.753   1.334   8.178 -0.6580  2.6177  3.8317
  142OSM   H13T15574   3.905   1.389   8.252  1.8814 -0.9788 -0.5220
  142OSM   C14S15575   3.931   1.213   8.152 -0.4099  0.0477 -0.3355
  142OSM   H14S15576   4.033   1.220   8.107 -1.4577 -0.9939 -3.1323
  142OSM   H14T15577   3.874   1.148   8.082  0.1334  0.6168 -1.3457
  142OSM   C15S15578   3.942   1.136   8.284 -0.2924  0.2757 -0.5424
  142OSM   H15S15579   3.998   1.044   8.258 -0.0937  0.6088 -1.3078
  142OSM   H15T15580   3.842   1.112   8.325  0.3997 -2.2847 -0.2235
  142OSM   C16S15581   4.026   1.214   8.388 -0.1486 -0.0760 -0.3221
  142OSM   H16S15582   3.972   1.303   8.427  3.8284  2.2873  0.3568
  142OSM   H16T15583   4.120   1.258   8.347  1.7745 -2.3608  1.3337
  142OSM   C17S15584   4.070   1.126   8.506  0.6791  1.0176 -0.4840
  142OSM   H17S15585   4.120   1.187   8.584  3.2077 -0.7501 -0.6119
  142OSM   H17T15586   4.130   1.041   8.467  3.7534  2.3064  1.0765
  142OSM   C18S15587   3.944   1.076   8.578  0.4598 -0.1711 -0.5209
  142OSM   H18S15588   3.885   1.005   8.517  1.2586  0.4637 -2.1069
  142OSM   H18T15589   3.885   1.165   8.608  0.8642 -0.3494  0.8728
  142OSM   H18U15590   3.982   1.017   8.663  0.4921  0.6471  0.0425
  142OSM    C1F15591   4.024   1.375   7.030  0.1372  0.9622  0.4281
  142OSM     OF15592   4.020   1.475   6.968  0.4149 -0.6121 -0.0646
  142OSM    C2F15593   4.152   1.333   7.107  0.0938  0.7654  0.5654
  142OSM    H2F15594   4.198   1.245   7.057 -1.1133 -0.3432  1.3539
  142OSM    H2G15595   4.128   1.300   7.210  0.7375  0.1362  0.5215
  142OSM    C3F15596   4.250   1.450   7.120 -0.4291  0.2813  0.0687
  142OSM    H3F15597   4.200   1.544   7.153  0.0291  0.4620  0.2586
  142OSM    H3G15598   4.299   1.481   7.025  0.7773 -0.2566  0.4922
  142OSM    C4F15599   4.366   1.427   7.231  0.0177 -0.3269  0.4258
  142OSM    H4F15600   4.445   1.503   7.215 -0.4796 -0.0248 -0.7168
  142OSM    H4G15601   4.412   1.327   7.218  0.3942 -0.4970  2.6934
  142OSM    C5F15602   4.316   1.451   7.369 -0.9591 -0.4641  1.2188
  142OSM    H5F15603   4.224   1.388   7.372 -0.2814 -2.2109 -4.0794
  142OSM    H5G15604   4.300   1.561   7.374  0.4042 -0.0116 -2.1357
  142OSM    C6F15605   4.409   1.410   7.481 -0.5943 -0.0272  0.2252
  142OSM    H6F15606   4.505   1.454   7.446 -0.2219  0.1414  1.3882
  142OSM    H6G15607   4.417   1.300   7.462  0.2556 -0.3668  2.2253
  142OSM    C7F15608   4.378   1.439   7.625 -0.1160 -0.2706  0.2381
  142OSM    H7F15609   4.367   1.549   7.642 -0.0681 -0.1655 -0.3778
  142OSM    H7G15610   4.464   1.406   7.686  1.4032  0.0526 -1.6269
  142OSM    C8F15611   4.250   1.361   7.670 -0.2969 -0.4767 -0.7320
  142OSM    H8F15612   4.271   1.261   7.627 -0.7398 -1.1866  0.6143
  142OSM    H8G15613   4.170   1.408   7.609  1.7348  2.7316 -1.1370
  142OSM    C9F15614   4.229   1.369   7.819 -0.0462 -0.3730  0.0010
  142OSM    H9F15615   4.137   1.420   7.853  0.9846  1.3757  0.2692
  142OSM   C10F15616   4.314   1.329   7.910 -0.8123  0.7948  0.3828
  142OSM   H10F15617   4.292   1.347   8.016  0.8595 -0.0735  0.9085
  142OSM   C11F15618   4.450   1.262   7.886  0.5145  0.6022  0.0581
  142OSM   H11F15619   4.540   1.326   7.898  0.5862  0.2874  1.2810
  142OSM   H11G15620   4.460   1.206   7.790  2.9759  1.0885 -0.0387
  142OSM   C12F15621   4.454   1.157   8.000  0.1821  0.6811  0.1557
  142OSM   H12F15622   4.524   1.075   7.975 -1.3491 -1.7573  3.2726
  142OSM   H12G15623   4.358   1.107   8.023  0.3225  0.7400  0.8764
  142OSM   C13F15624   4.500   1.214   8.135 -0.0357  1.1759  0.0282
  142OSM   H13F15625   4.418   1.278   8.174 -1.3377  0.3041 -1.1773
  142OSM   H13G15626   4.586   1.280   8.114 -0.3139  1.1394 -1.2749
  142OSM   C14F15627   4.535   1.101   8.237  0.2611  0.1889 -0.6067
  142OSM   H14F15628   4.581   1.141   8.329  1.8500 -5.6883  1.5971
  142OSM   H14G15629   4.601   1.021   8.199 -0.5671 -2.3270  2.8247
  142OSM   C15F15630   4.415   1.029   8.297 -0.2882  0.1257 -1.1754
  142OSM   H15F15631   4.328   1.007   8.232 -2.9135 -1.2461  2.4233
  142OSM   H15G15632   4.364   1.094   8.372  2.4993  1.2752 -0.1384
  142OSM   C16F15633   4.465   0.921   8.397  0.3898  0.2302  0.2007
  142OSM   H16F15634   4.536   0.966   8.470 -0.0849  1.4352 -0.0511
  142OSM   H16G15635   4.534   0.850   8.346 -0.2590 -0.9553  0.9499
  142OSM   C17F15636   4.349   0.847   8.470  0.2194 -0.4511  0.3083
  142OSM   H17F15637   4.387   0.744   8.489  2.6474  0.1368 -0.9007
  142OSM   H17G15638   4.249   0.846   8.422 -0.3237 -1.2847  1.4282
  142OSM   C18F15639   4.319   0.902   8.612 -0.0527 -0.2703 -0.8464
  142OSM   H18F15640   4.299   1.010   8.626 -0.6208 -0.5263  0.4676
  142OSM   H18G15641   4.405   0.879   8.679 -0.8521  2.5801  1.3505
  142OSM   H18H15642   4.235   0.844   8.656  0.6937 -0.9256 -0.2600
  143OSM      N15643   6.602   3.843   6.016 -0.4419  0.6000  0.3884
  143OSM    C1515644   6.462   3.880   6.022 -0.9481 -0.3629  0.7789
  143OSM   H15A15645   6.447   3.932   6.116 -1.3786 -0.2786  0.6632
  143OSM   H15B15646   6.400   3.792   6.015  0.5900 -1.3873 -1.3101
  143OSM   H15C15647   6.440   3.947   5.941 -0.0676  0.3686  1.1245
  143OSM    C1415648   6.624   3.727   6.108 -0.3562 -0.4188  0.1162
  143OSM   H14A15649   6.555   3.650   6.075 -2.9253  2.9041 -3.0322
  143OSM   H14B15650   6.592   3.747   6.209 -3.8504  1.5297 -1.1882
  143OSM   H14C15651   6.725   3.690   6.097  0.3472  1.6388 -0.7195
  143OSM    C1315652   6.631   3.796   5.874 -0.2259 -0.0411 -0.4384
  143OSM   H13A15653   6.728   3.753   5.860 -0.3425 -0.5174  0.1715
  143OSM   H13B15654   6.623   3.882   5.808 -4.0117 -0.5230 -0.8337
  143OSM   H13C15655   6.552   3.726   5.850  0.0211 -0.7986  0.8857
  143OSM    C1215656   6.686   3.959   6.057 -0.1404 -0.4021 -0.2353
  143OSM   H12A15657   6.662   4.043   5.992  0.6130  1.2546  1.5202
  143OSM   H12B15658   6.790   3.933   6.041  0.1789 -0.2216  1.4009
  143OSM    C1115659   6.670   4.001   6.209  0.0265  0.5273  0.0796
  143OSM   H11A15660   6.745   4.082   6.222  2.8930 -1.3253 -3.1879
  143OSM   H11B15661   6.715   3.919   6.269 -0.7694  0.5499  0.7304
  143OSM      P15662   6.470   3.999   6.389  0.3058  0.2132 -0.0191
  143OSM    O1315663   6.335   4.062   6.385  0.0584  0.2342  0.0197
  143OSM    O1415664   6.475   3.850   6.401  0.2910 -0.5657  0.0485
  143OSM    O1115665   6.565   4.065   6.495  0.2607  0.4650 -0.2868
  143OSM    O1215666   6.540   4.038   6.252 -0.3508  0.4851 -0.2528
  143OSM    C1S15667   6.499   4.113   6.610 -0.2047 -0.2286 -0.7562
  143OSM    H1S15668   6.440   4.038   6.667 -1.1684  0.1475 -1.2232
  143OSM    H1T15669   6.439   4.205   6.591 -0.7574 -0.4620 -0.1761
  143OSM     NF15670   6.549   4.179   6.839  0.0314 -0.4098  0.1455
  143OSM    HNF15671   6.492   4.260   6.851 -0.5832 -0.9790  1.3428
  143OSM    C2S15672   6.607   4.163   6.707  0.1783  0.1333 -0.9913
  143OSM    H2S15673   6.692   4.093   6.723  0.6212  1.2864  2.3358
  143OSM    C3S15674   6.667   4.293   6.647 -0.5012 -0.1087 -0.6290
  143OSM    H3S15675   6.582   4.361   6.627 -1.8268 -1.1807  1.1465
  143OSM     O315676   6.747   4.268   6.533 -0.1740  0.1754 -0.1281
  143OSM    HO315677   6.727   4.177   6.509  3.0101  0.0649 -3.0547
  143OSM    C4S15678   6.763   4.351   6.750 -1.0563 -0.2647  0.0244
  143OSM    H4S15679   6.838   4.274   6.771 -1.4413 -0.6784 -0.0919
  143OSM    C5S15680   6.769   4.467   6.816 -0.1213 -0.7434 -0.1467
  143OSM    H5S15681   6.699   4.550   6.799  1.7195  0.8206 -0.4526
  143OSM    C6S15682   6.875   4.500   6.915 -0.0535  0.4137 -0.1713
  143OSM    H6S15683   6.885   4.610   6.925 -1.9002  0.6490 -0.4722
  143OSM    H6T15684   6.973   4.455   6.889 -1.4225 -0.8996 -3.5946
  143OSM    C7S15685   6.837   4.466   7.060  0.3128  0.6041 -0.6538
  143OSM    H7S15686   6.829   4.357   7.081  1.9409  0.6110  0.1518
  143OSM    H7T15687   6.734   4.501   7.084  0.8552  1.4224  0.5634
  143OSM    C8S15688   6.922   4.533   7.168 -0.2117  0.2638 -0.2777
  143OSM    H8S15689   6.908   4.643   7.168 -0.3923  0.2417 -0.1928
  143OSM    H8T15690   7.030   4.531   7.143 -0.1594  1.6183 -0.2358
  143OSM    C9S15691   6.907   4.478   7.310 -0.1360  0.0971  0.0276
  143OSM    H9S15692   6.975   4.537   7.376  0.1947  0.9646 -1.0561
  143OSM    H9T15693   6.946   4.375   7.321 -0.9381 -0.3657 -1.3151
  143OSM   C10S15694   6.768   4.461   7.362 -0.1832  0.6421  0.5556
  143OSM   H10S15695   6.719   4.406   7.278  1.1585  0.2981 -0.0324
  143OSM   H10T15696   6.721   4.562   7.361  0.3438  0.9038  1.4060
  143OSM   C11S15697   6.744   4.395   7.498  0.0949 -0.1672  0.3077
  143OSM   H11S15698   6.799   4.299   7.492  2.1951  1.0452 -1.1614
  143OSM   H11T15699   6.634   4.388   7.512  0.2515  0.2245  2.0040
  143OSM   C12S15700   6.822   4.477   7.606 -0.9765  0.8434 -0.8437
  143OSM   H12S15701   6.788   4.583   7.609 -2.2225  0.4467  1.4972
  143OSM   H12T15702   6.932   4.469   7.593 -0.7245 -1.4870  1.8135
  143OSM   C13S15703   6.797   4.430   7.758 -0.0168 -0.0366  0.3069
  143OSM   H13S15704   6.868   4.347   7.777  1.7095  1.1382 -0.7278
  143OSM   H13T15705   6.694   4.391   7.759  0.8923 -2.6187  0.5761
  143OSM   C14S15706   6.815   4.544   7.862 -0.5159  0.1955 -0.3437
  143OSM   H14S15707   6.760   4.632   7.823  0.3303  0.3210 -1.2887
  143OSM   H14T15708   6.922   4.572   7.873 -0.8646  0.6817  2.3705
  143OSM   C15S15709   6.753   4.507   8.001  0.0973  0.6629 -0.4631
  143OSM   H15S15710   6.803   4.416   8.041  0.1889  0.0882 -1.8030
  143OSM   H15T15711   6.648   4.477   7.983  0.8298 -0.7657 -2.8867
  143OSM   C16S15712   6.767   4.630   8.096 -0.3835 -0.3556  0.1343
  143OSM   H16S15713   6.688   4.703   8.068  0.6640 -0.0936 -2.3858
  143OSM   H16T15714   6.865   4.682   8.093 -0.1916 -0.7509 -1.9118
  143OSM   C17S15715   6.740   4.591   8.239  0.0657 -0.5359  0.0915
  143OSM   H17S15716   6.821   4.523   8.273  0.6391 -0.3864 -0.9416
  143OSM   H17T15717   6.645   4.534   8.245  0.2368 -0.8815 -0.4257
  143OSM   C18S15718   6.720   4.714   8.327  0.3627 -0.0689 -0.3236
  143OSM   H18S15719   6.702   4.678   8.431 -1.9623  1.3089 -0.1660
  143OSM   H18T15720   6.624   4.763   8.298 -1.1063 -1.5226  1.7428
  143OSM   H18U15721   6.811   4.777   8.329  2.1511 -2.5185 -0.5053
  143OSM    C1F15722   6.548   4.081   6.927  0.0468  0.3989 -0.1973
  143OSM     OF15723   6.608   3.978   6.904  0.3867  0.4159 -0.2587
  143OSM    C2F15724   6.472   4.105   7.047  0.1748 -0.4370  0.1119
  143OSM    H2F15725   6.377   4.047   7.044  0.3411 -0.6737 -1.0898
  143OSM    H2G15726   6.438   4.211   7.045  1.0756 -0.1035  1.4803
  143OSM    C3F15727   6.564   4.081   7.167 -0.2808 -0.7359 -0.3685
  143OSM    H3F15728   6.656   4.142   7.155 -1.5730  1.8580  1.6786
  143OSM    H3G15729   6.596   3.976   7.155  0.5985 -0.4669 -0.4701
  143OSM    C4F15730   6.489   4.097   7.297 -0.2923 -0.1095  0.0066
  143OSM    H4F15731   6.396   4.038   7.287 -0.0919 -0.6677  1.2727
  143OSM    H4G15732   6.462   4.204   7.315  3.0446  1.1539 -1.6075
  143OSM    C5F15733   6.578   4.037   7.410 -0.4940 -0.1894 -0.0594
  143OSM    H5F15734   6.650   4.122   7.414 -3.1723  2.3155 -1.3538
  143OSM    H5G15735   6.627   3.939   7.393 -2.1217 -1.1650  0.7379
  143OSM    C6F15736   6.499   4.018   7.538 -0.0264 -0.0850  0.7611
  143OSM    H6F15737   6.422   3.938   7.535  1.6898 -1.8705  1.7605
  143OSM    H6G15738   6.445   4.113   7.559  1.3796  0.8628  0.2325
  143OSM    C7F15739   6.598   3.984   7.653 -0.0555 -0.0078  0.8928
  143OSM    H7F15740   6.685   4.053   7.643  2.3367 -3.0434 -1.0879
  143OSM    H7G15741   6.637   3.881   7.638 -1.2168 -0.4761  0.9606
  143OSM    C8F15742   6.522   3.991   7.786  0.6776 -0.1981 -0.3347
  143OSM    H8F15743   6.588   3.951   7.866  0.4588  0.2647  0.0894
  143OSM    H8G15744   6.440   3.920   7.763 -0.1185  1.0077 -1.4040
  143OSM    C9F15745   6.457   4.122   7.834 -0.4966  0.9908 -0.7846
  143OSM    H9F15746   6.385   4.167   7.765 -3.6477  0.1225  1.7194
  143OSM   C10F15747   6.481   4.185   7.945  0.6254  0.1892 -0.7400
  143OSM   H10F15748   6.418   4.271   7.972  0.7921  0.7681 -2.1297
  143OSM   C11F15749   6.571   4.145   8.060  0.1802 -0.4211 -0.0563
  143OSM   H11F15750   6.677   4.137   8.026 -0.4610 -0.1092 -2.3229
  143OSM   H11G15751   6.539   4.042   8.086 -1.0404 -0.4352 -1.4921
  143OSM   C12F15752   6.557   4.230   8.185  0.1226 -0.0893  0.3018
  143OSM   H12F15753   6.456   4.228   8.232  0.4717  4.4561  1.6624
  143OSM   H12G15754   6.576   4.333   8.151  0.8205 -0.5759 -0.8376
  143OSM   C13F15755   6.659   4.184   8.298  0.3338 -0.2939  0.5754
  143OSM   H13F15756   6.762   4.171   8.258  0.7684 -0.4422  1.7250
  143OSM   H13G15757   6.631   4.080   8.328  1.3361 -1.0441 -0.9236
  143OSM   C14F15758   6.653   4.259   8.426 -0.6901  0.3146 -0.0693
  143OSM   H14F15759   6.703   4.358   8.425 -0.1158  0.0166 -0.8379
  143OSM   H14G15760   6.719   4.202   8.495  1.1297 -0.6994 -2.5232
  143OSM   C15F15761   6.509   4.269   8.476  0.3196 -0.0668  0.1686
  143OSM   H15F15762   6.466   4.169   8.455 -4.6769  1.8048  0.1351
  143OSM   H15G15763   6.452   4.324   8.399  0.6874  0.6888  0.4201
  143OSM   C16F15764   6.489   4.316   8.625  0.7595  0.4098  0.2195
  143OSM   H16F15765   6.534   4.240   8.692  0.2488 -0.4098 -0.3465
  143OSM   H16G15766   6.378   4.310   8.630  0.8845 -0.8239  2.8824
  143OSM   C17F15767   6.542   4.458   8.646 -0.0219 -0.1647  0.1804
  143OSM   H17F15768   6.472   4.529   8.598 -0.5828 -0.8192  0.0318
  143OSM   H17G15769   6.634   4.468   8.585 -1.1042 -2.3169 -1.9297
  143OSM   C18F15770   6.561   4.504   8.790  0.2456 -0.0221 -0.3976
  143OSM   H18F15771   6.663   4.485   8.830  0.2208  1.3538  0.3608
  143OSM   H18G15772   6.491   4.455   8.861 -0.0382  0.2390 -0.4941
  143OSM   H18H15773   6.545   4.613   8.798  1.0554  0.1331 -0.8311
  144OSM      N15774   5.205   1.496   5.959 -0.1559  0.1395  0.0207
  144OSM    C1515775   5.295   1.529   5.843  0.4752 -0.5157 -0.9049
  144OSM   H15A15776   5.392   1.559   5.879  0.7531 -0.7096 -1.4733
  144OSM   H15B15777   5.233   1.594   5.782 -3.6706 -3.5814 -0.4466
  144OSM   H15C15778   5.311   1.443   5.780  1.8396 -1.5856  0.8075
  144OSM    C1415779   5.081   1.431   5.925  0.7484  0.4898 -0.0359
  144OSM   H14A15780   5.094   1.358   5.846 -0.7432  1.7875 -1.5819
  144OSM   H14B15781   5.006   1.505   5.898 -1.5017 -2.0636 -1.2854
  144OSM   H14C15782   5.036   1.386   6.012 -1.4060 -1.2660 -1.9176
  144OSM    C1315783   5.282   1.409   6.053 -0.2811 -0.0553  1.2378
  144OSM   H13A15784   5.362   1.472   6.086 -0.5604  3.0922 -3.1761
  144OSM   H13B15785   5.321   1.322   6.002  0.6829  1.0065  0.1065
  144OSM   H13C15786   5.227   1.366   6.136 -1.5200  1.8106  1.4373
  144OSM    C1215787   5.171   1.627   6.036 -0.2965 -0.2718 -0.0340
  144OSM   H12A15788   5.095   1.671   5.973 -0.6365  0.0100  0.5642
  144OSM   H12B15789   5.258   1.691   6.042 -1.2986  1.2995 -1.2585
  144OSM    C1115790   5.100   1.615   6.180 -1.0213  0.3586  0.7034
  144OSM   H11A15791   5.090   1.719   6.218 -0.7894 -0.0467  1.9120
  144OSM   H11B15792   5.176   1.556   6.236 -0.9396 -2.9891 -2.5114
  144OSM      P15793   4.904   1.485   6.310  0.4254 -0.2271  0.0242
  144OSM    O1315794   4.757   1.474   6.278  0.3284  0.3616  0.0790
  144OSM    O1415795   4.971   1.363   6.364 -0.1444 -0.4009 -0.0781
  144OSM    O1115796   4.916   1.599   6.411  0.7261  0.2666 -0.0392
  144OSM    O1215797   4.980   1.540   6.175  0.0435 -0.2216 -0.1149
  144OSM    C1S15798   4.806   1.619   6.509  0.0691  0.4721  0.3135
  144OSM    H1S15799   4.753   1.521   6.511  1.1573 -0.2516 -1.9404
  144OSM    H1T15800   4.728   1.679   6.459 -1.5513 -2.2447 -0.6372
  144OSM     NF15801   4.741   1.641   6.743  0.1054  0.2900 -0.8780
  144OSM    HNF15802   4.678   1.711   6.777  0.3163 -0.2832  0.7678
  144OSM    C2S15803   4.841   1.679   6.645 -1.1619 -0.6516 -0.1432
  144OSM    H2S15804   4.935   1.631   6.678 -0.3602  1.5764  1.0746
  144OSM    C3S15805   4.883   1.831   6.623  0.3748  0.2589  0.2023
  144OSM    H3S15806   4.789   1.884   6.596  0.7106  1.1219  0.6728
  144OSM     O315807   4.983   1.852   6.527  0.4785  0.5374 -0.2552
  144OSM    HO315808   4.994   1.765   6.489 -1.2075 -0.2179  0.8814
  144OSM    C4S15809   4.933   1.894   6.748  0.0025  0.2560  0.0886
  144OSM    H4S15810   4.973   1.826   6.824  1.5922  2.5216  1.4033
  144OSM    C5S15811   4.947   2.033   6.766  0.5549 -0.6053 -0.1211
  144OSM    H5S15812   4.915   2.100   6.685 -2.6159 -1.0449  0.6498
  144OSM    C6S15813   5.006   2.094   6.888 -0.1621 -0.5028 -0.5440
  144OSM    H6S15814   5.028   2.203   6.878  0.1911 -0.4311  0.8012
  144OSM    H6T15815   5.105   2.045   6.897  0.3497  0.8445  2.2470
  144OSM    C7S15816   4.930   2.085   7.016 -0.0356 -0.4502 -0.1036
  144OSM    H7S15817   4.907   1.978   7.037 -1.0756 -0.6300 -2.0156
  144OSM    H7T15818   4.835   2.143   7.013 -1.5424 -2.7863  0.0458
  144OSM    C8S15819   5.015   2.133   7.133  0.3588 -0.4350 -0.1052
  144OSM    H8S15820   5.086   2.213   7.103 -0.6308  0.1597 -0.9708
  144OSM    H8T15821   5.076   2.056   7.183  0.8524 -0.6295 -0.9980
  144OSM    C9S15822   4.930   2.202   7.236 -0.0232 -0.1684 -0.4840
  144OSM    H9S15823   4.857   2.128   7.277  0.2067 -0.5010 -0.6687
  144OSM    H9T15824   4.877   2.268   7.164  1.0066 -2.0973 -3.1946
  144OSM   C10S15825   5.015   2.275   7.329 -0.0492  0.3738 -0.0485
  144OSM   H10S15826   5.069   2.357   7.276 -1.6763  1.4301 -0.1391
  144OSM   H10T15827   5.094   2.203   7.360 -0.9882 -0.4459  0.4949
  144OSM   C11S15828   4.927   2.323   7.448  0.0300 -0.3838 -0.7629
  144OSM   H11S15829   4.848   2.253   7.481 -0.2330  0.6472  0.8910
  144OSM   H11T15830   4.866   2.412   7.419 -0.2390  0.9594  3.2620
  144OSM   C12S15831   5.007   2.363   7.575  0.2958 -0.1758 -0.1720
  144OSM   H12S15832   5.078   2.440   7.538  0.9944 -0.8239 -0.2244
  144OSM   H12T15833   5.080   2.282   7.599  2.2158  1.2254 -1.0443
  144OSM   C13S15834   4.925   2.396   7.696  0.5050 -0.0997  0.1899
  144OSM   H13S15835   4.881   2.297   7.721  4.2045 -2.2204 -0.9551
  144OSM   H13T15836   4.847   2.469   7.668  1.9226  0.7927 -1.6601
  144OSM   C14S15837   5.002   2.445   7.816 -0.3064 -0.7888  0.5967
  144OSM   H14S15838   5.062   2.531   7.780 -2.0100  0.6221  0.9605
  144OSM   H14T15839   5.065   2.360   7.850  1.3337 -0.7013 -1.9206
  144OSM   C15S15840   4.906   2.489   7.935  0.2430  0.4562  0.0008
  144OSM   H15S15841   4.839   2.405   7.961  0.9303  0.2285  1.0818
  144OSM   H15T15842   4.851   2.572   7.886 -1.3976 -0.0681  0.9101
  144OSM   C16S15843   4.966   2.555   8.059 -0.2970  0.0438 -0.0485
  144OSM   H16S15844   4.887   2.574   8.134  0.0307 -2.9006  1.1693
  144OSM   H16T15845   5.006   2.655   8.031  0.7143 -0.5345 -0.7520
  144OSM   C17S15846   5.085   2.485   8.136  0.0484 -0.4539 -0.8753
  144OSM   H17S15847   5.166   2.560   8.148 -1.7279  1.5323 -0.6087
  144OSM   H17T15848   5.130   2.394   8.091  1.6298 -1.2573  2.0799
  144OSM   C18S15849   5.048   2.446   8.280  0.1409  0.0005  0.3050
  144OSM   H18S15850   4.963   2.375   8.281 -1.8347  2.2242 -0.1704
  144OSM   H18T15851   5.011   2.543   8.321 -0.8439  0.2894 -1.2156
  144OSM   H18U15852   5.134   2.401   8.334  1.9360  2.0949 -0.6409
  144OSM    C1F15853   4.724   1.512   6.780  0.3560  0.6065  0.1102
  144OSM     OF15854   4.816   1.428   6.764 -0.0223 -0.2439 -0.0012
  144OSM    C2F15855   4.595   1.463   6.837  0.3692 -0.2369  0.5245
  144OSM    H2F15856   4.511   1.512   6.784 -0.7183 -1.5286  0.9917
  144OSM    H2G15857   4.574   1.502   6.938 -1.8503 -0.0207  0.0326
  144OSM    C3F15858   4.587   1.311   6.816 -0.5480  0.4170 -0.0835
  144OSM    H3F15859   4.661   1.260   6.882 -0.0362 -0.2009 -1.1031
  144OSM    H3G15860   4.595   1.286   6.708 -0.6655  1.4711 -0.3455
  144OSM    C4F15861   4.442   1.265   6.850  0.4633  0.1408 -0.2215
  144OSM    H4F15862   4.366   1.318   6.790 -2.1736 -1.8745  1.1473
  144OSM    H4G15863   4.419   1.276   6.958 -0.5153 -2.3310 -0.1231
  144OSM    C5F15864   4.425   1.116   6.828 -0.2257  0.2053  0.5488
  144OSM    H5F15865   4.435   1.102   6.718  1.5107  1.5848  0.4821
  144OSM    H5G15866   4.327   1.092   6.875  0.5162  1.4941  2.9343
  144OSM    C6F15867   4.530   1.018   6.893  0.3289 -0.8504 -0.6012
  144OSM    H6F15868   4.633   1.061   6.892 -0.6718  1.7782 -2.5119
  144OSM    H6G15869   4.538   0.923   6.836  1.2645 -1.7698  0.9964
  144OSM    C7F15870   4.492   0.955   7.027  0.4746 -0.0945  0.1605
  144OSM    H7F15871   4.525   0.851   7.043 -2.0738 -1.3018 -1.6904
  144OSM    H7G15872   4.383   0.938   7.032  0.7219 -1.5091  0.9651
  144OSM    C8F15873   4.539   1.036   7.154  0.1712  0.2615  0.3408
  144OSM    H8F15874   4.478   0.999   7.239 -1.6258  0.1186 -0.9607
  144OSM    H8G15875   4.498   1.139   7.142  0.1679 -0.0026 -2.5812
  144OSM    C9F15876   4.687   1.062   7.163 -0.0439  0.5269 -0.2586
  144OSM    H9F15877   4.729   1.141   7.099  0.0640  1.1230  0.5354
  144OSM   C10F15878   4.766   1.001   7.252  0.5609  0.1325 -0.8435
  144OSM   H10F15879   4.872   1.029   7.262  1.3229 -2.9572  1.2248
  144OSM   C11F15880   4.712   0.901   7.356  0.2426  0.0046 -0.1196
  144OSM   H11F15881   4.763   0.804   7.343  0.8555  0.3112 -0.0577
  144OSM   H11G15882   4.604   0.894   7.379 -0.6564  4.0765 -2.0792
  144OSM   C12F15883   4.776   0.962   7.485 -0.0104  0.9560  0.1574
  144OSM   H12F15884   4.723   1.055   7.516  0.9646  1.3049  0.8113
  144OSM   H12G15885   4.886   0.972   7.484  0.2012 -0.9617  0.6183
  144OSM   C13F15886   4.758   0.854   7.595  0.4258 -0.0274 -0.3238
  144OSM   H13F15887   4.796   0.759   7.550  0.8046  0.3864 -0.8912
  144OSM   H13G15888   4.652   0.849   7.630  0.4501  1.3553  0.0078
  144OSM   C14F15889   4.838   0.877   7.721  0.6016 -0.1864  0.0751
  144OSM   H14F15890   4.811   0.978   7.759 -0.2990 -0.9411  1.5130
  144OSM   H14G15891   4.942   0.867   7.683  0.9425  0.5461  0.7939
  144OSM   C15F15892   4.829   0.768   7.825  0.3869 -0.0931 -0.0551
  144OSM   H15F15893   4.886   0.681   7.787  2.2873  1.4908 -1.0818
  144OSM   H15G15894   4.723   0.742   7.846  0.4953 -0.8705 -0.4486
  144OSM   C16F15895   4.918   0.804   7.949 -0.0867 -0.2085  0.2979
  144OSM   H16F15896   4.892   0.908   7.979  0.2209  0.1650 -0.6710
  144OSM   H16G15897   5.027   0.805   7.927 -0.0861 -0.1919  0.3020
  144OSM   C17F15898   4.882   0.728   8.073  0.3534  0.0109  0.0698
  144OSM   H17F15899   4.967   0.737   8.144 -0.5704  4.0336  0.8731
  144OSM   H17G15900   4.877   0.620   8.046 -3.4183 -0.2986  1.3836
  144OSM   C18F15901   4.760   0.777   8.139 -0.4561 -0.0512  0.2493
  144OSM   H18F15902   4.734   0.719   8.230  0.5098 -1.7075 -0.4948
  144OSM   H18G15903   4.683   0.767   8.060  0.5823 -1.6783 -0.6074
  144OSM   H18H15904   4.775   0.885   8.161  1.9258 -0.3992  0.6343
  145SAPE     N15905   3.520   3.410  10.787 -0.1245  0.0840 -0.1531
  145SAPE   HN115906   3.419   3.389  10.797  0.1056 -0.1189  2.9987
  145SAPE   HN215907   3.528   3.507  10.825  1.5100 -0.0223 -0.1461
  145SAPE   HN315908   3.555   3.418  10.690  0.2619 -0.0811 -0.0303
  145SAPE   C1215909   3.592   3.321  10.875 -0.2932  0.5130  0.5344
  145SAPE  H12A15910   3.528   3.288  10.959 -0.2355 -1.5051 -0.1509
  145SAPE  H12B15911   3.682   3.376  10.907  0.1280  1.9317 -2.6512
  145SAPE   C1115912   3.646   3.199  10.795  0.3201  0.2614  0.1410
  145SAPE  H11A15913   3.565   3.149  10.738  1.2690 -1.1729  0.0016
  145SAPE  H11B15914   3.682   3.122  10.866  0.4927 -0.6456 -0.9121
  145SAPE     P15915   3.900   3.244  10.769 -0.1625  0.1241  0.5068
  145SAPE   O1315916   3.903   3.160  10.891  0.2000 -0.5377 -0.3234
  145SAPE   O1415917   4.006   3.210  10.670 -0.1434  0.2315  0.2315
  145SAPE   O1215918   3.752   3.236  10.702 -0.2628 -0.0989 -0.9196
  145SAPE   O1115919   3.924   3.398  10.802  0.6935 -0.4405 -0.7785
  145SAPE    C115920   3.861   3.501  10.723  0.0706  0.1752 -0.6019
  145SAPE    HA15921   3.750   3.500  10.719  0.0900 -0.0165 -3.2827
  145SAPE    HB15922   3.894   3.598  10.767  0.7893  0.7708 -2.3544
  145SAPE    C215923   3.906   3.506  10.570  0.2776 -0.2814  0.9776
  145SAPE    HS15924   3.876   3.412  10.518 -0.0461 -0.1357  0.8995
  145SAPE   O2115925   4.050   3.523  10.569  0.3135 -0.4188 -0.3120
  145SAPE   C2115926   4.110   3.471  10.468 -0.2156 -0.0727  0.5913
  145SAPE   O2215927   4.059   3.414  10.376  0.7447  0.0503 -0.5676
  145SAPE   C2215928   4.258   3.498  10.463 -0.5718  0.5577 -0.4246
  145SAPE   H2R15929   4.304   3.442  10.547  2.1884  0.0876 -2.1033
  145SAPE   H2S15930   4.308   3.441  10.382  0.2735 -2.0109  1.7402
  145SAPE    C315931   3.850   3.631  10.495 -0.3444  0.3949  0.3965
  145SAPE    HX15932   3.892   3.714  10.556 -0.3823 -0.6910  1.9575
  145SAPE    HY15933   3.740   3.635  10.502 -0.2694  2.0333  1.1578
  145SAPE   O3115934   3.901   3.634  10.359  0.8112  0.4410 -0.2608
  145SAPE   C3115935   3.828   3.568  10.263  0.2385  0.5807 -0.4132
  145SAPE   O3215936   3.718   3.516  10.293 -0.1010 -0.5061  0.5067
  145SAPE   C3215937   3.903   3.566  10.133  0.1836 -0.1030 -0.9974
  145SAPE   H2X15938   3.990   3.506  10.165 -1.8790 -1.6380  2.2902
  145SAPE   H2Y15939   3.921   3.670  10.098  0.8254 -0.3248 -1.3322
  145SAPE   C2315940   4.287   3.649  10.465 -0.1612 -0.7091  0.3440
  145SAPE   H3R15941   4.392   3.651  10.502  0.1832 -0.2132 -0.6189
  145SAPE   H3S15942   4.233   3.711  10.540  0.9795  2.0615 -0.9985
  145SAPE   C2415943   4.271   3.710  10.325  0.4282  0.3307  0.2655
  145SAPE   H4R15944   4.291   3.819  10.331 -0.1724  0.5260 -0.9650
  145SAPE   H4S15945   4.163   3.699  10.302  0.3904 -1.1909  1.0005
  145SAPE   C2515946   4.360   3.648  10.220 -0.0161 -0.2657  0.3939
  145SAPE   H5R15947   4.458   3.620  10.262  0.9716  2.3186 -0.0211
  145SAPE   C2615948   4.342   3.648  10.088  0.1460  0.6404 -1.0926
  145SAPE   H6R15949   4.430   3.611  10.033  0.4551  2.3935 -1.8477
  145SAPE   C2715950   4.227   3.706  10.007 -1.3413  0.2419  0.3678
  145SAPE   H7R15951   4.204   3.803  10.055 -2.7035  0.3415 -0.4292
  145SAPE   H7S15952   4.139   3.638  10.004 -0.5142 -0.9037  1.1377
  145SAPE   C2815953   4.268   3.751   9.868  0.9450  0.2368 -0.0540
  145SAPE   H8R15954   4.241   3.854   9.841 -0.3418  0.2918  1.3397
  145SAPE   C2915955   4.319   3.677   9.765  0.7850  0.6693  0.3921
  145SAPE   H9R15956   4.332   3.728   9.668 -1.2883  1.1326  0.3057
  145SAPE  C21015957   4.343   3.530   9.756 -0.7259 -0.0976 -0.5659
  145SAPE  H10R15958   4.310   3.488   9.659 -0.7388 -1.3723 -0.0341
  145SAPE  H10S15959   4.304   3.468   9.840 -0.0724 -0.1872 -0.3205
  145SAPE  C21115960   4.491   3.510   9.773  0.5098 -0.2433  0.2069
  145SAPE  H11R15961   4.543   3.585   9.835 -0.9504  0.1456  1.0068
  145SAPE  C21215962   4.566   3.416   9.711 -0.5994  0.5312 -0.3182
  145SAPE  H12R15963   4.674   3.409   9.733 -0.6320 -0.3584 -0.4264
  145SAPE  C21315964   4.518   3.307   9.615  0.5693 -0.5064  0.9318
  145SAPE  H13R15965   4.415   3.280   9.645  0.4534  2.7086  4.1042
  145SAPE  H13S15966   4.580   3.216   9.627 -1.3020 -1.7909  1.1756
  145SAPE  C21415967   4.531   3.365   9.473 -0.0098 -0.1363 -0.2417
  145SAPE  H14R15968   4.556   3.472   9.472  3.1959 -0.5847  3.9457
  145SAPE  C21515969   4.507   3.303   9.359 -0.5630  0.0528 -0.3381
  145SAPE  H15R15970   4.516   3.363   9.267  0.1303  0.2666 -0.1350
  145SAPE  C21615971   4.468   3.161   9.329  0.0285 -0.1587 -0.2594
  145SAPE  H16R15972   4.395   3.161   9.246 -1.8387 -1.6864  1.2688
  145SAPE  H16S15973   4.415   3.107   9.411 -0.7157  1.0553  0.0899
  145SAPE  C21715974   4.586   3.080   9.294  0.7029  0.4435 -0.9346
  145SAPE  H17R15975   4.645   3.133   9.217  0.5333  2.1716  0.0585
  145SAPE  H17S15976   4.549   2.985   9.249 -1.2432  1.5109 -1.6857
  145SAPE  C21815977   4.670   3.044   9.417 -0.5733 -0.1131 -1.1360
  145SAPE  H18R15978   4.608   3.008   9.503  1.6930  0.3017  0.7712
  145SAPE  H18S15979   4.741   3.126   9.438 -1.8837  0.5082  1.2496
  145SAPE  C21915980   4.756   2.925   9.382  0.3443  0.7480 -0.0073
  145SAPE  H19R15981   4.807   2.950   9.286 -0.5597 -0.2752 -0.7776
  145SAPE  H19S15982   4.695   2.832   9.378 -0.5676  1.2844  1.0071
  145SAPE  C22015983   4.862   2.906   9.492  0.2888  1.1335 -0.2071
  145SAPE  H20R15984   4.816   2.899   9.593 -1.1330  2.1532 -0.7521
  145SAPE  H20S15985   4.940   2.984   9.504  0.8286  0.3178  2.0456
  145SAPE  H20T15986   4.923   2.815   9.478 -1.7328 -0.2168 -0.6816
  145SAPE   C3315987   3.828   3.493  10.015 -0.3152 -0.5511  0.5111
  145SAPE   H3X15988   3.726   3.535  10.002  0.0142 -0.2604 -1.5514
  145SAPE   H3Y15989   3.816   3.383  10.022 -2.4326 -0.4694 -1.0636
  145SAPE   C3415990   3.899   3.515   9.880  0.0171  0.3128 -0.2060
  145SAPE   H4X15991   4.002   3.475   9.892  0.8252  1.5286 -2.4775
  145SAPE   H4Y15992   3.894   3.624   9.859 -0.8958  0.1905 -0.6900
  145SAPE   C3515993   3.819   3.443   9.765  0.1083 -0.8589  0.0925
  145SAPE   H5X15994   3.731   3.510   9.759 -0.2797 -0.6829  4.5119
  145SAPE   H5Y15995   3.787   3.338   9.785  2.3785 -1.9582 -1.4449
  145SAPE   C3615996   3.892   3.442   9.624 -0.2653  0.1820  0.4027
  145SAPE   H6X15997   3.962   3.358   9.604 -1.0626  0.3071 -4.0222
  145SAPE   H6Y15998   3.948   3.536   9.601 -2.1055  1.2530  0.1568
  145SAPE   C3715999   3.783   3.438   9.506 -0.2851  0.2842 -0.0915
  145SAPE   H7X16000   3.699   3.505   9.535 -0.0661  0.2052  0.7479
  145SAPE   H7Y16001   3.742   3.335   9.501 -0.0479  0.2108 -0.6946
  145SAPE   C3816002   3.840   3.475   9.362 -0.1881  0.2037 -0.6827
  145SAPE   H8X16003   3.857   3.584   9.374  2.2733 -0.0347 -1.5897
  145SAPE   H8Y16004   3.769   3.464   9.277  1.9988 -0.0977 -2.5686
  145SAPE   C3916005   3.966   3.392   9.323 -0.9561 -0.5352 -0.2867
  145SAPE   H9X16006   3.934   3.286   9.318 -0.6117 -0.7083  0.8888
  145SAPE   H9Y16007   4.037   3.416   9.405 -2.0969  1.8328  0.1030
  145SAPE  C31016008   4.019   3.427   9.188  0.4372  0.0166 -0.4370
  145SAPE  H10X16009   4.120   3.380   9.191  0.5372  0.2313 -0.4638
  145SAPE  H10Y16010   4.027   3.536   9.169 -2.1288  0.0138 -1.9135
  145SAPE  C31116011   3.937   3.369   9.073  0.3157  0.6783  0.9836
  145SAPE  H11X16012   3.835   3.411   9.085 -0.2642 -0.5821  0.5767
  145SAPE  H11Y16013   3.938   3.258   9.073 -5.6460  0.3075 -0.6318
  145SAPE  C31216014   3.987   3.421   8.940  0.0426  0.4415  0.2986
  145SAPE  H12X16015   4.094   3.395   8.923 -0.0500 -0.0601  0.4507
  145SAPE  H12Y16016   3.983   3.532   8.940 -2.8042  0.3971 -0.0761
  145SAPE  C31316017   3.900   3.366   8.827  0.0901 -0.0530  0.1497
  145SAPE  H13X16018   3.796   3.403   8.840  0.0680  0.2757 -0.8691
  145SAPE  H13Y16019   3.906   3.255   8.833  1.3979 -0.0753 -0.9503
  145SAPE  C31416020   3.949   3.397   8.684 -0.2889 -0.5888  0.0862
  145SAPE  H14X16021   4.056   3.367   8.672 -0.0867  0.3573 -0.5643
  145SAPE  H14Y16022   3.948   3.507   8.667 -1.5793 -0.8851 -1.9797
  145SAPE  C31516023   3.874   3.325   8.567  0.2800  0.0104  0.0727
  145SAPE  H15X16024   3.812   3.237   8.596 -0.4415 -0.1080 -1.7141
  145SAPE  H15Y16025   3.950   3.269   8.508 -0.8982 -0.3657 -1.1267
  145SAPE  C31616026   3.813   3.416   8.461 -0.0358 -0.3197 -0.5479
  145SAPE  H16X16027   3.892   3.485   8.425 -0.8480 -0.0501 -1.8833
  145SAPE  H16Y16028   3.735   3.481   8.507  1.9326  2.0689 -0.3539
  145SAPE  C31716029   3.735   3.341   8.350  0.8508 -0.3124  0.3240
  145SAPE  H17X16030   3.659   3.264   8.378  0.3648 -0.2963 -0.9096
  145SAPE  H17Y16031   3.808   3.287   8.286  4.0203  2.3939  1.3907
  145SAPE  C31816032   3.651   3.440   8.270  0.6362 -0.0552  0.2281
  145SAPE  H18X16033   3.619   3.404   8.170  0.1358 -0.6701  0.5930
  145SAPE  H18Y16034   3.701   3.538   8.257  0.4260  0.5805  3.4107
  145SAPE  H18Z16035   3.564   3.472   8.331 -0.2751  1.8542 -1.9720
  146SAPE     N16036   2.383   6.217  11.252 -0.2812  0.5398  0.1395
  146SAPE   HN116037   2.334   6.234  11.342  0.7769  5.8319  0.0478
  146SAPE   HN216038   2.448   6.296  11.233 -1.5841  1.5054 -0.4817
  146SAPE   HN316039   2.315   6.201  11.175  1.5193 -0.8324 -1.2722
  146SAPE   C1216040   2.453   6.085  11.245 -0.6157 -0.3039 -0.9354
  146SAPE  H12A16041   2.386   6.002  11.276 -0.6288 -0.7592 -2.1631
  146SAPE  H12B16042   2.544   6.092  11.309 -1.5486  0.9346  0.3386
  146SAPE   C1116043   2.491   6.050  11.104 -0.3116 -0.7175 -0.0857
  146SAPE  H11A16044   2.410   6.027  11.031 -0.4054  0.0178 -0.2254
  146SAPE  H11B16045   2.558   5.961  11.098 -0.2620 -0.6013 -1.8508
  146SAPE     P16046   2.648   6.142  10.908 -0.0850 -0.2021  0.3578
  146SAPE   O1316047   2.680   6.281  10.862 -0.0732 -0.1502  0.0610
  146SAPE   O1416048   2.763   6.050  10.919  0.5560  0.4757  0.3985
  146SAPE   O1216049   2.573   6.161  11.050 -0.4763 -0.3907 -0.2158
  146SAPE   O1116050   2.532   6.083  10.813  0.0632 -0.2839 -0.0467
  146SAPE    C116051   2.536   5.944  10.777 -0.0596  0.4199  0.6565
  146SAPE    HA16052   2.602   5.879  10.837  1.9520  1.0247 -0.8138
  146SAPE    HB16053   2.446   5.883  10.799 -0.5343 -0.0917 -2.3982
  146SAPE    C216054   2.573   5.928  10.624 -0.1925  0.0130 -0.3001
  146SAPE    HS16055   2.680   5.953  10.607  0.3055 -1.3306  0.7021
  146SAPE   O2116056   2.479   6.006  10.556  0.0154  0.1611  0.2003
  146SAPE   C2116057   2.527   6.104  10.483 -1.1188 -0.4848  0.0404
  146SAPE   O2216058   2.647   6.121  10.456  0.6588  0.3457  0.1972
  146SAPE   C2216059   2.421   6.200  10.425 -0.6139 -0.2205  0.2679
  146SAPE   H2R16060   2.362   6.126  10.366 -1.3789 -2.3767  3.4990
  146SAPE   H2S16061   2.351   6.234  10.504 -0.7679  1.6230 -0.6099
  146SAPE    C316062   2.566   5.780  10.573  0.0152 -0.1134 -0.3202
  146SAPE    HX16063   2.475   5.723  10.602 -0.0269  0.7180  1.2559
  146SAPE    HY16064   2.652   5.736  10.628  0.1610  0.7556  0.1544
  146SAPE   O3116065   2.592   5.777  10.429  0.2798 -0.1155  0.2209
  146SAPE   C3116066   2.488   5.791  10.356 -0.2015  0.3858  0.2543
  146SAPE   O3216067   2.373   5.784  10.395 -0.5479  0.0964 -0.2151
  146SAPE   C3216068   2.537   5.808  10.210  0.4442  0.3281 -0.3773
  146SAPE   H2X16069   2.597   5.718  10.184 -0.5108 -0.2842 -0.5195
  146SAPE   H2Y16070   2.607   5.894  10.219 -1.6899  2.0431  0.8152
  146SAPE   C2316071   2.470   6.319  10.338  0.3183  0.0843 -0.0301
  146SAPE   H3R16072   2.529   6.385  10.404 -0.2806  0.9568 -0.3591
  146SAPE   H3S16073   2.392   6.390  10.304  0.1068 -0.1657 -0.0775
  146SAPE   C2416074   2.549   6.272  10.209 -0.0028 -0.3444  0.0652
  146SAPE   H4R16075   2.640   6.213  10.235  0.3876  0.0633 -0.3436
  146SAPE   H4S16076   2.589   6.368  10.170  2.2487 -0.4886  1.8067
  146SAPE   C2516077   2.460   6.202  10.113 -0.3188  0.5404  0.6854
  146SAPE   H5R16078   2.415   6.112  10.156 -1.2668  0.7764  0.2223
  146SAPE   C2616079   2.421   6.241   9.985 -0.0797 -0.4706 -0.4128
  146SAPE   H6R16080   2.364   6.168   9.926 -3.1529 -0.0726  1.8172
  146SAPE   C2716081   2.463   6.365   9.911 -0.0007 -0.0710 -0.4921
  146SAPE   H7R16082   2.499   6.442   9.982 -0.9125  0.6723 -0.8177
  146SAPE   H7S16083   2.380   6.405   9.848  0.4017  2.6185  0.5567
  146SAPE   C2816084   2.585   6.326   9.823  0.2285 -0.6219  0.3808
  146SAPE   H8R16085   2.674   6.292   9.878  2.6412  0.9032 -2.3085
  146SAPE   C2916086   2.592   6.329   9.688  0.4092  1.2798 -0.5970
  146SAPE   H9R16087   2.681   6.294   9.633 -0.3808 -3.3885  0.6328
  146SAPE  C21016088   2.480   6.366   9.589 -0.1812  0.2010 -0.3747
  146SAPE  H10R16089   2.526   6.426   9.508 -0.6950  1.9517  0.5651
  146SAPE  H10S16090   2.406   6.436   9.635 -1.3634  0.4287 -2.5164
  146SAPE  C21116091   2.416   6.245   9.534  0.4553  0.1686 -0.7417
  146SAPE  H11R16092   2.362   6.182   9.606 -0.5340  0.5617 -1.1255
  146SAPE  C21216093   2.419   6.203   9.408 -0.3088  0.1930  0.6036
  146SAPE  H12R16094   2.360   6.117   9.375  1.3996 -0.4512 -0.9562
  146SAPE  C21316095   2.502   6.276   9.296  0.2352  0.0195 -0.3661
  146SAPE  H13R16096   2.604   6.295   9.334  0.7338 -0.4464 -1.4320
  146SAPE  H13S16097   2.453   6.374   9.277  0.1140 -0.1521 -0.9866
  146SAPE  C21416098   2.514   6.193   9.162  0.1999  0.2968  0.5770
  146SAPE  H14R16099   2.622   6.173   9.153  0.0709 -0.7836  1.1413
  146SAPE  C21516100   2.429   6.151   9.079  0.1003  0.2555 -0.1301
  146SAPE  H15R16101   2.467   6.092   8.995  0.0015 -1.9368  1.2824
  146SAPE  C21616102   2.279   6.182   9.087  0.0735  0.1273 -0.5634
  146SAPE  H16R16103   2.254   6.243   9.176  0.1089 -0.8066  0.0936
  146SAPE  H16S16104   2.227   6.086   9.104  0.8715  0.0479  1.6876
  146SAPE  C21716105   2.233   6.256   8.953  0.0993  0.4086  0.7517
  146SAPE  H17R16106   2.122   6.262   8.957  0.1508  1.3109  0.9786
  146SAPE  H17S16107   2.273   6.190   8.873 -0.5693  0.1619  0.6148
  146SAPE  C21816108   2.296   6.399   8.949  0.1516  0.3378  0.8696
  146SAPE  H18R16109   2.406   6.390   8.958 -0.0292 -2.8263  1.1811
  146SAPE  H18S16110   2.244   6.457   9.029 -1.5958  2.2058 -1.4500
  146SAPE  C21916111   2.268   6.471   8.815  0.0796  0.1634 -0.3426
  146SAPE  H19R16112   2.287   6.389   8.742 -0.8117 -0.5951  0.2519
  146SAPE  H19S16113   2.340   6.552   8.794 -0.2428  0.2645 -1.0815
  146SAPE  C22016114   2.117   6.510   8.801 -0.8122  0.7118 -0.0348
  146SAPE  H20R16115   2.048   6.424   8.812 -0.7218  0.7071  0.5245
  146SAPE  H20S16116   2.101   6.559   8.702  1.8519 -0.7859 -1.3198
  146SAPE  H20T16117   2.079   6.581   8.877  0.8213  0.6011  0.9356
  146SAPE   C3316118   2.429   5.824  10.104 -0.0096 -0.0084 -0.1681
  146SAPE   H3X16119   2.353   5.900  10.132 -0.1277 -0.7830  1.7147
  146SAPE   H3Y16120   2.376   5.728  10.085  0.4667 -0.8752  2.4756
  146SAPE   C3416121   2.499   5.861   9.971 -0.2445 -0.6798  0.9094
  146SAPE   H4X16122   2.580   5.786   9.958 -0.4929 -0.4980 -2.3360
  146SAPE   H4Y16123   2.545   5.962   9.981  1.1892 -1.2309  0.1905
  146SAPE   C3516124   2.415   5.861   9.844 -0.4040  0.3405  0.1407
  146SAPE   H5X16125   2.333   5.936   9.847 -0.0079  0.9366 -2.2636
  146SAPE   H5Y16126   2.370   5.760   9.832  0.0791  0.0592  0.6261
  146SAPE   C3616127   2.506   5.893   9.721 -0.1042 -0.5709 -0.2212
  146SAPE   H6X16128   2.593   5.827   9.742  0.0902 -0.1003  0.4833
  146SAPE   H6Y16129   2.543   5.997   9.737 -2.6351  0.0376  2.8290
  146SAPE   C3716130   2.436   5.886   9.580  0.2837 -0.0432  0.3843
  146SAPE   H7X16131   2.492   5.949   9.508 -1.0778  0.4498 -0.2812
  146SAPE   H7Y16132   2.336   5.935   9.583  0.5230  0.4869 -0.1046
  146SAPE   C3816133   2.411   5.742   9.530 -0.1686  0.4837  0.4607
  146SAPE   H8X16134   2.391   5.693   9.627  0.9470  0.7615  0.8517
  146SAPE   H8Y16135   2.502   5.700   9.482  0.0841 -3.1172  3.6618
  146SAPE   C3916136   2.287   5.722   9.445  0.2719  0.0262  0.9074
  146SAPE   H9X16137   2.298   5.799   9.366 -0.5571  0.2104  0.9592
  146SAPE   H9Y16138   2.196   5.736   9.508 -0.2892  0.9437 -0.0806
  146SAPE  C31016139   2.287   5.587   9.377  0.6644  1.0643 -0.0042
  146SAPE  H10X16140   2.295   5.501   9.446 -0.2787  0.0866 -1.0696
  146SAPE  H10Y16141   2.372   5.575   9.307 -0.8152  1.6107 -1.9999
  146SAPE  C31116142   2.155   5.564   9.288 -0.1104  0.9710 -0.3554
  146SAPE  H11X16143   2.134   5.651   9.222  0.2470  0.0324 -1.7351
  146SAPE  H11Y16144   2.072   5.553   9.361  1.0631  0.1986  0.9048
  146SAPE  C31216145   2.165   5.427   9.221 -0.1488 -0.0941  0.5253
  146SAPE  H12X16146   2.201   5.348   9.291 -0.1903 -1.0822 -0.5384
  146SAPE  H12Y16147   2.247   5.426   9.146 -0.8359  0.7647 -0.2565
  146SAPE  C31316148   2.038   5.367   9.151 -0.7640 -0.0106 -0.3152
  146SAPE  H13X16149   1.958   5.339   9.223 -0.3077  0.9431  0.5942
  146SAPE  H13Y16150   2.073   5.268   9.114  0.1342 -0.3921  1.4480
  146SAPE  C31416151   1.991   5.448   9.029 -0.7882 -0.9027 -0.0270
  146SAPE  H14X16152   1.945   5.541   9.069 -0.7743 -0.1991 -1.5634
  146SAPE  H14Y16153   1.920   5.387   8.968  0.4332 -1.4063 -0.9864
  146SAPE  C31516154   2.097   5.498   8.930 -0.2514 -0.2472 -0.0938
  146SAPE  H15X16155   2.161   5.569   8.986 -1.4751  0.8066 -0.0103
  146SAPE  H15Y16156   2.046   5.557   8.851  1.5113 -1.8494 -2.5986
  146SAPE  C31616157   2.184   5.385   8.872  0.2347 -0.6973 -0.1530
  146SAPE  H16X16158   2.126   5.339   8.790 -1.5600  2.7096 -0.9442
  146SAPE  H16Y16159   2.202   5.300   8.941 -0.5115 -1.3473 -0.7499
  146SAPE  C31716160   2.315   5.432   8.796  0.5606 -0.2770 -0.5455
  146SAPE  H17X16161   2.368   5.343   8.758 -0.3740 -0.8864 -0.4625
  146SAPE  H17Y16162   2.379   5.477   8.876  2.3262 -0.9759 -1.5130
  146SAPE  C31816163   2.297   5.536   8.686  0.4174  0.7970 -0.3720
  146SAPE  H18X16164   2.223   5.617   8.706 -0.3543 -0.0008  0.1005
  146SAPE  H18Y16165   2.255   5.502   8.589  0.7142  0.6110 -0.4356
  146SAPE  H18Z16166   2.397   5.576   8.660  0.7540 -0.5902 -1.2915
  147SAPE     N16167   1.879   0.711  11.014  0.2008  0.4630 -0.7329
  147SAPE   HN116168   1.834   0.618  11.000  0.2518 -0.6436  4.4177
  147SAPE   HN216169   1.809   0.786  11.031 -0.0249  0.1703 -0.3654
  147SAPE   HN316170   1.913   0.736  10.919 -0.8131  2.9359 -0.5204
  147SAPE   C1216171   1.970   0.696  11.135 -0.3057 -0.1776  0.2264
  147SAPE  H12A16172   2.045   0.615  11.117  2.2290  1.5000  2.4125
  147SAPE  H12B16173   1.901   0.672  11.219 -1.1080  0.1014 -0.3448
  147SAPE   C1116174   2.052   0.824  11.148 -0.5010  0.4580  0.1983
  147SAPE  H11A16175   2.145   0.827  11.086  0.0628  2.1330  1.0681
  147SAPE  H11B16176   2.102   0.819  11.247 -0.5267 -2.6128  0.1433
  147SAPE     P16177   2.046   1.085  11.109  0.1741 -0.3028  0.4311
  147SAPE   O1316178   1.960   1.166  11.023 -0.3271 -0.5721  0.1653
  147SAPE   O1416179   2.091   1.146  11.238  0.4286 -0.8134  1.0625
  147SAPE   O1216180   1.973   0.945  11.138  0.3048 -0.4385  0.1899
  147SAPE   O1116181   2.175   1.038  11.030  0.6183  1.0411  0.3679
  147SAPE    C116182   2.195   1.026  10.889 -1.1921 -0.3613 -0.2618
  147SAPE    HA16183   2.302   1.000  10.874 -0.6459  0.9773  1.0252
  147SAPE    HB16184   2.135   0.944  10.844 -1.4023 -0.8792  0.9093
  147SAPE    C216185   2.175   1.162  10.811 -0.3429 -0.1693 -0.1659
  147SAPE    HS16186   2.068   1.190  10.819 -0.4600 -0.1568 -1.5344
  147SAPE   O2116187   2.213   1.140  10.671  0.0907 -0.3119 -0.6193
  147SAPE   C2116188   2.123   1.074  10.597  0.3451 -0.1572  0.0269
  147SAPE   O2216189   2.020   1.021  10.632 -0.3017  0.0587 -0.1051
  147SAPE   C2216190   2.166   1.101  10.457  0.3415 -0.4800  1.1487
  147SAPE   H2R16191   2.276   1.108  10.449  0.1238  1.5514 -1.4132
  147SAPE   H2S16192   2.141   1.007  10.402  1.9982  0.2656 -1.0257
  147SAPE    C316193   2.264   1.279  10.869  0.2399  0.0510  0.3574
  147SAPE    HX16194   2.365   1.239  10.891 -0.1815 -1.0562  0.3588
  147SAPE    HY16195   2.223   1.297  10.970 -3.0811  1.1041 -1.0245
  147SAPE   O3116196   2.278   1.398  10.787 -0.1544  0.0926  0.0246
  147SAPE   C3116197   2.165   1.472  10.798 -0.6749  0.4668  0.4245
  147SAPE   O3216198   2.059   1.424  10.838  0.5278 -0.1166 -0.2167
  147SAPE   C3216199   2.191   1.616  10.766 -0.2108  0.0351 -0.2184
  147SAPE   H2X16200   2.299   1.641  10.755  0.4498 -2.3293  0.3162
  147SAPE   H2Y16201   2.159   1.669  10.858  1.0849 -1.4025  1.1170
  147SAPE   C2316202   2.096   1.220  10.385 -0.0585 -0.0578 -0.7843
  147SAPE   H3R16203   2.170   1.253  10.309  0.6750 -1.4352 -0.6867
  147SAPE   H3S16204   2.066   1.300  10.456 -3.2038 -1.3303 -0.5142
  147SAPE   C2416205   1.982   1.173  10.298  0.3719  0.6002 -0.2566
  147SAPE   H4R16206   1.906   1.109  10.349  0.5491 -1.5676 -2.5202
  147SAPE   H4S16207   2.013   1.098  10.222 -1.6782 -0.4034 -0.1540
  147SAPE   C2516208   1.914   1.284  10.233 -0.0864 -0.1781  0.1455
  147SAPE   H5R16209   1.815   1.310  10.271  0.8060  1.6635  1.3321
  147SAPE   C2616210   1.955   1.353  10.128 -0.0120  0.0942 -0.7749
  147SAPE   H6R16211   1.896   1.437  10.087 -0.7711 -0.2859 -0.4724
  147SAPE   C2716212   2.079   1.322  10.052 -0.7389  0.5859  0.0355
  147SAPE   H7R16213   2.133   1.246  10.113  0.1387  1.7154  0.6991
  147SAPE   H7S16214   2.141   1.414  10.060  0.1034 -0.0381  0.8926
  147SAPE   C2816215   2.048   1.286   9.905  0.0932 -0.0683  0.1157
  147SAPE   H8R16216   2.007   1.184   9.898 -0.2984 -0.1136  2.3682
  147SAPE   C2916217   2.084   1.354   9.797 -0.0387  0.3602 -0.0651
  147SAPE   H9R16218   2.044   1.316   9.702 -4.5869  2.1758  0.8805
  147SAPE  C21016219   2.151   1.487   9.789 -0.2464  0.2827 -0.0533
  147SAPE  H10R16220   2.250   1.479   9.739  0.2976  0.8550  0.9104
  147SAPE  H10S16221   2.176   1.532   9.887  3.6849  2.1384 -1.6676
  147SAPE  C21116222   2.074   1.588   9.712  0.1728  0.0884  1.2205
  147SAPE  H11R16223   2.021   1.651   9.785  1.6621  1.4912  1.1404
  147SAPE  C21216224   2.050   1.598   9.583 -0.0538  0.3395  0.0497
  147SAPE  H12R16225   1.984   1.678   9.548 -2.1105 -0.7560  1.2134
  147SAPE  C21316226   2.114   1.523   9.474 -0.4015  0.3827  0.0181
  147SAPE  H13R16227   2.055   1.529   9.380  1.4650 -1.9789 -1.4164
  147SAPE  H13S16228   2.095   1.416   9.498 -0.6198 -0.6125 -3.9446
  147SAPE  C21416229   2.266   1.521   9.448  0.1353 -0.0089 -0.0247
  147SAPE  H14R16230   2.327   1.513   9.540 -1.0170  1.2997  0.8946
  147SAPE  C21516231   2.331   1.523   9.330 -0.1912  0.4406  0.6965
  147SAPE  H15R16232   2.441   1.532   9.335 -0.2291  1.6927 -0.3557
  147SAPE  C21616233   2.261   1.531   9.199 -0.4234  0.0217  0.2176
  147SAPE  H16R16234   2.155   1.564   9.199 -0.0554  1.2557  0.9163
  147SAPE  H16S16235   2.253   1.426   9.164  2.4893 -0.1757 -0.1181
  147SAPE  C21716236   2.332   1.621   9.101 -0.2075 -0.4358  0.7298
  147SAPE  H17R16237   2.442   1.602   9.105 -0.0936  0.1618  0.6409
  147SAPE  H17S16238   2.312   1.728   9.124 -2.6568 -1.0183  1.6169
  147SAPE  C21816239   2.287   1.620   8.952  0.4451 -0.2739  0.0908
  147SAPE  H18R16240   2.184   1.660   8.951  0.6057  0.2770 -2.7369
  147SAPE  H18S16241   2.281   1.511   8.931  0.7536 -0.2625 -0.0666
  147SAPE  C21916242   2.389   1.682   8.860 -0.4310  1.0662  0.1316
  147SAPE  H19R16243   2.489   1.636   8.879 -0.6276 -0.6188 -2.4314
  147SAPE  H19S16244   2.410   1.791   8.874 -0.3361  1.1498 -0.5840
  147SAPE  C22016245   2.350   1.650   8.711  0.0204 -0.2093 -0.1138
  147SAPE  H20R16246   2.435   1.661   8.640 -0.5379 -3.5329 -1.4904
  147SAPE  H20S16247   2.258   1.706   8.683 -0.5032 -2.0846 -2.4739
  147SAPE  H20T16248   2.344   1.539   8.705  1.1651 -0.2988  0.1302
  147SAPE   C3316249   2.105   1.668  10.648  0.6415 -0.1283  1.0663
  147SAPE   H3X16250   2.110   1.778  10.638 -0.2320  0.0833  2.5726
  147SAPE   H3Y16251   2.001   1.629  10.651  0.1908  1.0795  1.9482
  147SAPE   C3416252   2.162   1.618  10.511 -0.0416 -0.0290 -0.5307
  147SAPE   H4X16253   2.168   1.507  10.516  2.4538  0.0455 -0.5963
  147SAPE   H4Y16254   2.268   1.645  10.491  0.0026  0.1112 -0.1160
  147SAPE   C3516255   2.068   1.640  10.384 -0.5473 -0.6297 -0.1693
  147SAPE   H5X16256   1.967   1.633  10.431 -1.5725 -0.3540 -2.2213
  147SAPE   H5Y16257   2.075   1.555  10.312 -0.5482 -1.2413  0.5438
  147SAPE   C3616258   2.085   1.781  10.325  0.1793  0.2711 -0.5091
  147SAPE   H6X16259   2.194   1.798  10.312  0.5424 -1.6948 -0.3830
  147SAPE   H6Y16260   2.045   1.851  10.401 -2.3772 -1.9366  0.3342
  147SAPE   C3716261   2.029   1.800  10.183  0.1275  0.3180  0.0642
  147SAPE   H7X16262   1.918   1.801  10.172  0.0537 -0.1052  0.7244
  147SAPE   H7Y16263   2.053   1.710  10.122 -1.7820 -0.5055  0.4311
  147SAPE   C3816264   2.073   1.933  10.112  0.6154  0.1739 -0.2203
  147SAPE   H8X16265   2.184   1.943  10.117  0.6124  0.3499 -0.4712
  147SAPE   H8Y16266   2.025   2.010  10.176 -1.0295 -2.2430  1.6490
  147SAPE   C3916267   2.025   1.929   9.964 -0.7664 -0.0784 -0.1298
  147SAPE   H9X16268   1.922   1.891   9.978 -0.6343  0.2653  2.2635
  147SAPE   H9Y16269   2.089   1.854   9.912  0.1427  1.6839 -1.6727
  147SAPE  C31016270   2.029   2.070   9.908  0.0640 -0.3337 -0.3617
  147SAPE  H10X16271   2.129   2.117   9.922  0.2756 -0.0558 -2.4501
  147SAPE  H10Y16272   1.965   2.138   9.968 -0.0237  0.1232 -0.9583
  147SAPE  C31116273   1.982   2.081   9.761  0.6090 -0.0024 -0.0739
  147SAPE  H11X16274   2.024   2.179   9.728 -1.2031  0.7651 -0.2191
  147SAPE  H11Y16275   1.872   2.086   9.753  0.6789 -0.2944 -1.3539
  147SAPE  C31216276   2.038   1.988   9.650 -0.5104 -0.0608  0.9834
  147SAPE  H12X16277   1.986   1.890   9.651  0.1229 -0.4118  2.0430
  147SAPE  H12Y16278   2.149   1.988   9.658 -0.2331 -0.2979 -1.8590
  147SAPE  C31316279   2.002   2.041   9.515 -0.2232 -0.0181  0.8767
  147SAPE  H13X16280   2.073   2.122   9.490 -0.1272 -0.9967 -2.6496
  147SAPE  H13Y16281   1.898   2.079   9.525  0.5592  1.7327  2.8509
  147SAPE  C31416282   2.006   1.932   9.404  0.3090 -0.1725 -0.0308
  147SAPE  H14X16283   1.940   1.845   9.425  0.4622 -0.0886  0.8430
  147SAPE  H14Y16284   2.113   1.904   9.395  0.2012 -0.8878  0.7696
  147SAPE  C31516285   1.979   1.990   9.270 -0.1984  0.1388  0.2715
  147SAPE  H15X16286   2.027   2.089   9.255 -0.0836  0.0367 -0.0488
  147SAPE  H15Y16287   1.869   1.999   9.256 -0.1731  1.7244  0.8886
  147SAPE  C31616288   2.027   1.901   9.151 -0.4561 -0.1229 -0.2750
  147SAPE  H16X16289   1.984   1.800   9.165  2.7882 -1.5684  0.2926
  147SAPE  H16Y16290   2.138   1.888   9.146 -0.5512 -1.4504  0.6821
  147SAPE  C31716291   1.983   1.955   9.018  0.3365 -0.4648 -0.5467
  147SAPE  H17X16292   2.009   1.879   8.941 -0.8132 -0.3814 -1.0334
  147SAPE  H17Y16293   2.050   2.038   8.988 -1.9078  2.2242  1.2876
  147SAPE  C31816294   1.836   1.997   9.013  0.3990 -0.0263 -0.1097
  147SAPE  H18X16295   1.799   2.012   8.909 -2.2765 -0.7528  0.6631
  147SAPE  H18Y16296   1.821   2.094   9.065 -0.2129 -0.1586 -0.0292
  147SAPE  H18Z16297   1.773   1.920   9.062 -2.5769  1.1059 -1.9074
  148SAPE     N16298   5.313   4.473  10.670 -0.6227  0.6245 -0.2193
  148SAPE   HN116299   5.249   4.451  10.591  0.6297 -1.7216 -0.6783
  148SAPE   HN216300   5.255   4.535  10.731 -1.5038  1.4455 -1.8175
  148SAPE   HN316301   5.392   4.527  10.628  0.6464  0.8820  2.3100
  148SAPE   C1216302   5.358   4.347  10.734 -0.3967  0.4824 -0.3642
  148SAPE  H12A16303   5.441   4.377  10.800 -1.2271 -0.4675  1.1614
  148SAPE  H12B16304   5.395   4.277  10.656  1.1045  1.2717 -0.3980
  148SAPE   C1116305   5.249   4.284  10.824  0.5495  0.2989  0.0574
  148SAPE  H11A16306   5.252   4.349  10.914 -2.2648  0.4842  0.1250
  148SAPE  H11B16307   5.276   4.179  10.849  0.9737  0.1782 -0.8884
  148SAPE     P16308   4.993   4.246  10.853  0.4795  0.0636  0.0104
  148SAPE   O1316309   5.029   4.235  10.996  0.4858  0.0344  0.0663
  148SAPE   O1416310   4.888   4.345  10.817 -0.4582  0.1162 -0.1688
  148SAPE   O1216311   5.123   4.278  10.767 -0.0527 -0.0541 -0.0618
  148SAPE   O1116312   4.944   4.101  10.812  0.0927 -0.1241  0.4269
  148SAPE    C116313   5.031   4.018  10.745  0.3715 -0.0866 -0.1423
  148SAPE    HA16314   5.134   4.007  10.784  0.1066  0.8320  0.8682
  148SAPE    HB16315   4.978   3.920  10.750 -2.8966  1.5969  2.2176
  148SAPE    C216316   5.039   4.060  10.594  0.3043 -0.0923  0.0811
  148SAPE    HS16317   5.086   4.161  10.590 -1.2458  0.6646  0.4996
  148SAPE   O2116318   4.912   4.069  10.533  0.2696 -0.3706  0.0958
  148SAPE   C2116319   4.896   4.143  10.422 -0.7727 -0.1658  0.5146
  148SAPE   O2216320   4.977   4.223  10.378 -0.2018 -0.2991 -0.1987
  148SAPE   C2216321   4.748   4.129  10.374 -0.2583 -0.3675 -0.7231
  148SAPE   H2R16322   4.705   4.046  10.434 -0.1646 -0.0459 -0.2036
  148SAPE   H2S16323   4.703   4.226  10.402  0.9824  0.0224 -0.0160
  148SAPE    C316324   5.135   3.963  10.517  0.2419 -0.0781  0.2064
  148SAPE    HX16325   5.074   3.870  10.521 -1.0797  0.7947  0.9897
  148SAPE    HY16326   5.227   3.950  10.577  0.6441  2.0556  0.1242
  148SAPE   O3116327   5.170   4.001  10.383  0.2329 -0.2621  0.4336
  148SAPE   C3116328   5.272   4.095  10.373  1.3136  0.5556 -0.7251
  148SAPE   O3216329   5.328   4.137  10.477 -0.2386  0.8199  0.6224
  148SAPE   C3216330   5.301   4.133  10.230  0.0864 -0.1960  0.3459
  148SAPE   H2X16331   5.376   4.056  10.205 -0.3642 -0.6115  0.2689
  148SAPE   H2Y16332   5.350   4.233  10.233  0.1612 -0.1648 -1.0772
  148SAPE   C2316333   4.750   4.102  10.221 -0.7167  0.7950  0.7396
  148SAPE   H3R16334   4.818   4.175  10.171 -3.0497  1.0632 -2.2908
  148SAPE   H3S16335   4.657   4.136  10.170 -0.7561  0.6175  0.6923
  148SAPE   C2416336   4.780   3.956  10.198  0.0147 -0.0246 -0.3292
  148SAPE   H4R16337   4.790   3.915  10.301  0.8502 -2.0611 -1.1785
  148SAPE   H4S16338   4.879   3.949  10.150  0.4241  1.5744  0.2261
  148SAPE   C2516339   4.660   3.896  10.121 -0.1864  0.0667  0.0612
  148SAPE   H5R16340   4.577   3.870  10.189  1.0769 -2.8141  0.6434
  148SAPE   C2616341   4.649   3.867   9.989  0.1370  0.7405 -0.3171
  148SAPE   H6R16342   4.553   3.836   9.944 -0.9537  3.6358 -0.1676
  148SAPE   C2716343   4.761   3.893   9.892 -0.2476  0.4018 -0.2050
  148SAPE   H7R16344   4.777   3.799   9.835  1.4569 -0.0047  0.8681
  148SAPE   H7S16345   4.854   3.921   9.945 -1.1281 -1.3685  2.4962
  148SAPE   C2816346   4.725   3.995   9.793  0.5467  0.6705 -0.0921
  148SAPE   H8R16347   4.751   4.095   9.831  0.2136 -0.2132  2.6952
  148SAPE   C2916348   4.648   3.988   9.680  1.2515  0.7616  0.6530
  148SAPE   H9R16349   4.642   4.074   9.612  1.1039 -0.1163 -0.4694
  148SAPE  C21016350   4.573   3.866   9.622 -0.2869  0.0900  0.1207
  148SAPE  H10R16351   4.468   3.902   9.611 -0.4741 -0.2186  0.8230
  148SAPE  H10S16352   4.566   3.782   9.694 -3.0259  0.6387  0.6277
  148SAPE  C21116353   4.624   3.819   9.494 -0.5071  0.1956  0.5700
  148SAPE  H11R16354   4.732   3.800   9.482 -0.5008  0.2576  0.5294
  148SAPE  C21216355   4.546   3.791   9.387  0.2599 -0.8014 -0.3165
  148SAPE  H12R16356   4.603   3.764   9.296 -0.9965 -0.0910 -1.3521
  148SAPE  C21316357   4.391   3.807   9.383 -0.1596  0.6615 -0.4494
  148SAPE  H13R16358   4.347   3.825   9.484  0.9047  0.4507  0.0650
  148SAPE  H13S16359   4.349   3.709   9.352  0.7526 -0.0956  0.6261
  148SAPE  C21416360   4.352   3.922   9.296 -0.5849 -0.2236  0.0138
  148SAPE  H14R16361   4.349   4.020   9.346  1.0529  0.8060 -1.7737
  148SAPE  C21516362   4.318   3.920   9.165 -0.2365  0.1424 -0.6110
  148SAPE  H15R16363   4.293   4.014   9.115  1.2849  0.5695 -0.6160
  148SAPE  C21616364   4.316   3.805   9.078 -0.5426  0.0090  0.7501
  148SAPE  H16R16365   4.343   3.708   9.126 -1.2103 -1.3690 -1.4898
  148SAPE  H16S16366   4.401   3.824   9.009 -1.6777  2.1354 -0.1595
  148SAPE  C21716367   4.194   3.786   8.985 -0.2103 -0.9465  0.0479
  148SAPE  H17R16368   4.099   3.784   9.043  0.2855 -4.8096  0.9869
  148SAPE  H17S16369   4.201   3.684   8.944  0.3688 -0.4876 -1.0289
  148SAPE  C21816370   4.176   3.898   8.875 -0.7615  0.9219 -0.5930
  148SAPE  H18R16371   4.257   3.876   8.801  0.4024  2.0859  0.2882
  148SAPE  H18S16372   4.195   3.998   8.919 -0.1718  0.5388  0.0352
  148SAPE  C21916373   4.036   3.892   8.801 -0.3622 -0.7167  0.0476
  148SAPE  H19R16374   4.032   3.981   8.736  0.2431  0.3436  1.4057
  148SAPE  H19S16375   3.958   3.891   8.881  1.6084  0.1239  2.0821
  148SAPE  C22016376   4.018   3.774   8.715 -0.6189  0.6474 -0.2115
  148SAPE  H20R16377   4.092   3.760   8.633 -0.6380 -0.8165 -0.0036
  148SAPE  H20S16378   3.922   3.765   8.659 -0.1203  0.1294 -1.0081
  148SAPE  H20T16379   4.030   3.689   8.785 -1.6399  0.5355 -0.1584
  148SAPE   C3316380   5.183   4.138  10.127  0.4342 -1.0212 -0.1137
  148SAPE   H3X16381   5.129   4.234  10.142  0.8715 -0.8360  0.2788
  148SAPE   H3Y16382   5.111   4.056  10.149 -0.1096 -0.5471 -0.0800
  148SAPE   C3416383   5.225   4.139   9.979  0.1292 -0.3340 -0.0869
  148SAPE   H4X16384   5.283   4.046   9.959 -0.4560 -0.4020 -1.5464
  148SAPE   H4Y16385   5.290   4.222   9.945  0.8811 -1.8960 -2.7413
  148SAPE   C3516386   5.094   4.127   9.894 -0.5505  0.0995 -0.5119
  148SAPE   H5X16387   5.013   4.193   9.933 -2.2767 -2.4358  0.4856
  148SAPE   H5Y16388   5.055   4.024   9.904  0.4673 -0.4920 -2.2828
  148SAPE   C3616389   5.130   4.147   9.743 -0.6478 -0.2685 -0.0208
  148SAPE   H6X16390   5.203   4.065   9.723 -1.8723 -1.2227 -0.7853
  148SAPE   H6Y16391   5.190   4.239   9.729 -2.5043  0.6601 -2.7401
  148SAPE   C3716392   5.017   4.142   9.640 -0.0695 -0.1595  0.3405
  148SAPE   H7X16393   4.946   4.225   9.660 -1.0259  0.1052 -3.3657
  148SAPE   H7Y16394   4.973   4.043   9.665  3.7525 -1.5965  2.3057
  148SAPE   C3816395   5.058   4.133   9.491  0.0456 -0.0900 -0.3887
  148SAPE   H8X16396   5.139   4.058   9.489  0.5049  0.3762  0.2347
  148SAPE   H8Y16397   5.114   4.224   9.460  3.4627 -2.6809 -2.5692
  148SAPE   C3916398   4.928   4.099   9.413 -0.3988 -0.4343 -0.5647
  148SAPE   H9X16399   4.858   4.185   9.404  0.7880  0.9951  2.3801
  148SAPE   H9Y16400   4.870   4.023   9.469 -1.7225  0.9807  0.0493
  148SAPE  C31016401   4.968   4.034   9.284  0.0642  0.0253  0.5532
  148SAPE  H10X16402   5.036   3.948   9.301 -0.5317 -0.7784 -0.9872
  148SAPE  H10Y16403   5.022   4.116   9.232  0.0708 -1.5492 -2.1133
  148SAPE  C31116404   4.848   4.003   9.188  0.1347 -0.4935 -0.3760
  148SAPE  H11X16405   4.778   3.924   9.225 -0.7034 -0.8276 -2.5289
  148SAPE  H11Y16406   4.888   3.957   9.095 -2.7334 -3.3614 -0.3772
  148SAPE  C31216407   4.759   4.120   9.158 -0.1814 -0.4417  0.8569
  148SAPE  H12X16408   4.825   4.204   9.125 -0.7837 -0.8264 -1.5554
  148SAPE  H12Y16409   4.712   4.154   9.252 -0.8186  1.3381 -0.0532
  148SAPE  C31316410   4.637   4.104   9.073  0.1389 -0.0409  0.5399
  148SAPE  H13X16411   4.580   4.018   9.114 -0.1999  0.0202  0.2010
  148SAPE  H13Y16412   4.669   4.086   8.967  1.3909  0.4161  0.8222
  148SAPE  C31416413   4.548   4.234   9.065 -0.1515  0.7566  0.2725
  148SAPE  H14X16414   4.605   4.329   9.071 -1.7424  1.7135  0.7937
  148SAPE  H14Y16415   4.476   4.222   9.149 -1.3867 -1.7605 -1.0208
  148SAPE  C31516416   4.467   4.232   8.934  0.3792  0.9151  0.5347
  148SAPE  H15X16417   4.433   4.126   8.937  1.8706  0.3976  0.3241
  148SAPE  H15Y16418   4.534   4.239   8.845  0.3094 -0.1453  0.3859
  148SAPE  C31616419   4.359   4.341   8.917 -0.0303 -0.1917  0.2941
  148SAPE  H16X16420   4.410   4.440   8.908  1.2883 -1.0281 -2.5494
  148SAPE  H16Y16421   4.292   4.335   9.006 -0.4207  2.1281  0.2182
  148SAPE  C31716422   4.275   4.321   8.793  0.6674 -0.2311  0.2133
  148SAPE  H17X16423   4.230   4.221   8.808  1.2474 -0.4451  0.5624
  148SAPE  H17Y16424   4.338   4.304   8.703 -1.0535 -1.2277 -0.8340
  148SAPE  C31816425   4.176   4.431   8.759  0.2388  0.9461  0.0106
  148SAPE  H18X16426   4.102   4.450   8.840 -2.0561  2.2223 -2.2470
  148SAPE  H18Y16427   4.113   4.394   8.674 -1.3421  0.1667  1.4455
  148SAPE  H18Z16428   4.228   4.526   8.739  1.1056  0.0429 -2.4205
  149SAPE     N16429   1.871   3.617  11.236  0.7356  0.1225  0.2333
  149SAPE   HN116430   1.924   3.534  11.269  1.9439  0.3230 -1.0860
  149SAPE   HN216431   1.789   3.583  11.182  0.4987 -1.4267  1.4914
  149SAPE   HN316432   1.937   3.677  11.183  0.6305 -0.7660 -0.9339
  149SAPE   C1216433   1.813   3.695  11.347  0.4628  0.0765 -0.2157
  149SAPE  H12A16434   1.902   3.709  11.413  1.0865 -1.6035 -0.6586
  149SAPE  H12B16435   1.726   3.641  11.390  0.6909 -0.4585 -0.4221
  149SAPE   C1116436   1.785   3.835  11.302 -0.3466 -0.5451  0.9376
  149SAPE  H11A16437   1.752   3.902  11.384 -0.0861  0.5545  0.1671
  149SAPE  H11B16438   1.699   3.841  11.232 -0.4764  3.2979  1.2197
  149SAPE     P16439   1.878   4.032  11.153  0.0176  0.3220 -0.6187
  149SAPE   O1316440   1.771   4.112  11.216  0.2553 -0.6314 -0.3440
  149SAPE   O1416441   2.011   4.099  11.134  0.2161  0.5393  0.2025
  149SAPE   O1216442   1.896   3.901  11.238 -0.1737  0.9551 -0.2271
  149SAPE   O1116443   1.822   3.991  11.011 -0.1073  0.2717 -0.3520
  149SAPE    C116444   1.862   3.886  10.933  0.3993  0.5305  0.1318
  149SAPE    HA16445   1.968   3.894  10.904 -0.2180  1.2932 -2.1187
  149SAPE    HB16446   1.849   3.791  10.988 -0.9020  1.0811  0.8492
  149SAPE    C216447   1.782   3.886  10.800 -0.4727  0.1663  0.9236
  149SAPE    HS16448   1.813   3.797  10.742  1.7089  0.5165  1.4943
  149SAPE   O2116449   1.827   4.002  10.723 -0.2991 -0.1390 -0.2717
  149SAPE   C2116450   1.819   3.997  10.592 -0.2145  0.3485 -0.9900
  149SAPE   O2216451   1.783   3.902  10.525  1.2909  0.0626  0.5231
  149SAPE   C2216452   1.862   4.129  10.529  0.4263  1.0854 -0.0051
  149SAPE   H2R16453   1.812   4.213  10.583 -2.1318  0.3751 -1.1310
  149SAPE   H2S16454   1.971   4.134  10.550  0.4949 -0.5995  0.1782
  149SAPE    C316455   1.634   3.886  10.816  0.0379  0.3958  0.7330
  149SAPE    HX16456   1.616   3.977  10.877 -2.7917  0.8196 -0.5712
  149SAPE    HY16457   1.609   3.803  10.886  0.0645  1.8533  2.5334
  149SAPE   O3116458   1.564   3.884  10.694 -0.5362 -0.0094  0.0655
  149SAPE   C3116459   1.515   3.766  10.653  0.3175 -0.1113 -0.2451
  149SAPE   O3216460   1.506   3.663  10.716 -0.1149 -0.0880 -0.4590
  149SAPE   C3216461   1.460   3.790  10.514  0.0425  0.4578  0.3622
  149SAPE   H2X16462   1.536   3.851  10.461  0.1332  0.6987  0.7661
  149SAPE   H2Y16463   1.365   3.847  10.519  0.9672  2.0005  1.3305
  149SAPE   C2316464   1.832   4.135  10.381 -0.3419 -0.5597 -0.5435
  149SAPE   H3R16465   1.723   4.133  10.356 -0.4882 -2.2850  0.0370
  149SAPE   H3S16466   1.866   4.055  10.311 -1.0061  1.5771 -3.4809
  149SAPE   C2416467   1.887   4.266  10.311  0.4907  0.5530  0.9269
  149SAPE   H4R16468   1.854   4.254  10.206 -1.4579 -0.2632  1.5767
  149SAPE   H4S16469   1.996   4.255  10.328  0.5809  0.3952  0.2726
  149SAPE   C2516470   1.843   4.395  10.364 -0.8706 -0.1789  0.5174
  149SAPE   H5R16471   1.777   4.397  10.452  0.2262  2.5894  1.3900
  149SAPE   C2616472   1.865   4.511  10.308 -0.1407 -0.2938 -0.2181
  149SAPE   H6R16473   1.824   4.601  10.356  1.2164  0.6222 -0.7186
  149SAPE   C2716474   1.922   4.544  10.177 -0.5168  0.6496 -0.1572
  149SAPE   H7R16475   2.029   4.515  10.168 -0.0422  2.2099  0.1335
  149SAPE   H7S16476   1.928   4.654  10.171  0.5692  0.5128 -2.3030
  149SAPE   C2816477   1.849   4.508  10.052 -0.2128  0.0239 -0.5216
  149SAPE   H8R16478   1.746   4.546  10.054  0.3574  1.6703  1.5300
  149SAPE   C2916479   1.908   4.451   9.944  0.4815  0.6637  0.5670
  149SAPE   H9R16480   1.839   4.435   9.860  0.9698  1.0449  0.0854
  149SAPE  C21016481   2.055   4.401   9.932  0.5250  0.2235 -0.0674
  149SAPE  H10R16482   2.091   4.375  10.034 -0.0626 -2.7467 -0.5200
  149SAPE  H10S16483   2.123   4.476   9.885  2.4534 -1.2889  0.1647
  149SAPE  C21116484   2.081   4.273   9.862  0.4931 -0.0648  0.5591
  149SAPE  H11R16485   2.046   4.186   9.918 -1.0557 -0.1743 -0.5105
  149SAPE  C21216486   2.121   4.262   9.735  0.3002  0.0065  0.0012
  149SAPE  H12R16487   2.160   4.166   9.696 -0.4839 -0.8370  1.2341
  149SAPE  C21316488   2.157   4.379   9.645 -0.2872 -0.2027  0.3352
  149SAPE  H13R16489   2.214   4.342   9.556  0.7579  1.3872  0.2999
  149SAPE  H13S16490   2.220   4.449   9.704 -0.0586  0.3355 -0.5153
  149SAPE  C21416491   2.038   4.464   9.599  0.7857 -0.4104 -0.0989
  149SAPE  H14R16492   1.980   4.504   9.683  0.5063  1.6839 -1.2080
  149SAPE  C21516493   2.003   4.505   9.475  0.3698 -0.3203  0.3449
  149SAPE  H15R16494   1.922   4.578   9.461  1.3927  0.8842  0.5532
  149SAPE  C21616495   2.087   4.481   9.355 -0.3062 -0.1595  0.2521
  149SAPE  H16R16496   2.036   4.415   9.281  0.3315  2.0745 -2.3617
  149SAPE  H16S16497   2.187   4.435   9.368 -0.3655 -1.1146 -2.1832
  149SAPE  C21716498   2.110   4.616   9.287  0.4158  0.3582 -0.0399
  149SAPE  H17R16499   2.145   4.686   9.366 -0.2650  0.3547  0.2780
  149SAPE  H17S16500   2.013   4.659   9.252  0.4052  1.8338  1.6270
  149SAPE  C21816501   2.215   4.610   9.176  0.1006  0.4722 -0.4819
  149SAPE  H18R16502   2.179   4.539   9.098 -1.6062  0.8606 -0.0991
  149SAPE  H18S16503   2.313   4.564   9.202 -0.9899 -2.2109 -0.7659
  149SAPE  C21916504   2.235   4.742   9.107 -0.5221  0.2055  0.6358
  149SAPE  H19R16505   2.293   4.797   9.184  2.1332 -0.4465 -0.7574
  149SAPE  H19S16506   2.142   4.793   9.076  0.2339  1.7386  0.7581
  149SAPE  C22016507   2.323   4.740   8.976  0.1158 -0.4317  0.3748
  149SAPE  H20R16508   2.322   4.841   8.930 -1.3396  0.5022  2.3035
  149SAPE  H20S16509   2.281   4.658   8.915  2.1993 -1.5744  0.3992
  149SAPE  H20T16510   2.428   4.706   8.990 -0.0051 -0.9808 -0.0242
  149SAPE   C3316511   1.441   3.658  10.440 -0.1607  0.1090 -0.7273
  149SAPE   H3X16512   1.398   3.684  10.341 -2.4483  0.2571  0.2221
  149SAPE   H3Y16513   1.364   3.600  10.497 -0.3009  0.1895 -0.8325
  149SAPE   C3416514   1.569   3.579  10.421  0.6238  0.4291  0.1806
  149SAPE   H4X16515   1.609   3.549  10.520 -0.4227 -0.3358  0.3958
  149SAPE   H4Y16516   1.654   3.631  10.373 -0.8087  1.4154 -1.4128
  149SAPE   C3516517   1.550   3.445  10.351  0.2431  0.7133 -0.2397
  149SAPE   H5X16518   1.492   3.373  10.413  2.9101 -0.8464  0.6272
  149SAPE   H5Y16519   1.645   3.387  10.352 -0.1617  0.0368  1.4059
  149SAPE   C3616520   1.497   3.453  10.205  0.2407  0.4008  0.1509
  149SAPE   H6X16521   1.389   3.479  10.211 -0.9280 -3.9584  2.3335
  149SAPE   H6Y16522   1.497   3.351  10.161 -1.4695 -0.6730  2.4704
  149SAPE   C3716523   1.566   3.567  10.126  0.1622 -0.5473  0.0080
  149SAPE   H7X16524   1.673   3.586  10.147  0.2622  0.8877 -1.5296
  149SAPE   H7Y16525   1.512   3.660  10.156  0.8019 -0.8734  2.2814
  149SAPE   C3816526   1.533   3.552   9.978  0.1131 -0.4142  0.3451
  149SAPE   H8X16527   1.499   3.450   9.950 -1.2913 -0.0313  0.5646
  149SAPE   H8Y16528   1.622   3.582   9.918 -0.1668  2.0136  1.0229
  149SAPE   C3916529   1.423   3.653   9.932 -0.4797 -0.2271  0.2973
  149SAPE   H9X16530   1.450   3.758   9.955  1.1700 -0.7069  0.6492
  149SAPE   H9Y16531   1.330   3.643   9.993 -0.0170  0.7609  1.1865
  149SAPE  C31016532   1.401   3.637   9.777  0.1801  0.6185  0.6822
  149SAPE  H10X16533   1.384   3.529   9.757  2.2618  0.3823 -0.0735
  149SAPE  H10Y16534   1.492   3.657   9.715  0.4150  0.9677  1.1297
  149SAPE  C31116535   1.286   3.722   9.730  0.5219 -0.4936 -0.2381
  149SAPE  H11X16536   1.298   3.832   9.740 -0.7430  0.1165 -3.8769
  149SAPE  H11Y16537   1.205   3.688   9.798  0.4790 -1.6141 -0.8233
  149SAPE  C31216538   1.245   3.680   9.583 -0.2343  0.0335  0.3666
  149SAPE  H12X16539   1.138   3.708   9.573 -0.1075  0.0254 -1.5000
  149SAPE  H12Y16540   1.246   3.569   9.573 -2.1102  0.1188 -1.6461
  149SAPE  C31316541   1.317   3.768   9.488  0.1187  0.1619  0.4290
  149SAPE  H13X16542   1.427   3.752   9.497 -0.1300 -2.6433 -0.4891
  149SAPE  H13Y16543   1.311   3.871   9.530  0.0794 -0.3740  1.7943
  149SAPE  C31416544   1.256   3.761   9.348 -0.8016 -0.0992  0.0066
  149SAPE  H14X16545   1.148   3.777   9.365 -1.2099  1.0093 -2.9636
  149SAPE  H14Y16546   1.275   3.661   9.303  3.0450 -0.1611  1.3961
  149SAPE  C31516547   1.313   3.851   9.234  0.1821 -0.1200  0.0123
  149SAPE  H15X16548   1.417   3.820   9.214  0.7404  1.0203  0.9822
  149SAPE  H15Y16549   1.303   3.951   9.283  0.0842 -1.4817  3.0040
  149SAPE  C31616550   1.228   3.852   9.105 -0.0504  0.0397  0.7717
  149SAPE  H16X16551   1.233   3.747   9.069 -0.0349 -0.2950  1.7020
  149SAPE  H16Y16552   1.279   3.919   9.034 -1.9908  0.5907 -0.1794
  149SAPE  C31716553   1.087   3.902   9.113 -0.1988  0.0015  0.3443
  149SAPE  H17X16554   1.082   4.004   9.156  0.2509  0.0384  0.3110
  149SAPE  H17Y16555   1.020   3.848   9.183 -0.2913  0.1943  0.4047
  149SAPE  C31816556   1.003   3.911   8.982  0.5054  0.1404  1.0115
  149SAPE  H18X16557   0.896   3.928   9.003  0.8352  1.6536  1.5751
  149SAPE  H18Y16558   1.023   3.823   8.916  0.3821  0.2965  0.7632
  149SAPE  H18Z16559   1.038   4.000   8.926  0.0689  1.2663  2.4822
  150SAPE     N16560   3.651   4.267  11.069 -0.0305  0.0309  0.2342
  150SAPE   HN116561   3.663   4.370  11.079 -3.2412  0.5641 -0.3546
  150SAPE   HN216562   3.564   4.251  11.123 -1.2541  1.0595 -1.3057
  150SAPE   HN316563   3.720   4.200  11.107 -2.3060 -0.7649  3.3542
  150SAPE   C1216564   3.615   4.237  10.923 -0.5650 -0.2514  0.0613
  150SAPE  H12A16565   3.515   4.192  10.907  0.4024 -1.6034 -2.9098
  150SAPE  H12B16566   3.686   4.158  10.890 -1.0235 -0.6453  0.0120
  150SAPE   C1116567   3.636   4.361  10.832 -1.3830 -0.6038  0.1785
  150SAPE  H11A16568   3.617   4.341  10.725 -1.0271 -1.5401  0.2828
  150SAPE  H11B16569   3.746   4.376  10.837 -1.1673 -1.0167 -2.1771
  150SAPE     P16570   3.613   4.609  10.911  0.0296  0.0449 -0.1499
  150SAPE   O1316571   3.504   4.696  10.967  0.2678  1.1695  0.3800
  150SAPE   O1416572   3.730   4.584  10.995 -0.1427  0.3257  0.7910
  150SAPE   O1216573   3.553   4.473  10.873 -0.2907  0.2017 -0.5985
  150SAPE   O1116574   3.663   4.660  10.767  0.7672 -0.1192 -0.3480
  150SAPE    C116575   3.567   4.728  10.681 -0.2913  0.6240 -0.3904
  150SAPE    HA16576   3.461   4.725  10.712  0.5743 -0.1588  2.8755
  150SAPE    HB16577   3.607   4.831  10.685  2.2685 -0.2991  0.1969
  150SAPE    C216578   3.562   4.670  10.539 -0.3525  0.1595  0.0740
  150SAPE    HS16579   3.530   4.564  10.553  1.1943 -0.4278 -0.6148
  150SAPE   O2116580   3.699   4.671  10.484  0.3654  0.6117 -0.9099
  150SAPE   C2116581   3.731   4.577  10.403  0.5120 -0.5390  0.2983
  150SAPE   O2216582   3.665   4.479  10.376  0.5830 -0.1682 -0.1680
  150SAPE   C2216583   3.859   4.611  10.335 -0.2783  0.0321 -0.0764
  150SAPE   H2R16584   3.886   4.718  10.318 -0.3233  0.1411  0.5177
  150SAPE   H2S16585   3.941   4.574  10.401  0.8933  1.3952 -0.7045
  150SAPE    C316586   3.460   4.736  10.439 -0.5378 -0.9687 -0.1373
  150SAPE    HX16587   3.489   4.842  10.425  0.1464 -0.9498  1.2389
  150SAPE    HY16588   3.361   4.739  10.489 -0.0431 -2.4130  1.0030
  150SAPE   O3116589   3.463   4.668  10.311  0.1895 -0.0375  0.4027
  150SAPE   C3116590   3.384   4.560  10.306 -0.6887 -0.3612  0.4008
  150SAPE   O3216591   3.313   4.520  10.395 -0.6360 -0.4643  0.7980
  150SAPE   C3216592   3.398   4.511  10.158  0.3917 -0.2060 -0.8970
  150SAPE   H2X16593   3.507   4.491  10.148  1.1300  3.0094 -0.4973
  150SAPE   H2Y16594   3.373   4.597  10.092 -2.9454 -0.0302  0.4448
  150SAPE   C2316595   3.883   4.532  10.197  0.3491 -0.3116  0.0616
  150SAPE   H3R16596   3.787   4.539  10.141 -0.2167  0.1644  1.0663
  150SAPE   H3S16597   3.883   4.423  10.221 -2.1669 -0.5905 -0.8268
  150SAPE   C2416598   4.000   4.584  10.119 -0.4972 -0.1359  0.0860
  150SAPE   H4R16599   4.093   4.560  10.176  0.1212 -0.0081 -0.8310
  150SAPE   H4S16600   3.994   4.694  10.108  2.5871  0.2756  1.4222
  150SAPE   C2516601   4.015   4.514   9.980  0.1171 -1.4589  0.3790
  150SAPE   H5R16602   3.976   4.411   9.977  0.7331 -1.7058  0.7416
  150SAPE   C2616603   4.037   4.585   9.861 -0.0718  0.1470  0.4421
  150SAPE   H6R16604   4.043   4.528   9.767 -0.8523  1.5267 -0.4815
  150SAPE   C2716605   4.071   4.735   9.839 -0.0239 -0.3540 -0.1473
  150SAPE   H7R16606   4.003   4.787   9.910 -1.0618 -4.8265  2.5189
  150SAPE   H7S16607   4.038   4.755   9.735 -1.3359  1.3497  0.5451
  150SAPE   C2816608   4.220   4.774   9.855  0.1411  0.2934 -0.7356
  150SAPE   H8R16609   4.260   4.754   9.955 -2.4614 -0.2971  0.2581
  150SAPE   C2916610   4.311   4.816   9.758  0.1036 -0.4066 -0.3729
  150SAPE   H9R16611   4.408   4.850   9.798 -0.1263  1.2404 -1.1222
  150SAPE  C21016612   4.293   4.820   9.609  1.1270 -0.2375 -0.7491
  150SAPE  H10R16613   4.260   4.717   9.586  0.9253 -0.1974 -0.6486
  150SAPE  H10S16614   4.396   4.832   9.568  2.2026  0.2423  1.8789
  150SAPE  C21116615   4.201   4.937   9.573  0.3440  0.9381 -0.0557
  150SAPE  H11R16616   4.096   4.925   9.603  0.4520 -0.3525 -0.1302
  150SAPE  C21216617   4.228   5.048   9.505 -0.1236  1.0461  0.1609
  150SAPE  H12R16618   4.142   5.114   9.488 -1.3134 -0.5339 -0.2279
  150SAPE  C21316619   4.365   5.083   9.450  0.0510  0.5651 -0.2504
  150SAPE  H13R16620   4.449   5.061   9.520  0.2486  4.7602  1.0786
  150SAPE  H13S16621   4.371   5.193   9.436 -2.9934  0.6927 -1.2311
  150SAPE  C21416622   4.399   5.001   9.325 -0.1231 -0.6352 -0.7293
  150SAPE  H14R16623   4.354   4.902   9.304  1.1439 -0.8551 -2.6473
  150SAPE  C21516624   4.492   5.046   9.234  0.0448 -0.4285  0.0529
  150SAPE  H15R16625   4.500   4.988   9.141  1.1067 -0.1192 -0.0683
  150SAPE  C21616626   4.575   5.174   9.239  0.1266 -0.8172 -0.0857
  150SAPE  H16R16627   4.528   5.242   9.314  0.8826 -2.5236  2.0359
  150SAPE  H16S16628   4.568   5.233   9.145  0.0072 -2.4436 -1.1370
  150SAPE  C21716629   4.726   5.149   9.266  0.2099 -0.3316  0.3275
  150SAPE  H17R16630   4.749   5.097   9.361  3.4374  0.5979  0.1636
  150SAPE  H17S16631   4.775   5.248   9.263  2.1031 -1.2433 -1.4295
  150SAPE  C21816632   4.800   5.071   9.152  0.4363 -0.4867 -0.5685
  150SAPE  H18R16633   4.740   4.978   9.158  0.4144 -0.4032  2.2072
  150SAPE  H18S16634   4.908   5.053   9.166  1.0099  1.4914 -2.0411
  150SAPE  C21916635   4.787   5.154   9.023  0.5232  0.5028 -0.0153
  150SAPE  H19R16636   4.819   5.260   9.034  0.3863  0.5168  0.2849
  150SAPE  H19S16637   4.680   5.172   8.996  0.8668  1.8962 -0.5665
  150SAPE  C22016638   4.873   5.088   8.914  0.1284  0.1274 -0.8385
  150SAPE  H20R16639   4.851   5.132   8.815 -0.2179 -2.7126 -2.1360
  150SAPE  H20S16640   4.866   4.977   8.905 -0.6588  0.0311  0.5269
  150SAPE  H20T16641   4.979   5.105   8.943  0.5636 -2.9175 -0.2262
  150SAPE   C3316642   3.303   4.401  10.131  1.2188  0.7444  0.3400
  150SAPE   H3X16643   3.199   4.427  10.160  1.2290  0.1474  0.9558
  150SAPE   H3Y16644   3.333   4.316  10.197 -3.4866 -1.6014 -0.1533
  150SAPE   C3416645   3.299   4.364   9.982 -0.6728  0.1381  0.0269
  150SAPE   H4X16646   3.276   4.444   9.908 -0.7997  0.3894  0.3348
  150SAPE   H4Y16647   3.216   4.291   9.977 -0.1456 -0.6039  1.5803
  150SAPE   C3516648   3.432   4.297   9.937 -0.4278  0.6421 -0.2194
  150SAPE   H5X16649   3.487   4.269  10.030  0.3302 -0.4667 -0.9831
  150SAPE   H5Y16650   3.492   4.374   9.884  0.4119 -1.5954 -2.7590
  150SAPE   C3616651   3.415   4.171   9.845  0.3523 -0.5350  0.1317
  150SAPE   H6X16652   3.320   4.120   9.871  0.8128 -1.9712 -0.8639
  150SAPE   H6Y16653   3.495   4.097   9.869  1.0021  0.1670  0.1783
  150SAPE   C3716654   3.428   4.213   9.694 -0.0611  0.0187  0.3054
  150SAPE   H7X16655   3.538   4.225   9.679  0.5091 -0.1957  3.5690
  150SAPE   H7Y16656   3.380   4.309   9.667  1.5867  1.0150  0.8077
  150SAPE   C3816657   3.368   4.109   9.596 -0.9265 -0.3239  0.3794
  150SAPE   H8X16658   3.258   4.103   9.612 -0.9747 -2.1644 -0.4028
  150SAPE   H8Y16659   3.405   4.007   9.617 -2.2178 -0.5256  1.8507
  150SAPE   C3916660   3.407   4.143   9.449 -0.2089 -0.9245 -0.0356
  150SAPE   H9X16661   3.518   4.144   9.448 -0.1365 -2.0367  2.0408
  150SAPE   H9Y16662   3.381   4.245   9.414  0.4048 -0.2921  1.2639
  150SAPE  C31016663   3.338   4.042   9.354  0.3944 -0.3301 -0.2589
  150SAPE  H10X16664   3.227   4.055   9.355  0.3744  0.3478 -2.9955
  150SAPE  H10Y16665   3.353   3.935   9.383 -0.5877 -0.5954 -0.6842
  150SAPE  C31116666   3.389   4.053   9.208  0.8066  0.3086  0.0586
  150SAPE  H11X16667   3.369   4.161   9.186 -0.7094  0.4409  1.8788
  150SAPE  H11Y16668   3.329   3.988   9.141  2.4215 -1.4630  0.2373
  150SAPE  C31216669   3.543   4.026   9.181 -0.1517 -0.3420 -0.1167
  150SAPE  H12X16670   3.566   3.929   9.229 -1.8838 -0.3748  0.7367
  150SAPE  H12Y16671   3.618   4.097   9.221  0.4233 -1.5833  1.0605
  150SAPE  C31316672   3.561   4.010   9.032 -0.1450  0.3084  0.6370
  150SAPE  H13X16673   3.486   3.948   8.978 -1.0102  1.0333  0.9886
  150SAPE  H13Y16674   3.660   3.961   9.024 -0.0585  0.5244  0.3448
  150SAPE  C31416675   3.550   4.143   8.955  0.3442 -0.4613 -0.0665
  150SAPE  H14X16676   3.605   4.228   9.003 -2.5309  0.4917  1.7856
  150SAPE  H14Y16677   3.448   4.183   8.969  0.4284 -0.5374  0.7882
  150SAPE  C31516678   3.559   4.134   8.802 -0.4562  0.4143 -0.9099
  150SAPE  H15X16679   3.508   4.039   8.774 -0.4000  0.5857 -1.5831
  150SAPE  H15Y16680   3.666   4.116   8.776 -0.7797 -1.5479 -1.0677
  150SAPE  C31616681   3.513   4.259   8.730 -0.2864 -0.3997  0.3646
  150SAPE  H16X16682   3.402   4.267   8.726 -0.2157  0.2964 -2.1118
  150SAPE  H16Y16683   3.548   4.246   8.625  0.6925  0.4584  0.5682
  150SAPE  C31716684   3.579   4.396   8.783  0.5438  0.1535 -0.1481
  150SAPE  H17X16685   3.690   4.400   8.777  0.5121 -0.1585 -1.0704
  150SAPE  H17Y16686   3.556   4.404   8.891 -0.4315 -1.6057 -0.2041
  150SAPE  C31816687   3.517   4.523   8.717 -0.5263 -0.4406 -0.6480
  150SAPE  H18X16688   3.596   4.600   8.715 -1.7387  0.8162 -1.3870
  150SAPE  H18Y16689   3.427   4.559   8.771 -1.1944 -1.4722 -1.0269
  150SAPE  H18Z16690   3.474   4.509   8.616 -1.4949 -1.5150 -0.1166
  151SAPE     N16691   5.707   3.250  10.665  0.4868 -0.0296 -0.2169
  151SAPE   HN116692   5.652   3.263  10.578 -1.6704 -1.0716  0.8994
  151SAPE   HN216693   5.738   3.338  10.711  0.0600  0.2940 -0.5363
  151SAPE   HN316694   5.791   3.192  10.643  1.1763  0.6124  0.6497
  151SAPE   C1216695   5.623   3.168  10.761 -0.7293  0.1074  0.1091
  151SAPE  H12A16696   5.518   3.204  10.761 -0.8274 -0.1159 -1.7138
  151SAPE  H12B16697   5.660   3.178  10.866 -0.7957  4.3400 -0.0693
  151SAPE   C1116698   5.603   3.029  10.696 -0.2095  0.1790 -0.6245
  151SAPE  H11A16699   5.534   3.036  10.609 -0.6920  0.5075 -0.2300
  151SAPE  H11B16700   5.545   2.974  10.773 -0.0961  0.3694 -0.4011
  151SAPE     P16701   5.724   2.793  10.660  0.4554  0.0136 -0.4295
  151SAPE   O1316702   5.849   2.753  10.599  0.5362  0.1908  0.8057
  151SAPE   O1416703   5.699   2.747  10.794 -0.7348  0.4150 -0.5010
  151SAPE   O1216704   5.724   2.953  10.667 -0.2417 -0.7763 -0.4511
  151SAPE   O1116705   5.608   2.762  10.557  0.4469  0.4595 -0.6540
  151SAPE    C116706   5.605   2.816  10.422 -0.4566  0.5514  0.5178
  151SAPE    HA16707   5.592   2.926  10.423 -0.0972  0.6567 -1.9229
  151SAPE    HB16708   5.700   2.796  10.369 -1.3436  1.6862 -1.5903
  151SAPE    C216709   5.498   2.757  10.335  0.1279  0.3448  0.3564
  151SAPE    HS16710   5.495   2.821  10.244 -0.3172 -0.8844 -0.5345
  151SAPE   O2116711   5.372   2.771  10.405  0.5810  0.1487 -0.1134
  151SAPE   C2116712   5.336   2.886  10.452  0.1044 -0.0033  0.3489
  151SAPE   O2216713   5.375   2.993  10.410  0.4619 -0.0579  0.0959
  151SAPE   C2216714   5.239   2.878  10.571 -0.2566  0.1611 -0.3403
  151SAPE   H2R16715   5.303   2.918  10.653  0.6688 -1.6684 -0.1388
  151SAPE   H2S16716   5.155   2.948  10.551 -1.2485  0.1076  3.1048
  151SAPE    C316717   5.515   2.610  10.296  0.9774  0.0005  0.2741
  151SAPE    HX16718   5.455   2.543  10.362  1.0905  2.1551  2.7197
  151SAPE    HY16719   5.622   2.582  10.307  1.1814 -0.0921 -1.6511
  151SAPE   O3116720   5.464   2.586  10.160  0.1407  0.0035 -0.4745
  151SAPE   C3116721   5.548   2.622  10.062  0.1517  0.6031  0.2793
  151SAPE   O3216722   5.659   2.667  10.076  0.1321 -0.2710  0.0501
  151SAPE   C3216723   5.488   2.593   9.926  0.5708  0.5335  0.4457
  151SAPE   H2X16724   5.383   2.630   9.923  0.4657  0.2186  0.1914
  151SAPE   H2Y16725   5.482   2.482   9.927 -0.9078  0.5796 -0.4200
  151SAPE   C2316726   5.175   2.732  10.599  0.1687  0.5723  0.1628
  151SAPE   H3R16727   5.120   2.733  10.695 -1.4467  0.4114 -0.7231
  151SAPE   H3S16728   5.257   2.657  10.594  0.3112  0.5855  1.9136
  151SAPE   C2416729   5.073   2.711  10.479 -0.5886 -0.1808  0.0053
  151SAPE   H4R16730   5.036   2.607  10.496  3.6543 -1.9364 -0.2819
  151SAPE   H4S16731   5.134   2.723  10.387 -0.7665  1.9809  0.1270
  151SAPE   C2516732   4.949   2.794  10.483 -0.0470 -0.1891  0.5893
  151SAPE   H5R16733   4.885   2.794  10.572  0.6137 -0.5493  1.0723
  151SAPE   C2616734   4.907   2.871  10.382 -0.0310  0.3687 -0.3499
  151SAPE   H6R16735   4.805   2.910  10.396  0.0503  0.3507  0.3313
  151SAPE   C2716736   4.977   2.899  10.247 -0.0505  0.2533 -0.3316
  151SAPE   H7R16737   4.895   2.911  10.173 -1.4016 -1.9361  0.6967
  151SAPE   H7S16738   5.021   2.804  10.211 -0.1508  1.1917 -3.1317
  151SAPE   C2816739   5.072   3.013  10.239 -0.6736 -0.0229 -0.3818
  151SAPE   H8R16740   5.057   3.091  10.315  2.5029  0.3695 -0.0330
  151SAPE   C2916741   5.182   3.028  10.171  0.0672  0.5193 -0.5600
  151SAPE   H9R16742   5.240   3.120  10.183  3.2318 -1.1783 -1.4748
  151SAPE  C21016743   5.237   2.926  10.072  0.0354 -0.1018  0.1255
  151SAPE  H10R16744   5.155   2.906  10.000 -1.2611  1.3637  1.1250
  151SAPE  H10S16745   5.253   2.826  10.116  0.3371 -0.4547 -0.7553
  151SAPE  C21116746   5.353   2.976   9.993  0.2604  0.1282 -0.5122
  151SAPE  H11R16747   5.452   2.942  10.028  0.0694 -0.4876 -0.5597
  151SAPE  C21216748   5.358   3.042   9.878  0.2135 -0.2446 -0.0983
  151SAPE  H12R16749   5.456   3.081   9.847  0.4141 -0.4081  0.3267
  151SAPE  C21316750   5.243   3.084   9.792  0.3132 -0.4838 -0.6377
  151SAPE  H13R16751   5.281   3.175   9.742 -1.6607  0.3353 -0.7709
  151SAPE  H13S16752   5.158   3.101   9.862 -0.3595 -1.6892 -1.1337
  151SAPE  C21416753   5.208   2.981   9.687  0.3229 -0.6034  0.1083
  151SAPE  H14R16754   5.116   2.931   9.722  0.2302  0.0096  0.7830
  151SAPE  C21516755   5.278   2.951   9.579 -0.2133  0.6636  0.2566
  151SAPE  H15R16756   5.245   2.875   9.506  1.0956 -0.0400  0.3745
  151SAPE  C21616757   5.415   3.004   9.542  0.0666 -0.0083  0.3039
  151SAPE  H16R16758   5.489   2.923   9.561  1.4999  1.3347  0.7459
  151SAPE  H16S16759   5.452   3.075   9.620  0.2858 -1.4919  1.5950
  151SAPE  C21716760   5.446   3.073   9.410 -0.2133  0.6337  1.2450
  151SAPE  H17R16761   5.540   3.129   9.426  1.3899 -1.7490  0.7436
  151SAPE  H17S16762   5.368   3.147   9.380 -0.6041 -0.3489 -0.2901
  151SAPE  C21816763   5.488   2.986   9.289 -0.0159  0.2051 -0.4095
  151SAPE  H18R16764   5.420   2.899   9.292 -0.8510  0.8289 -0.9968
  151SAPE  H18S16765   5.591   2.945   9.296  0.7123  1.9705 -0.2220
  151SAPE  C21916766   5.480   3.063   9.157 -0.0318 -0.1546 -0.8164
  151SAPE  H19R16767   5.547   3.012   9.084 -0.7911 -0.5344 -1.2633
  151SAPE  H19S16768   5.506   3.168   9.179 -1.5808 -0.1339  1.2746
  151SAPE  C22016769   5.341   3.061   9.097 -0.3984  0.4798  0.3816
  151SAPE  H20R16770   5.283   2.966   9.105  0.7700 -0.4446 -1.5187
  151SAPE  H20S16771   5.344   3.098   8.993  0.6577 -1.1284 -0.1843
  151SAPE  H20T16772   5.280   3.141   9.145 -2.4638 -0.3147 -0.7928
  151SAPE   C3316773   5.567   2.646   9.803  0.9460 -0.0694 -1.2067
  151SAPE   H3X16774   5.673   2.616   9.820  0.2469 -1.0305  2.3472
  151SAPE   H3Y16775   5.544   2.755   9.798 -0.4054 -0.3809 -2.3825
  151SAPE   C3416776   5.507   2.578   9.679  0.3421 -0.2390 -0.0710
  151SAPE   H4X16777   5.406   2.617   9.654  0.3338  1.3072  2.1183
  151SAPE   H4Y16778   5.498   2.470   9.700 -0.2285 -0.6188 -2.0359
  151SAPE   C3516779   5.582   2.618   9.552 -0.4591  0.4867 -0.0641
  151SAPE   H5X16780   5.684   2.656   9.576 -1.6723  2.7433  1.8802
  151SAPE   H5Y16781   5.527   2.707   9.515 -2.4410  0.4620  2.5512
  151SAPE   C3616782   5.600   2.501   9.456 -0.2857 -0.3807  0.3102
  151SAPE   H6X16783   5.501   2.474   9.415 -0.0750  0.3477 -0.7278
  151SAPE   H6Y16784   5.640   2.412   9.509 -0.5465 -0.1552  0.8951
  151SAPE   C3716785   5.699   2.522   9.342 -0.1322  0.7305  0.7667
  151SAPE   H7X16786   5.747   2.429   9.306 -1.1178  0.2682  0.6025
  151SAPE   H7Y16787   5.779   2.587   9.382  0.4683  2.7016 -3.1435
  151SAPE   C3816788   5.640   2.594   9.217 -0.1202 -0.1628 -1.0386
  151SAPE   H8X16789   5.614   2.696   9.251  0.2691 -0.9063  1.7572
  151SAPE   H8Y16790   5.546   2.543   9.187 -1.0291  1.1328 -0.4650
  151SAPE   C3916791   5.742   2.592   9.104 -0.6078 -0.0127  0.2781
  151SAPE   H9X16792   5.780   2.488   9.094  0.6768  0.1744  2.5235
  151SAPE   H9Y16793   5.828   2.654   9.139 -0.8086  0.0251  0.7007
  151SAPE  C31016794   5.682   2.635   8.974 -0.3254 -0.1486  0.3022
  151SAPE  H10X16795   5.651   2.741   8.985  2.0325  0.8143 -1.4686
  151SAPE  H10Y16796   5.604   2.566   8.937  1.3743 -1.4890 -0.9750
  151SAPE  C31116797   5.784   2.636   8.862  0.2193  0.3471 -0.2188
  151SAPE  H11X16798   5.824   2.535   8.838 -0.2048 -0.6075  2.6653
  151SAPE  H11Y16799   5.872   2.694   8.898 -0.1590  0.9867 -0.3120
  151SAPE  C31216800   5.737   2.712   8.742  0.5318  0.4270 -0.0249
  151SAPE  H12X16801   5.702   2.814   8.769 -1.6493  0.6310 -3.0871
  151SAPE  H12Y16802   5.657   2.656   8.689 -1.1527 -0.0960  2.8363
  151SAPE  C31316803   5.859   2.728   8.647 -0.3358  0.8184 -0.6022
  151SAPE  H13X16804   5.895   2.626   8.622  1.5321  1.4550 -0.6687
  151SAPE  H13Y16805   5.944   2.776   8.699  1.4212  0.6517 -3.1490
  151SAPE  C31416806   5.840   2.809   8.517  0.0574  0.5875  0.6028
  151SAPE  H14X16807   5.812   2.914   8.536  1.0844  1.1988 -1.0409
  151SAPE  H14Y16808   5.752   2.768   8.463  0.5713 -1.4226  1.1966
  151SAPE  C31516809   5.962   2.776   8.431 -0.2681 -0.2801 -0.0881
  151SAPE  H15X16810   5.977   2.665   8.430  0.1618 -0.2292  0.2611
  151SAPE  H15Y16811   6.049   2.813   8.490 -2.4405  1.5882  2.0932
  151SAPE  C31616812   5.955   2.830   8.293  1.0305  0.5026 -0.0030
  151SAPE  H16X16813   5.925   2.936   8.306  0.8393  0.4513 -0.0306
  151SAPE  H16Y16814   5.869   2.787   8.237 -0.1340  1.2579  1.1530
  151SAPE  C31716815   6.087   2.822   8.212 -0.1247  0.2358 -0.1517
  151SAPE  H17X16816   6.171   2.823   8.285  0.5550  1.3742 -0.9275
  151SAPE  H17Y16817   6.090   2.913   8.150  2.1465 -0.3868 -1.0534
  151SAPE  C31816818   6.089   2.692   8.134  0.3513 -0.2987 -0.9183
  151SAPE  H18X16819   6.175   2.689   8.064  1.6180  0.4716  0.5407
  151SAPE  H18Y16820   5.995   2.671   8.078 -1.6571  2.3458  1.1793
  151SAPE  H18Z16821   6.094   2.610   8.209 -0.3113  0.2564 -0.2583
  152SAPE     N16822   6.562   0.085  10.910 -0.3252  0.0440  0.1117
  152SAPE   HN116823   6.567  -0.019  10.898  2.0524  0.3903 -3.0694
  152SAPE   HN216824   6.613   0.100  11.000  1.6520 -2.5107 -0.4591
  152SAPE   HN316825   6.466   0.121  10.922 -0.8202 -1.4955  1.1662
  152SAPE   C1216826   6.650   0.141  10.800  0.8877  0.6645  0.3499
  152SAPE  H12A16827   6.655   0.252  10.806  1.2790  0.5669  2.6293
  152SAPE  H12B16828   6.610   0.106  10.703 -2.5451 -0.1527  1.8987
  152SAPE   C1116829   6.790   0.078  10.820  0.0938  0.4810 -0.1530
  152SAPE  H11A16830   6.850   0.085  10.727  1.1354  0.1622  0.4874
  152SAPE  H11B16831   6.783  -0.031  10.835 -0.7471  0.1140 -2.7110
  152SAPE     P16832   6.956   0.231  10.951  0.0307 -0.0100  0.1889
  152SAPE   O1316833   6.895   0.357  10.919 -0.3547 -0.4990 -0.7151
  152SAPE   O1416834   7.016   0.202  11.082 -0.1733 -0.0352  0.3135
  152SAPE   O1216835   6.838   0.134  10.942 -0.2428  0.2001 -0.0072
  152SAPE   O1116836   7.057   0.187  10.839  0.0231  0.1133  0.2707
  152SAPE    C116837   7.169   0.268  10.800  0.7899  0.0616  0.2062
  152SAPE    HA16838   7.191   0.352  10.868 -0.3874  1.7658 -1.4327
  152SAPE    HB16839   7.258   0.201  10.799  0.6440 -0.1381  0.3242
  152SAPE    C216840   7.125   0.341  10.666 -0.8765  1.1501  0.0128
  152SAPE    HS16841   7.046   0.415  10.692 -0.7482  1.3672 -0.2024
  152SAPE   O2116842   7.090   0.238  10.563 -0.0186  0.5723 -0.2234
  152SAPE   C2116843   6.980   0.259  10.500  0.0069  0.4469 -0.9490
  152SAPE   O2216844   6.894   0.348  10.521 -0.3602  0.2260 -0.0009
  152SAPE   C2216845   6.963   0.163  10.378  0.1385 -0.1348  0.4874
  152SAPE   H2R16846   7.065   0.147  10.337 -0.4812 -2.6908 -0.2280
  152SAPE   H2S16847   6.931   0.062  10.409  2.8112 -2.0101 -2.3224
  152SAPE    C316848   7.247   0.429  10.610 -0.7580 -0.7109  0.5498
  152SAPE    HX16849   7.333   0.366  10.582 -1.6837 -1.1637 -1.4580
  152SAPE    HY16850   7.280   0.494  10.694  1.1860 -0.7170 -0.1649
  152SAPE   O3116851   7.201   0.514  10.504  0.5693  0.3171  0.5178
  152SAPE   C3116852   7.277   0.514  10.391  0.6155 -0.3175  0.6644
  152SAPE   O3216853   7.373   0.442  10.368 -0.5164 -0.0839 -0.3622
  152SAPE   C3216854   7.212   0.595  10.280 -0.6422 -0.1342  0.4102
  152SAPE   H2X16855   7.291   0.638  10.215 -0.7219  0.0204  0.4154
  152SAPE   H2Y16856   7.161   0.684  10.322  2.5368  0.7391  2.7695
  152SAPE   C2316857   6.865   0.207  10.266 -0.4823  0.6441  0.4095
  152SAPE   H3R16858   6.873   0.313  10.236 -1.1369  0.2782 -1.1740
  152SAPE   H3S16859   6.762   0.187  10.305 -0.5726 -0.1834 -0.2068
  152SAPE   C2416860   6.883   0.121  10.139 -0.8404  0.2275  0.5847
  152SAPE   H4R16861   6.825   0.028  10.161  3.0140 -2.4537  0.3704
  152SAPE   H4S16862   6.989   0.088  10.135 -1.5088 -2.0975  0.5090
  152SAPE   C2516863   6.834   0.180  10.010 -0.0709 -0.5395 -0.6119
  152SAPE   H5R16864   6.758   0.259  10.013  0.3338 -0.1432 -0.6335
  152SAPE   C2616865   6.873   0.141   9.885 -0.0666  0.6922  0.7960
  152SAPE   H6R16866   6.818   0.170   9.794  0.4832 -1.6498 -0.3566
  152SAPE   C2716867   6.974   0.032   9.856  0.1848  0.8853  0.3098
  152SAPE   H7R16868   7.048   0.035   9.939 -1.9219  1.1037  2.2741
  152SAPE   H7S16869   7.024   0.052   9.759 -0.0391  0.1138  0.0257
  152SAPE   C2816870   6.915  -0.104   9.863 -0.1094 -0.5925  0.1545
  152SAPE   H8R16871   6.894  -0.138   9.966  1.5404  0.8725  1.0210
  152SAPE   C2916872   6.852  -0.170   9.764  0.1694  0.0453 -0.2491
  152SAPE   H9R16873   6.816  -0.272   9.781 -0.3293 -0.5175 -3.9219
  152SAPE  C21016874   6.840  -0.135   9.622 -0.0277 -0.3500 -0.6547
  152SAPE  H10R16875   6.825  -0.231   9.567 -2.5243  0.1835 -1.0239
  152SAPE  H10S16876   6.935  -0.091   9.585  1.9565 -2.4513  1.6142
  152SAPE  C21116877   6.719  -0.054   9.579 -0.0729 -0.3678  0.0762
  152SAPE  H11R16878   6.639  -0.057   9.654 -1.0398  0.7213 -0.8694
  152SAPE  C21216879   6.691  -0.012   9.458 -0.5859 -1.1217  0.0465
  152SAPE  H12R16880   6.608   0.060   9.453  1.5888  1.9609  3.7028
  152SAPE  C21316881   6.783  -0.023   9.344  0.1958 -0.2933  0.0047
  152SAPE  H13R16882   6.879  -0.068   9.374 -0.6762 -0.4905  2.7304
  152SAPE  H13S16883   6.805   0.080   9.308 -2.0156  1.2056  2.5381
  152SAPE  C21416884   6.738  -0.117   9.240  0.0820 -0.2728  0.6723
  152SAPE  H14R16885   6.631  -0.119   9.216  0.4008 -1.9762 -0.9143
  152SAPE  C21516886   6.813  -0.183   9.150  0.2540  0.3218 -0.2123
  152SAPE  H15R16887   6.768  -0.264   9.092 -0.9884  0.7810  0.0868
  152SAPE  C21616888   6.962  -0.177   9.135 -0.3194 -0.0651  0.3319
  152SAPE  H16R16889   7.015  -0.157   9.231  0.1706 -2.0356  0.5066
  152SAPE  H16S16890   6.988  -0.086   9.077  3.0323 -0.0974  1.5516
  152SAPE  C21716891   7.031  -0.301   9.075 -0.4232 -0.7142 -0.7747
  152SAPE  H17R16892   6.997  -0.395   9.124  1.3023 -0.8904  0.1464
  152SAPE  H17S16893   7.139  -0.306   9.100 -0.2096 -0.4662 -1.6243
  152SAPE  C21816894   7.027  -0.309   8.919 -0.0614 -0.0169  0.1034
  152SAPE  H18R16895   7.058  -0.209   8.882  3.2447 -0.8875  0.1585
  152SAPE  H18S16896   6.923  -0.330   8.888 -0.7987 -0.1629  2.4492
  152SAPE  C21916897   7.120  -0.414   8.859 -0.9681 -0.0561  0.5078
  152SAPE  H19R16898   7.047  -0.483   8.812 -3.4926  1.6283  1.7438
  152SAPE  H19S16899   7.187  -0.450   8.941 -0.7190 -0.2375  0.2240
  152SAPE  C22016900   7.215  -0.360   8.747  0.4213 -0.0447  0.2318
  152SAPE  H20R16901   7.281  -0.442   8.712 -0.5458 -0.3542 -0.9455
  152SAPE  H20S16902   7.274  -0.280   8.795 -0.7223  0.6010  0.6065
  152SAPE  H20T16903   7.154  -0.319   8.664  1.6270 -2.1022 -1.7894
  152SAPE   C3316904   7.103   0.507  10.201 -0.2050 -0.4764  0.4756
  152SAPE   H3X16905   7.044   0.449  10.275 -2.8077  2.0919  0.5923
  152SAPE   H3Y16906   7.161   0.435  10.139 -0.0993  0.5712 -0.6938
  152SAPE   C3416907   7.016   0.583  10.098 -0.3682 -0.4020 -0.2377
  152SAPE   H4X16908   6.979   0.684  10.129 -1.6395  0.4773 -4.1174
  152SAPE   H4Y16909   6.923   0.527  10.074 -0.5277 -0.4076  0.3568
  152SAPE   C3516910   7.097   0.610   9.971  0.1972  0.5130  0.5548
  152SAPE   H5X16911   7.185   0.675   9.989  0.2483  0.4680  0.4697
  152SAPE   H5Y16912   7.031   0.668   9.901  0.8258 -2.4033 -2.7336
  152SAPE   C3616913   7.119   0.480   9.894 -1.0468  0.6458 -0.0825
  152SAPE   H6X16914   7.024   0.423   9.892  0.3361 -1.8857  1.2541
  152SAPE   H6Y16915   7.198   0.415   9.937 -0.1118  1.7951 -0.0105
  152SAPE   C3716916   7.163   0.495   9.749 -0.3415 -0.1694 -0.0859
  152SAPE   H7X16917   7.268   0.527   9.734 -1.0886  0.5403 -5.9028
  152SAPE   H7Y16918   7.113   0.587   9.713 -0.3168 -0.7359 -1.6574
  152SAPE   C3816919   7.129   0.383   9.642  0.3546 -0.1512 -0.3491
  152SAPE   H8X16920   7.019   0.363   9.646  0.3914 -0.8031 -2.0407
  152SAPE   H8Y16921   7.170   0.287   9.680  0.5333 -1.0415 -2.6868
  152SAPE   C3916922   7.180   0.403   9.505 -0.0287 -0.2047  1.0490
  152SAPE   H9X16923   7.291   0.407   9.511  0.1974 -2.6852 -0.1478
  152SAPE   H9Y16924   7.145   0.505   9.477 -3.1598 -1.6531 -0.8698
  152SAPE  C31016925   7.125   0.298   9.409 -0.5059  0.7647  0.7208
  152SAPE  H10X16926   7.016   0.293   9.426 -0.8190  1.4561 -0.9244
  152SAPE  H10Y16927   7.161   0.197   9.441 -1.3258  0.1117 -0.3648
  152SAPE  C31116928   7.154   0.329   9.268 -0.2191  1.0264  0.7869
  152SAPE  H11X16929   7.259   0.312   9.237  0.3250 -2.9013  3.9474
  152SAPE  H11Y16930   7.128   0.437   9.271  0.6096  1.2149  2.6349
  152SAPE  C31216931   7.071   0.244   9.170 -0.2685  0.1383  0.5455
  152SAPE  H12X16932   6.967   0.272   9.196 -0.7121  0.8803 -1.8116
  152SAPE  H12Y16933   7.067   0.134   9.189 -3.8661 -0.0664 -0.6944
  152SAPE  C31316934   7.105   0.277   9.022 -0.4522 -0.1516  0.7342
  152SAPE  H13X16935   7.213   0.283   8.999 -0.8054  0.2636 -0.9339
  152SAPE  H13Y16936   7.052   0.375   9.013 -0.9576 -0.4527  0.3911
  152SAPE  C31416937   7.043   0.179   8.922 -0.3972 -0.5822  0.1516
  152SAPE  H14X16938   6.938   0.152   8.948 -0.1437 -1.5868  0.1966
  152SAPE  H14Y16939   7.111   0.091   8.925  0.2889 -0.0567  0.2069
  152SAPE  C31516940   7.040   0.231   8.777  0.4574  0.1290  0.4987
  152SAPE  H15X16941   7.139   0.264   8.739  0.2549 -1.1359 -1.2288
  152SAPE  H15Y16942   6.973   0.319   8.788  0.4268 -0.0767  2.1792
  152SAPE  C31616943   6.977   0.136   8.673 -0.3958  1.0090 -0.3746
  152SAPE  H16X16944   6.869   0.159   8.657 -0.1104  2.1959 -0.7302
  152SAPE  H16Y16945   6.989   0.032   8.710 -2.5166  1.0677  0.6202
  152SAPE  C31716946   7.047   0.156   8.538  0.4524  0.2327 -0.1947
  152SAPE  H17X16947   7.005   0.081   8.468  1.3313 -1.1363  0.6990
  152SAPE  H17Y16948   7.153   0.133   8.558  1.3722  1.7132 -2.8994
  152SAPE  C31816949   7.039   0.295   8.473  0.0597 -0.7717 -0.0912
  152SAPE  H18X16950   7.120   0.322   8.402  0.5023  0.0298  0.6980
  152SAPE  H18Y16951   7.042   0.372   8.553 -0.9941 -1.1333  0.3151
  152SAPE  H18Z16952   6.938   0.302   8.427  1.1206 -3.3512 -3.1992
  153SAPE     N16953   2.236   2.873  10.972  0.1197  0.0453 -0.2770
  153SAPE   HN116954   2.144   2.917  10.990  1.1822  1.9492  0.9045
  153SAPE   HN216955   2.237   2.781  11.022 -0.8697 -0.6530 -1.4870
  153SAPE   HN316956   2.309   2.938  11.009 -0.7928  0.6210  0.5759
  153SAPE   C1216957   2.261   2.847  10.826 -0.4728  0.0083  0.3525
  153SAPE  H12A16958   2.279   2.942  10.771  2.3020 -0.8035 -0.3073
  153SAPE  H12B16959   2.183   2.781  10.783 -1.6139  1.0930  0.6801
  153SAPE   C1116960   2.397   2.777  10.819 -0.5707  0.3530  0.3521
  153SAPE  H11A16961   2.440   2.750  10.720  0.3401 -1.7699  1.2818
  153SAPE  H11B16962   2.377   2.685  10.878  0.8059 -0.3232 -0.2004
  153SAPE     P16963   2.632   2.802  10.928 -0.0269  0.0066 -0.1306
  153SAPE   O1316964   2.659   2.884  11.055 -0.1830  0.1680  0.7217
  153SAPE   O1416965   2.629   2.654  10.952 -0.2149 -0.9809  0.0487
  153SAPE   O1216966   2.489   2.858  10.886 -0.7022  0.1218  0.5839
  153SAPE   O1116967   2.733   2.837  10.815 -0.1688 -0.6089  0.1815
  153SAPE    C116968   2.725   2.954  10.743 -0.7794  0.7860  0.5747
  153SAPE    HA16969   2.668   3.036  10.792 -2.4555  1.0757 -1.7050
  153SAPE    HB16970   2.823   3.002  10.725  0.9583 -2.9756 -1.0615
  153SAPE    C216971   2.667   2.932  10.591  0.3891 -0.1497 -0.0871
  153SAPE    HS16972   2.560   2.900  10.598 -0.5618  2.9773  1.0435
  153SAPE   O2116973   2.752   2.822  10.532 -0.1177 -0.3368  0.1128
  153SAPE   C2116974   2.697   2.765  10.436 -0.4724 -0.2564 -0.1774
  153SAPE   O2216975   2.581   2.770  10.405  0.2527 -0.4706  0.1738
  153SAPE   C2216976   2.800   2.692  10.351 -0.1647 -0.0301  0.2010
  153SAPE   H2R16977   2.849   2.619  10.420 -0.6358 -2.5850 -2.0245
  153SAPE   H2S16978   2.747   2.634  10.273  1.5817 -0.1453 -0.9637
  153SAPE    C316979   2.685   3.065  10.506  0.8271 -0.5383  0.2467
  153SAPE    HX16980   2.795   3.076  10.502  0.8634 -0.6789  0.7675
  153SAPE    HY16981   2.651   3.155  10.562  2.3500  0.2642 -0.0693
  153SAPE   O3116982   2.627   3.058  10.367  0.1936 -0.1597 -0.4308
  153SAPE   C3116983   2.491   3.058  10.372  0.5614  0.6733 -0.1374
  153SAPE   O3216984   2.421   3.067  10.473 -0.4598  0.4531 -0.4145
  153SAPE   C3216985   2.434   3.032  10.229 -0.3081 -0.3260  0.4317
  153SAPE   H2X16986   2.323   3.035  10.227 -0.4676 -3.1264 -1.0645
  153SAPE   H2Y16987   2.462   2.929  10.196  1.6966  0.6075 -1.0588
  153SAPE   C2316988   2.904   2.781  10.283 -0.1203 -0.1216  0.8182
  153SAPE   H3R16989   2.988   2.714  10.254  0.3816  0.6769  0.4194
  153SAPE   H3S16990   2.943   2.851  10.360  2.7735 -1.3913  0.6396
  153SAPE   C2416991   2.838   2.845  10.158 -0.2478  0.2706 -0.6580
  153SAPE   H4R16992   2.733   2.876  10.174  0.4912  3.3194 -1.1080
  153SAPE   H4S16993   2.846   2.767  10.079  0.3748 -0.3156 -0.0268
  153SAPE   C2516994   2.910   2.973  10.126 -0.1960  0.0833  1.2804
  153SAPE   H5R16995   2.907   3.052  10.202  3.4920  1.9538 -0.2371
  153SAPE   C2616996   2.966   3.012  10.006 -0.2524 -0.2593  0.6190
  153SAPE   H6R16997   3.012   3.111   9.996 -0.6179 -0.2239 -0.8911
  153SAPE   C2716998   2.982   2.941   9.879 -0.4443  0.3481 -0.2555
  153SAPE   H7R16999   3.035   2.843   9.878 -1.2217 -0.1113 -2.5545
  153SAPE   H7S17000   3.051   3.006   9.820 -0.3795 -0.6923 -1.3756
  153SAPE   C2817001   2.852   2.925   9.808  0.1568 -0.1444  0.2005
  153SAPE   H8R17002   2.770   2.948   9.877 -0.3794 -1.7073  0.1256
  153SAPE   C2917003   2.827   2.876   9.684 -0.2067 -0.5307  0.2736
  153SAPE   H9R17004   2.723   2.872   9.647 -0.3360  0.4842  0.5208
  153SAPE  C21017005   2.935   2.826   9.590 -1.4413  0.6792 -0.6991
  153SAPE  H10R17006   2.933   2.724   9.548  0.9145 -0.5606  1.8588
  153SAPE  H10S17007   3.036   2.837   9.635 -1.6334  0.8565 -0.3017
  153SAPE  C21117008   2.925   2.910   9.461 -0.3851 -0.0139 -0.1579
  153SAPE  H11R17009   2.989   3.000   9.457 -1.3537  0.7142  0.3593
  153SAPE  C21217010   2.839   2.894   9.356  0.5381  0.4965  0.0569
  153SAPE  H12R17011   2.825   2.970   9.278 -0.0817  0.0726 -0.2535
  153SAPE  C21317012   2.725   2.794   9.360 -0.1963  0.6202 -0.1556
  153SAPE  H13R17013   2.741   2.720   9.442  0.1695  0.6381 -0.2105
  153SAPE  H13S17014   2.740   2.734   9.268 -0.5253 -0.3947  0.4310
  153SAPE  C21417015   2.585   2.848   9.372 -0.1070  0.0399 -0.4071
  153SAPE  H14R17016   2.550   2.863   9.475  1.5380  0.2056  0.1635
  153SAPE  C21517017   2.501   2.886   9.282  0.5948 -0.3865  0.3191
  153SAPE  H15R17018   2.404   2.923   9.318  0.2111 -0.6301 -0.4264
  153SAPE  C21617019   2.519   2.882   9.131 -0.2263  0.1424 -0.0489
  153SAPE  H16R17020   2.627   2.872   9.105 -0.7196 -3.4172 -1.3774
  153SAPE  H16S17021   2.477   2.970   9.078  0.1683 -0.1813 -0.9263
  153SAPE  C21717022   2.450   2.760   9.079 -0.3084  0.6716  0.0374
  153SAPE  H17R17023   2.339   2.761   9.090 -0.2390  0.0457  0.9313
  153SAPE  H17S17024   2.489   2.674   9.138 -1.0194 -0.4971 -1.1280
  153SAPE  C21817025   2.483   2.734   8.927  0.8410 -0.0115  0.4937
  153SAPE  H18R17026   2.587   2.722   8.891  0.2199 -0.6162 -1.2218
  153SAPE  H18S17027   2.461   2.827   8.869  0.0244 -1.1775 -1.1556
  153SAPE  C21917028   2.399   2.616   8.875 -0.2940 -0.5416 -0.8607
  153SAPE  H19R17029   2.295   2.633   8.912  0.9369 -0.4916  3.0502
  153SAPE  H19S17030   2.440   2.524   8.922  0.3791  1.0069  1.8072
  153SAPE  C22017031   2.396   2.598   8.720 -0.0330  0.2713  0.9693
  153SAPE  H20R17032   2.309   2.535   8.693  0.3127 -0.3698  1.3108
  153SAPE  H20S17033   2.479   2.528   8.697 -0.6143  0.3328 -1.6222
  153SAPE  H20T17034   2.398   2.690   8.658  0.4552 -0.5196 -0.2220
  153SAPE   C3317035   2.486   3.138  10.122 -0.2497 -0.3342 -0.1352
  153SAPE   H3X17036   2.596   3.125  10.113  0.0527  2.0025 -0.3219
  153SAPE   H3Y17037   2.461   3.243  10.149 -2.7414 -0.9235  0.0758
  153SAPE   C3417038   2.427   3.113   9.978  0.1166 -0.0332 -0.6082
  153SAPE   H4X17039   2.326   3.157   9.962 -0.7033 -1.7162 -0.3024
  153SAPE   H4Y17040   2.407   3.004   9.969 -1.5714  0.2386 -0.6501
  153SAPE   C3517041   2.522   3.158   9.863  0.2279  0.2997  0.0040
  153SAPE   H5X17042   2.608   3.089   9.879 -0.3416 -0.4844 -0.2391
  153SAPE   H5Y17043   2.568   3.259   9.869 -1.2114  1.1264 -1.8293
  153SAPE   C3617044   2.470   3.149   9.715  0.0798  0.2388 -0.5562
  153SAPE   H6X17045   2.399   3.233   9.700 -1.1549 -1.0460 -2.3938
  153SAPE   H6Y17046   2.406   3.058   9.715 -0.9392  0.9321 -1.8200
  153SAPE   C3717047   2.583   3.153   9.611  0.0657  0.5652 -0.4535
  153SAPE   H7X17048   2.609   3.048   9.586  0.3049  0.5819 -0.2763
  153SAPE   H7Y17049   2.676   3.189   9.659 -0.0399  0.2891 -0.0362
  153SAPE   C3817050   2.555   3.230   9.479  0.0653 -0.3593 -0.0264
  153SAPE   H8X17051   2.450   3.208   9.449 -0.4312  1.5810  0.0960
  153SAPE   H8Y17052   2.625   3.186   9.405 -0.4669 -0.9311 -0.1983
  153SAPE   C3917053   2.575   3.383   9.512  0.9777  0.7653  0.0871
  153SAPE   H9X17054   2.677   3.397   9.555  1.0222  1.7859 -0.3182
  153SAPE   H9Y17055   2.491   3.407   9.581  1.1785  1.7504  0.0092
  153SAPE  C31017056   2.573   3.477   9.396  0.0934  0.1127 -0.4168
  153SAPE  H10X17057   2.662   3.445   9.340  2.0865 -0.3092  2.7157
  153SAPE  H10Y17058   2.589   3.581   9.434 -1.0361  0.7424 -1.5962
  153SAPE  C31117059   2.444   3.469   9.318 -0.1673  0.3850  0.9327
  153SAPE  H11X17060   2.351   3.468   9.378 -0.5250  1.1845  0.4082
  153SAPE  H11Y17061   2.457   3.381   9.252 -0.8255 -0.9334  2.4972
  153SAPE  C31217062   2.441   3.591   9.226 -0.5208  0.1944 -0.4690
  153SAPE  H12X17063   2.542   3.597   9.180  0.0060  1.1034  0.7326
  153SAPE  H12Y17064   2.420   3.684   9.285  0.6982 -0.8477  1.7529
  153SAPE  C31317065   2.326   3.593   9.123  0.7564  0.6718 -0.4742
  153SAPE  H13X17066   2.298   3.488   9.100  0.7759  0.6965 -0.6161
  153SAPE  H13Y17067   2.354   3.650   9.032 -0.1806  1.9653  0.0191
  153SAPE  C31417068   2.197   3.654   9.182 -0.3141 -0.3996  0.3889
  153SAPE  H14X17069   2.225   3.753   9.224 -0.1260 -0.3991  0.2615
  153SAPE  H14Y17070   2.165   3.587   9.265 -0.7518 -0.2879  0.3128
  153SAPE  C31517071   2.079   3.642   9.079 -0.6192  0.4571 -0.0743
  153SAPE  H15X17072   1.982   3.666   9.129 -0.7642 -0.8579  0.3033
  153SAPE  H15Y17073   2.068   3.535   9.052  1.7511 -0.9142  3.6815
  153SAPE  C31617074   2.102   3.719   8.944  0.1959 -0.3653 -0.3872
  153SAPE  H16X17075   2.201   3.693   8.901 -0.3198 -0.6844 -1.4202
  153SAPE  H16Y17076   2.090   3.828   8.958 -2.0260 -0.8047  1.9356
  153SAPE  C31717077   1.999   3.664   8.847  0.0667  0.1727 -0.0913
  153SAPE  H17X17078   1.896   3.680   8.887  0.0295 -2.3445  1.0056
  153SAPE  H17Y17079   2.016   3.554   8.843  0.5443  0.0754  2.5743
  153SAPE  C31817080   2.019   3.714   8.706  0.3801  0.4538  0.6144
  153SAPE  H18X17081   2.129   3.717   8.690  0.7064  0.3064  2.5588
  153SAPE  H18Y17082   1.980   3.816   8.689  2.9049  1.3867 -0.0504
  153SAPE  H18Z17083   1.970   3.637   8.642 -0.7533  1.2969  0.4440
  154SAPE     N17084   0.465   2.226  10.747  0.2418  0.7827  0.3146
  154SAPE   HN117085   0.507   2.135  10.719  0.1500  0.5156  1.0137
  154SAPE   HN217086   0.527   2.256  10.825  2.7030  0.6777 -1.4990
  154SAPE   HN317087   0.368   2.212  10.783  0.2906  2.2770  1.1110
  154SAPE   C1217088   0.457   2.341  10.648  0.0914 -0.9909 -0.2185
  154SAPE  H12A17089   0.378   2.410  10.684  1.5402  0.7379 -0.2279
  154SAPE  H12B17090   0.417   2.308  10.549 -1.0732 -0.8440  0.1879
  154SAPE   C1117091   0.583   2.425  10.647 -0.2325 -0.9271  0.2116
  154SAPE  H11A17092   0.560   2.501  10.570  0.8692 -1.8930 -1.1269
  154SAPE  H11B17093   0.666   2.365  10.605 -0.5295 -1.3845  0.2674
  154SAPE     P17094   0.689   2.621  10.789  0.0335 -0.4274 -0.2180
  154SAPE   O1317095   0.577   2.715  10.770  1.1395 -0.1808  0.0793
  154SAPE   O1417096   0.763   2.631  10.914 -0.0261  0.3101 -0.3166
  154SAPE   O1217097   0.630   2.475  10.777 -0.0103  0.4879 -0.4550
  154SAPE   O1117098   0.782   2.611  10.666  0.1350 -0.1911  0.2279
  154SAPE    C117099   0.855   2.719  10.607 -0.0640  0.0588 -0.0013
  154SAPE    HA17100   0.785   2.790  10.559 -1.5347 -2.3946 -1.7519
  154SAPE    HB17101   0.926   2.761  10.681 -0.4238  0.2770  0.2240
  154SAPE    C217102   0.936   2.666  10.490 -0.1271  0.0639 -0.2090
  154SAPE    HS17103   1.008   2.590  10.528 -0.2205 -0.3394 -0.8321
  154SAPE   O2117104   0.983   2.783  10.418  0.4248  0.6799 -0.1406
  154SAPE   C2117105   1.090   2.847  10.475  0.2804 -0.5831 -0.4072
  154SAPE   O2217106   1.159   2.806  10.566  0.4597 -0.3816 -0.1371
  154SAPE   C2217107   1.120   2.970  10.391 -0.1940  0.0160 -0.0412
  154SAPE   H2R17108   1.095   2.945  10.286  1.1897  0.1057 -0.4238
  154SAPE   H2S17109   1.077   3.065  10.429  0.9818  0.1313  1.0842
  154SAPE    C317110   0.851   2.580  10.394  0.6361 -0.1329  0.7717
  154SAPE    HX17111   0.782   2.650  10.343 -0.5044 -0.4893  1.7785
  154SAPE    HY17112   0.775   2.511  10.437 -0.6501 -0.3750 -1.7072
  154SAPE   O3117113   0.937   2.517  10.300  0.5940 -0.0690 -0.5484
  154SAPE   C3117114   0.867   2.435  10.227 -0.0992 -0.1990 -0.7760
  154SAPE   O3217115   0.748   2.412  10.233  0.2285 -0.0200 -0.2316
  154SAPE   C3217116   0.966   2.355  10.135  0.4765  0.9016 -0.4724
  154SAPE   H2X17117   1.016   2.274  10.191  0.4717 -0.2055 -1.9983
  154SAPE   H2Y17118   1.041   2.430  10.102  1.0622 -0.4306 -2.2976
  154SAPE   C2317119   1.273   2.992  10.390  0.0224 -0.2091  0.4939
  154SAPE   H3R17120   1.330   2.896  10.390 -2.3826 -1.7430 -0.7121
  154SAPE   H3S17121   1.301   3.043  10.484  0.9579 -0.0525  0.1390
  154SAPE   C2417122   1.317   3.080  10.275  0.6784 -0.3410 -0.2430
  154SAPE   H4R17123   1.426   3.099  10.279  0.4563  1.0692 -0.5008
  154SAPE   H4S17124   1.268   3.177  10.296  2.8627  0.6064  0.7605
  154SAPE   C2517125   1.287   3.019  10.138  0.1425 -0.7395 -0.0511
  154SAPE   H5R17126   1.332   2.922  10.111  0.3090 -0.4758 -0.7295
  154SAPE   C2617127   1.207   3.076  10.053  0.5998 -0.7371 -0.3982
  154SAPE   H6R17128   1.183   3.015   9.965  1.8100 -2.6844  0.5656
  154SAPE   C2717129   1.119   3.205  10.072 -0.8050 -0.6691  1.0718
  154SAPE   H7R17130   1.093   3.233  10.176 -2.0048  0.6853  0.4348
  154SAPE   H7S17131   1.020   3.175  10.030  0.5897 -0.4057 -2.8157
  154SAPE   C2817132   1.171   3.321   9.999 -0.1680 -1.2040  0.0118
  154SAPE   H8R17133   1.230   3.390  10.060 -2.4321  0.5233  0.3821
  154SAPE   C2917134   1.171   3.341   9.866 -0.5876  0.9328  0.9332
  154SAPE   H9R17135   1.214   3.435   9.829  0.6621  0.1141  0.2505
  154SAPE  C21017136   1.110   3.258   9.758 -0.6029  0.4930  0.6571
  154SAPE  H10R17137   1.048   3.325   9.694  1.2236  1.3079 -0.3263
  154SAPE  H10S17138   1.034   3.190   9.801  1.0031 -0.1813  2.5887
  154SAPE  C21117139   1.206   3.175   9.677 -0.0590  0.1467  0.5889
  154SAPE  H11R17140   1.283   3.123   9.736  1.4761  0.3860 -1.0984
  154SAPE  C21217141   1.209   3.159   9.544 -0.5728  0.0234  0.3118
  154SAPE  H12R17142   1.290   3.109   9.491 -0.4943  0.7522 -0.2660
  154SAPE  C21317143   1.113   3.216   9.445  0.0464 -1.1083  0.0459
  154SAPE  H13R17144   1.020   3.241   9.501  1.1222 -0.7317  1.7150
  154SAPE  H13S17145   1.084   3.147   9.362 -1.9399  1.8015 -1.8789
  154SAPE  C21417146   1.158   3.342   9.383 -0.0507  0.0196  0.1759
  154SAPE  H14R17147   1.094   3.427   9.410  0.4463  0.9300 -1.3715
  154SAPE  C21517148   1.249   3.358   9.286 -0.3012  1.1578 -0.5285
  154SAPE  H15R17149   1.276   3.463   9.270 -0.6872  1.4092  0.4176
  154SAPE  C21617150   1.333   3.251   9.215 -0.0147  0.0255 -0.4561
  154SAPE  H16R17151   1.348   3.168   9.287 -0.8776 -0.3860 -0.7349
  154SAPE  H16S17152   1.424   3.302   9.178  0.2218 -0.6907 -0.8795
  154SAPE  C21717153   1.246   3.195   9.097  0.9514  0.0348  0.3198
  154SAPE  H17R17154   1.138   3.218   9.109  0.7225 -0.2802 -0.9610
  154SAPE  H17S17155   1.271   3.087   9.092  2.0166  0.2647  0.4613
  154SAPE  C21817156   1.275   3.273   8.964 -0.0148 -0.1277 -0.0591
  154SAPE  H18R17157   1.385   3.263   8.947 -0.0544 -0.2670 -0.2299
  154SAPE  H18S17158   1.261   3.377   9.000 -1.0619 -0.7100  1.2793
  154SAPE  C21917159   1.183   3.240   8.846  0.3367 -0.3638  0.2227
  154SAPE  H19R17160   1.078   3.241   8.883 -0.5323 -1.0499 -2.0196
  154SAPE  H19S17161   1.198   3.135   8.813 -0.3730  0.1986 -2.1160
  154SAPE  C22017162   1.181   3.331   8.721 -0.4121 -0.2161 -0.2377
  154SAPE  H20R17163   1.261   3.302   8.649  1.0902  1.6023  0.6086
  154SAPE  H20S17164   1.189   3.436   8.755 -0.0605 -0.0365 -0.8681
  154SAPE  H20T17165   1.081   3.310   8.679 -1.9077  3.0544  1.3428
  154SAPE   C3317166   0.898   2.287  10.019 -0.2591 -1.1598  0.0850
  154SAPE   H3X17167   0.808   2.232  10.053 -1.0549  0.1079  0.0861
  154SAPE   H3Y17168   0.967   2.207   9.984  2.4213 -0.0384  2.3904
  154SAPE   C3417169   0.876   2.384   9.901 -0.2753 -0.0553 -0.8678
  154SAPE   H4X17170   0.974   2.425   9.868  0.0320 -0.9210 -1.0653
  154SAPE   H4Y17171   0.820   2.471   9.940  0.4140 -0.2016  0.4798
  154SAPE   C3517172   0.814   2.325   9.774  0.0024  0.0811  0.8122
  154SAPE   H5X17173   0.708   2.297   9.792  0.4368 -0.4958  2.6763
  154SAPE   H5Y17174   0.863   2.231   9.742 -3.0153 -0.5077 -2.8559
  154SAPE   C3617175   0.809   2.417   9.651 -0.4831 -0.1894 -0.4419
  154SAPE   H6X17176   0.916   2.429   9.624  0.1775  2.6120  2.8691
  154SAPE   H6Y17177   0.757   2.512   9.675 -0.8124 -0.5148  0.1663
  154SAPE   C3717178   0.734   2.359   9.528 -0.5223 -0.0038  1.1379
  154SAPE   H7X17179   0.632   2.339   9.566 -0.8451  0.2134  0.3874
  154SAPE   H7Y17180   0.774   2.263   9.490 -0.6255 -0.7319  2.7536
  154SAPE   C3817181   0.748   2.456   9.415  0.3567 -0.1034 -0.0377
  154SAPE   H8X17182   0.849   2.502   9.418 -0.3214  1.3734  1.3795
  154SAPE   H8Y17183   0.679   2.539   9.440  1.5254  0.9077 -0.0712
  154SAPE   C3917184   0.727   2.400   9.273  0.6572  0.7043  1.0550
  154SAPE   H9X17185   0.774   2.300   9.271 -1.2458 -0.2961  2.6738
  154SAPE   H9Y17186   0.781   2.464   9.200 -0.2033  1.3218  0.9322
  154SAPE  C31017187   0.584   2.394   9.227 -0.6696 -0.3328 -0.3011
  154SAPE  H10X17188   0.538   2.489   9.263  1.2247  0.0242  1.3608
  154SAPE  H10Y17189   0.535   2.310   9.281 -1.7672  0.7244  0.4148
  154SAPE  C31117190   0.557   2.376   9.076 -0.3019  0.2562 -0.1949
  154SAPE  H11X17191   0.458   2.334   9.047 -0.6594  0.4753  0.6569
  154SAPE  H11Y17192   0.627   2.300   9.035  0.3323  0.3170  0.7475
  154SAPE  C31217193   0.589   2.514   9.003 -0.5368 -0.0105 -0.5440
  154SAPE  H12X17194   0.692   2.541   9.034  0.5747 -1.3713 -2.7629
  154SAPE  H12Y17195   0.518   2.596   9.027 -0.8036  0.0155 -1.3807
  154SAPE  C31317196   0.584   2.499   8.854  0.5730  0.1489  0.0576
  154SAPE  H13X17197   0.491   2.450   8.818  1.0052 -0.0757 -0.7872
  154SAPE  H13Y17198   0.658   2.423   8.819  1.1431  0.9788 -0.5830
  154SAPE  C31417199   0.581   2.629   8.784  0.6509 -0.5872 -0.2102
  154SAPE  H14X17200   0.489   2.675   8.826  0.8834 -0.6865  0.4039
  154SAPE  H14Y17201   0.553   2.620   8.676 -1.5910  2.3868 -0.0343
  154SAPE  C31517202   0.706   2.713   8.804 -0.8044  0.0625  0.3034
  154SAPE  H15X17203   0.802   2.661   8.785 -0.1911  1.3757 -0.3578
  154SAPE  H15Y17204   0.712   2.739   8.912 -1.1256 -1.5164  0.7328
  154SAPE  C31617205   0.702   2.847   8.733 -0.9798  0.0328  0.5208
  154SAPE  H16X17206   0.599   2.888   8.737 -1.2278 -0.5428  0.2594
  154SAPE  H16Y17207   0.731   2.836   8.626  0.9320  1.3715  0.8604
  154SAPE  C31717208   0.793   2.954   8.799 -0.2895 -0.1463  0.3138
  154SAPE  H17X17209   0.771   2.963   8.908  0.8678  0.6445  0.5001
  154SAPE  H17Y17210   0.771   3.050   8.749  2.2282  0.0782 -0.4735
  154SAPE  C31817211   0.937   2.924   8.770  0.4694 -0.1322 -0.9286
  154SAPE  H18X17212   0.974   2.835   8.824  0.6546 -0.8942 -2.2681
  154SAPE  H18Y17213   0.997   3.015   8.793  0.0464 -0.4043  1.4745
  154SAPE  H18Z17214   0.945   2.910   8.660  1.4304 -2.2488 -0.6330
  155SAPE     N17215   1.684   2.748  11.045  0.2114 -0.8331 -0.6469
  155SAPE   HN117216   1.743   2.744  10.960  1.9471 -1.1452  0.5346
  155SAPE   HN217217   1.681   2.660  11.100 -3.6482  0.1860  1.1147
  155SAPE   HN317218   1.583   2.765  11.023  0.1446  0.6881  0.6136
  155SAPE   C1217219   1.722   2.867  11.134 -0.5335  1.1315  0.3016
  155SAPE  H12A17220   1.832   2.858  11.145 -0.5141 -0.5298 -0.9601
  155SAPE  H12B17221   1.658   2.858  11.224  0.1001  3.0637  1.0025
  155SAPE   C1117222   1.691   3.003  11.063 -0.3293  0.3877 -0.5373
  155SAPE  H11A17223   1.726   3.084  11.131  1.3255 -1.4728  0.9504
  155SAPE  H11B17224   1.581   3.017  11.053 -0.4709 -1.6950 -2.5334
  155SAPE     P17225   1.885   3.061  10.903  0.1459 -0.3757 -0.0393
  155SAPE   O1317226   1.994   2.997  10.989 -0.2299 -0.6459 -0.1762
  155SAPE   O1417227   1.893   3.048  10.755  0.4792  0.1169 -0.5200
  155SAPE   O1217228   1.745   3.010  10.935  0.1390  0.1403 -0.1665
  155SAPE   O1117229   1.874   3.222  10.947  0.6180  0.1370  0.2007
  155SAPE    C117230   1.759   3.298  10.897  0.3710 -0.1284 -0.2488
  155SAPE    HA17231   1.673   3.239  10.858  0.8272  0.9014 -3.0909
  155SAPE    HB17232   1.727   3.368  10.977  0.2696  0.4767 -0.8086
  155SAPE    C217233   1.795   3.397  10.782  0.0560  0.3146 -0.2123
  155SAPE    HS17234   1.708   3.460  10.755 -0.9092 -1.7537 -2.3384
  155SAPE   O2117235   1.851   3.332  10.663  0.3942  0.2575 -0.1894
  155SAPE   C2117236   1.754   3.272  10.594 -0.6066 -0.3056 -0.0007
  155SAPE   O2217237   1.634   3.277  10.616  0.2078  0.0843 -0.3754
  155SAPE   C2217238   1.822   3.194  10.476  0.5695  0.1379 -0.1453
  155SAPE   H2R17239   1.863   3.279  10.418 -1.1935  0.9589 -0.2645
  155SAPE   H2S17240   1.905   3.129  10.511 -1.2619 -2.0445  0.3894
  155SAPE    C317241   1.900   3.498  10.831 -0.4742 -0.3395  0.8735
  155SAPE    HX17242   1.986   3.449  10.881  1.1435 -0.5447 -1.8791
  155SAPE    HY17243   1.857   3.557  10.915  0.3332  0.3925  0.7866
  155SAPE   O3117244   1.942   3.579  10.722 -0.5451  0.2972  0.3863
  155SAPE   C3117245   2.061   3.579  10.671 -0.7155 -0.4393 -0.8654
  155SAPE   O3217246   2.154   3.507  10.708  0.2853  0.5218 -0.4736
  155SAPE   C3217247   2.076   3.684  10.566 -0.7383 -0.2265 -0.9662
  155SAPE   H2X17248   2.161   3.751  10.594 -1.6622  0.1270  1.2553
  155SAPE   H2Y17249   1.983   3.744  10.570 -0.9430 -0.5156 -1.3840
  155SAPE   C2317250   1.716   3.105  10.393 -0.0597 -0.4955 -0.3252
  155SAPE   H3R17251   1.632   3.172  10.367  0.4896  0.0667 -0.6795
  155SAPE   H3S17252   1.678   3.033  10.469  1.4468 -0.0649  0.8901
  155SAPE   C2417253   1.790   3.048  10.268  0.2699  0.2698  0.2925
  155SAPE   H4R17254   1.867   2.983  10.314  0.8874 -1.2413 -2.6274
  155SAPE   H4S17255   1.834   3.137  10.217  0.6848 -0.1456 -0.0823
  155SAPE   C2517256   1.697   2.962  10.189  0.6683 -0.5698  0.5475
  155SAPE   H5R17257   1.673   2.863  10.231 -1.0449 -0.0449  0.8707
  155SAPE   C2617258   1.643   2.999  10.068  0.5100  0.3276  0.4003
  155SAPE   H6R17259   1.571   2.929  10.024 -1.9408  2.1645  1.3097
  155SAPE   C2717260   1.669   3.125   9.990  0.3269 -1.0524 -0.1738
  155SAPE   H7R17261   1.743   3.189  10.043 -0.4108 -1.3074  1.1953
  155SAPE   H7S17262   1.571   3.177   9.988  0.9421  0.2144  0.9894
  155SAPE   C2817263   1.736   3.079   9.864 -0.5190 -0.0632  0.1665
  155SAPE   H8R17264   1.779   2.978   9.860  2.0916  0.9361  0.8605
  155SAPE   C2917265   1.746   3.149   9.748  1.0290  0.5265  0.5032
  155SAPE   H9R17266   1.815   3.103   9.676  0.6331  0.7502 -0.0249
  155SAPE  C21017267   1.697   3.296   9.718  0.5605 -0.2223 -0.3635
  155SAPE  H10R17268   1.776   3.342   9.654 -0.6091  0.8430 -1.0895
  155SAPE  H10S17269   1.677   3.350   9.813 -0.3534  2.1685 -1.8313
  155SAPE  C21117270   1.548   3.296   9.659 -0.3386  0.1207 -0.1055
  155SAPE  H11R17271   1.466   3.260   9.723 -0.7361  0.8614 -0.1884
  155SAPE  C21217272   1.514   3.341   9.540 -0.2379 -0.7601  0.4794
  155SAPE  H12R17273   1.407   3.358   9.520  0.1464 -0.0111 -1.0649
  155SAPE  C21317274   1.612   3.388   9.431 -0.4176  0.3272  0.3519
  155SAPE  H13R17275   1.606   3.329   9.337  1.9935  0.9540 -0.2804
  155SAPE  H13S17276   1.716   3.380   9.471  0.8689  1.3497 -2.5054
  155SAPE  C21417277   1.588   3.533   9.396  0.1813  1.2330  0.5116
  155SAPE  H14R17278   1.539   3.602   9.466 -0.6341 -0.0305  1.2219
  155SAPE  C21517279   1.603   3.594   9.274  0.2594  0.5343 -0.3689
  155SAPE  H15R17280   1.591   3.703   9.266  0.1586  0.6390  1.0957
  155SAPE  C21617281   1.668   3.529   9.149  0.2602 -0.1081  0.0171
  155SAPE  H16R17282   1.688   3.421   9.166 -0.7454 -0.2162  0.6040
  155SAPE  H16S17283   1.761   3.584   9.123 -1.1889  2.0460 -0.9213
  155SAPE  C21717284   1.575   3.531   9.025 -0.5348 -0.3724 -0.3974
  155SAPE  H17R17285   1.478   3.484   9.052 -0.2591 -1.2823 -0.9744
  155SAPE  H17S17286   1.627   3.470   8.948  1.1221 -1.6241  1.5974
  155SAPE  C21817287   1.559   3.674   8.971  0.2298  0.0733  0.3500
  155SAPE  H18R17288   1.659   3.721   8.961 -0.2143  0.8683 -0.5053
  155SAPE  H18S17289   1.503   3.736   9.044  1.2934  0.8767  0.5109
  155SAPE  C21917290   1.484   3.678   8.837  0.2020 -0.0602 -0.1651
  155SAPE  H19R17291   1.468   3.786   8.817 -0.8053 -0.4981 -1.9103
  155SAPE  H19S17292   1.387   3.626   8.853 -0.6869  1.5168 -0.2290
  155SAPE  C22017293   1.545   3.622   8.717 -0.9992 -0.0315  0.2330
  155SAPE  H20R17294   1.501   3.653   8.620 -2.0785  1.2604  1.1088
  155SAPE  H20S17295   1.548   3.511   8.711 -1.6625 -0.2004  2.2878
  155SAPE  H20T17296   1.649   3.662   8.718 -1.0444  0.0924 -0.0067
  155SAPE   C3317297   2.091   3.625  10.431  0.8814  0.5904  0.1760
  155SAPE   H3X17298   2.186   3.568  10.422 -0.9869 -2.4296 -1.6973
  155SAPE   H3Y17299   2.091   3.704  10.353 -2.2111 -0.2059 -0.7282
  155SAPE   C3417300   1.964   3.541  10.392 -0.8653  0.4495 -0.0980
  155SAPE   H4X17301   1.876   3.607  10.407 -1.7871  0.4567 -4.3391
  155SAPE   H4Y17302   1.974   3.448  10.453 -1.3324  0.5606  0.1500
  155SAPE   C3517303   1.957   3.505  10.239 -0.6102  0.3029 -0.5596
  155SAPE   H5X17304   1.992   3.589  10.176  2.8977 -0.8772 -0.4092
  155SAPE   H5Y17305   1.852   3.481  10.214 -1.2471 -1.5525  3.2073
  155SAPE   C3617306   2.046   3.383  10.209  0.1760  0.0597  0.6517
  155SAPE   H6X17307   2.030   3.303  10.284 -0.4376  1.0051  1.5585
  155SAPE   H6Y17308   2.151   3.420  10.211  0.2874 -0.2920  1.3449
  155SAPE   C3717309   2.020   3.324  10.068 -0.1089 -0.2030 -0.0264
  155SAPE   H7X17310   1.911   3.304  10.068 -0.2732  0.6647  0.1430
  155SAPE   H7Y17311   2.073   3.231  10.039  1.6545  1.2569 -1.7258
  155SAPE   C3817312   2.057   3.430   9.962  0.3004 -0.3018  0.6483
  155SAPE   H8X17313   2.162   3.465   9.974  0.1414  0.8469 -0.9610
  155SAPE   H8Y17314   2.000   3.525   9.973 -0.4934 -0.6872 -0.0322
  155SAPE   C3917315   2.065   3.373   9.823  0.2249  0.2003  0.1376
  155SAPE   H9X17316   1.970   3.316   9.816 -0.5467  0.9146  3.1616
  155SAPE   H9Y17317   2.157   3.310   9.823  0.4509  0.5137 -1.2007
  155SAPE  C31017318   2.084   3.482   9.713  0.1786 -0.8397  0.0449
  155SAPE  H10X17319   2.163   3.547   9.757  0.4330  0.9540 -2.8202
  155SAPE  H10Y17320   1.995   3.549   9.710  0.9743  0.4783  2.7775
  155SAPE  C31117321   2.125   3.433   9.563 -0.3120  0.0355 -0.0515
  155SAPE  H11X17322   2.225   3.386   9.561 -0.7214 -0.8344 -0.9536
  155SAPE  H11Y17323   2.134   3.525   9.501  1.4414 -0.7199 -0.9803
  155SAPE  C31217324   2.018   3.339   9.498  0.3925  0.0645  0.2180
  155SAPE  H12X17325   1.920   3.391   9.502  1.2101  1.6442  0.4755
  155SAPE  H12Y17326   2.011   3.249   9.562  0.4505  0.1060  0.2827
  155SAPE  C31317327   2.037   3.283   9.356 -0.1328 -0.2341  0.2852
  155SAPE  H13X17328   2.073   3.360   9.286 -1.2460 -0.6870 -0.8271
  155SAPE  H13Y17329   1.937   3.251   9.320 -1.5917  0.1518  3.5934
  155SAPE  C31417330   2.130   3.167   9.349 -0.5430 -0.3092  0.1282
  155SAPE  H14X17331   2.112   3.105   9.440 -0.6188 -2.0407 -1.0133
  155SAPE  H14Y17332   2.229   3.218   9.344 -1.0511  0.5732 -2.7545
  155SAPE  C31517333   2.116   3.070   9.226 -0.2631 -0.6199 -1.0950
  155SAPE  H15X17334   2.019   3.016   9.227 -0.7003 -0.0131  2.3745
  155SAPE  H15Y17335   2.195   2.992   9.224 -1.6146 -2.0545 -1.0039
  155SAPE  C31617336   2.116   3.149   9.094  0.7356  0.3422 -0.3609
  155SAPE  H16X17337   2.201   3.221   9.095  0.6916  0.3985  0.3694
  155SAPE  H16Y17338   2.035   3.222   9.076  1.2661  0.7768 -1.0754
  155SAPE  C31717339   2.112   3.055   8.979  0.2955  0.3798 -0.6202
  155SAPE  H17X17340   2.196   2.983   8.977 -0.7794 -0.9163 -1.6677
  155SAPE  H17Y17341   2.132   3.119   8.890 -0.6378 -1.9238 -2.5787
  155SAPE  C31817342   1.975   2.990   8.964 -0.1621  0.0008 -0.5428
  155SAPE  H18X17343   1.965   2.925   9.053  1.4842  1.9743  1.1899
  155SAPE  H18Y17344   1.963   2.946   8.863  0.6983 -0.6450 -0.3680
  155SAPE  H18Z17345   1.905   3.074   8.982 -1.0752 -0.9221  0.2480
  156SAPE     N17346   6.702   2.976  10.609  0.8640  0.4871 -0.5758
  156SAPE   HN117347   6.706   2.890  10.666  0.3625  1.8016  1.5470
  156SAPE   HN217348   6.701   2.951  10.508 -0.7819  0.2834 -0.5417
  156SAPE   HN317349   6.780   3.033  10.645  0.1971  0.8913  0.2647
  156SAPE   C1217350   6.567   3.044  10.643 -0.0949  0.5281  0.9564
  156SAPE  H12A17351   6.542   3.117  10.563 -0.3897  0.7163  1.2163
  156SAPE  H12B17352   6.589   3.112  10.727  3.8234  1.4584 -0.6156
  156SAPE   C1117353   6.462   2.934  10.660  0.0018 -0.7515 -0.2959
  156SAPE  H11A17354   6.367   2.975  10.698 -0.1485  0.4877 -1.8860
  156SAPE  H11B17355   6.496   2.856  10.731 -3.2257 -3.1525 -1.1478
  156SAPE     P17356   6.367   2.729  10.536 -0.2258  0.8120 -0.3310
  156SAPE   O1317357   6.394   2.656  10.661  0.1322  0.3523 -0.2691
  156SAPE   O1417358   6.225   2.741  10.489  0.3113 -0.5435  0.0393
  156SAPE   O1217359   6.425   2.868  10.538 -0.2291 -0.5501  0.6568
  156SAPE   O1117360   6.440   2.655  10.413  0.1091 -0.2402  0.0482
  156SAPE    C117361   6.587   2.655  10.399  0.0968  0.2513 -0.6024
  156SAPE    HA17362   6.633   2.740  10.454 -0.6333  0.9256 -1.0155
  156SAPE    HB17363   6.634   2.562  10.436 -0.8501  0.2849  0.7736
  156SAPE    C217364   6.631   2.690  10.247  0.1654  0.2399  0.1810
  156SAPE    HS17365   6.742   2.697  10.252  0.1756 -0.6226  1.5153
  156SAPE   O2117366   6.582   2.809  10.185  0.3122 -0.6609  0.1194
  156SAPE   C2117367   6.596   2.925  10.258 -0.1563  0.3812 -0.0328
  156SAPE   O2217368   6.664   2.939  10.357 -0.0076 -0.5167  0.3310
  156SAPE   C2217369   6.520   3.035  10.193  0.3023 -0.0092  0.2879
  156SAPE   H2R17370   6.546   3.027  10.085  0.8927 -0.9330  0.4880
  156SAPE   H2S17371   6.413   3.039  10.222  0.0438 -1.1135 -0.4771
  156SAPE    C317372   6.591   2.569  10.157  0.2587 -0.3453  0.3947
  156SAPE    HX17373   6.483   2.577  10.131  0.5372  0.1790 -0.6671
  156SAPE    HY17374   6.597   2.478  10.220  0.2989 -1.0242 -0.5735
  156SAPE   O3117375   6.659   2.571  10.024 -0.2739 -0.9687  0.0190
  156SAPE   C3117376   6.777   2.503  10.027 -0.5231 -0.7093 -0.0720
  156SAPE   O3217377   6.830   2.460  10.128  0.2038 -0.0565  0.0828
  156SAPE   C3217378   6.835   2.479   9.890  0.4406 -0.4760 -0.3135
  156SAPE   H2X17379   6.922   2.545   9.870 -1.1950  1.6702 -0.7774
  156SAPE   H2Y17380   6.761   2.511   9.813  2.3723  2.3150 -1.1514
  156SAPE   C2317381   6.580   3.173  10.232  0.6990 -0.2970  0.0805
  156SAPE   H3R17382   6.683   3.169  10.273  0.1071  2.9742  2.3310
  156SAPE   H3S17383   6.531   3.198  10.329  0.7500 -1.8037  0.5162
  156SAPE   C2417384   6.549   3.291  10.135  0.0068 -0.4794 -0.6489
  156SAPE   H4R17385   6.526   3.381  10.196 -2.0532  0.1707 -2.2387
  156SAPE   H4S17386   6.454   3.263  10.084 -0.3238  0.3240 -0.4822
  156SAPE   C2517387   6.656   3.322  10.035  0.4021 -0.7258  0.2039
  156SAPE   H5R17388   6.744   3.372  10.077 -0.4269 -0.0868  1.1901
  156SAPE   C2617389   6.652   3.295   9.904  0.1273  0.4605  0.3307
  156SAPE   H6R17390   6.726   3.341   9.836 -0.1670 -0.3784 -0.5802
  156SAPE   C2717391   6.543   3.218   9.828 -0.8513 -0.3549  1.5332
  156SAPE   H7R17392   6.490   3.146   9.893  1.9546 -2.9157  1.1973
  156SAPE   H7S17393   6.588   3.161   9.744 -1.4894  0.3220  0.7136
  156SAPE   C2817394   6.454   3.332   9.777 -0.3165  0.4847 -0.3599
  156SAPE   H8R17395   6.399   3.379   9.860  1.1413  0.0987  0.8708
  156SAPE   C2917396   6.457   3.376   9.652  1.0516  0.5997 -0.7474
  156SAPE   H9R17397   6.383   3.455   9.630  0.2170 -0.0110 -0.1912
  156SAPE  C21017398   6.547   3.324   9.539 -0.2924  0.6519  1.0069
  156SAPE  H10R17399   6.483   3.250   9.485 -1.1091  1.0567  1.4006
  156SAPE  H10S17400   6.637   3.267   9.571 -0.3867 -1.7222 -2.4409
  156SAPE  C21117401   6.584   3.439   9.441  0.0461 -0.2803 -0.2392
  156SAPE  H11R17402   6.594   3.538   9.489  2.8588 -0.1322 -0.9128
  156SAPE  C21217403   6.589   3.436   9.306 -0.0930  0.3398  0.0501
  156SAPE  H12R17404   6.616   3.525   9.246 -2.2807 -0.7419 -2.7373
  156SAPE  C21317405   6.569   3.305   9.225 -0.0481 -0.2616 -0.6353
  156SAPE  H13R17406   6.551   3.222   9.298  0.5264  0.9013  0.8928
  156SAPE  H13S17407   6.667   3.283   9.179 -0.3711 -0.0808 -1.4141
  156SAPE  C21417408   6.449   3.294   9.135 -0.2369  0.2463  0.1724
  156SAPE  H14R17409   6.373   3.372   9.152  0.6269  0.4889  3.6286
  156SAPE  C21517410   6.431   3.210   9.032 -0.0809 -0.1738 -0.1242
  156SAPE  H15R17411   6.332   3.196   8.987  1.0861 -2.5348 -2.2518
  156SAPE  C21617412   6.529   3.106   8.986 -0.1147  0.7420 -0.3940
  156SAPE  H16R17413   6.620   3.108   9.051 -1.0536  2.9467  0.9656
  156SAPE  H16S17414   6.566   3.118   8.882  2.0581 -2.8920 -0.2366
  156SAPE  C21717415   6.472   2.961   8.989 -0.0060  0.3418 -0.2655
  156SAPE  H17R17416   6.462   2.927   9.094  1.0136 -0.7724 -0.5032
  156SAPE  H17S17417   6.559   2.896   8.964  1.5193  1.8643  0.9276
  156SAPE  C21817418   6.347   2.931   8.896  0.6688  0.3740 -0.2563
  156SAPE  H18R17419   6.256   2.966   8.949  1.0944 -0.1790  0.8899
  156SAPE  H18S17420   6.344   2.821   8.879 -1.0805  0.5633 -1.4328
  156SAPE  C21917421   6.352   2.994   8.756  0.2221 -0.6047  0.1196
  156SAPE  H19R17422   6.441   2.954   8.702  0.2714 -2.3189  1.3678
  156SAPE  H19S17423   6.362   3.103   8.776 -2.8771 -0.4038  1.0024
  156SAPE  C22017424   6.225   2.972   8.674  0.5697 -0.0603  0.0693
  156SAPE  H20R17425   6.134   3.001   8.730 -0.1628  1.0031 -1.5953
  156SAPE  H20S17426   6.224   2.864   8.647  2.2952 -0.9827  3.1973
  156SAPE  H20T17427   6.215   3.034   8.583  0.5022  1.4488  1.0746
  156SAPE   C3317428   6.868   2.334   9.855 -0.1497  0.5707 -0.1896
  156SAPE   H3X17429   6.794   2.258   9.890  1.7883 -0.7194  1.3679
  156SAPE   H3Y17430   6.949   2.298   9.922 -0.7903  0.0661  0.3348
  156SAPE   C3417431   6.905   2.308   9.711 -0.3799  0.5434 -0.1043
  156SAPE   H4X17432   6.811   2.342   9.663 -0.0851 -1.3125 -2.1328
  156SAPE   H4Y17433   6.933   2.205   9.679  1.6340  0.6918  1.0062
  156SAPE   C3517434   7.018   2.399   9.650  0.1343  0.3378  0.1499
  156SAPE   H5X17435   7.111   2.384   9.708  1.3069  0.2261 -1.6713
  156SAPE   H5Y17436   6.997   2.508   9.660  3.1093  0.8174  2.3593
  156SAPE   C3617437   7.038   2.376   9.498  0.0064 -0.3304  0.1708
  156SAPE   H6X17438   7.043   2.267   9.474  1.3726  0.1963 -2.2604
  156SAPE   H6Y17439   7.135   2.427   9.478  0.0718 -1.0476 -1.5064
  156SAPE   C3717440   6.936   2.445   9.406 -0.2728  0.0040  0.2382
  156SAPE   H7X17441   6.953   2.555   9.412  1.8798 -0.2275 -0.7803
  156SAPE   H7Y17442   6.832   2.414   9.429 -1.4492  2.5012 -1.3305
  156SAPE   C3817443   6.963   2.427   9.256 -0.3421  0.5989  0.1469
  156SAPE   H8X17444   7.067   2.461   9.236 -0.0670  0.1887  0.8529
  156SAPE   H8Y17445   6.888   2.493   9.208 -1.9479 -1.4818 -0.3493
  156SAPE   C3917446   6.945   2.274   9.227 -0.1963 -0.4815 -0.0847
  156SAPE   H9X17447   6.855   2.238   9.282  0.8516 -1.5785  0.9887
  156SAPE   H9Y17448   7.025   2.210   9.271  1.0490  0.8077 -0.4156
  156SAPE  C31017449   6.928   2.245   9.074 -0.5912 -0.5880 -0.7567
  156SAPE  H10X17450   6.926   2.138   9.043 -0.6427 -0.5192 -1.0019
  156SAPE  H10Y17451   7.016   2.289   9.024 -2.8665  3.7351 -1.4416
  156SAPE  C31117452   6.805   2.310   9.017  0.2054 -0.2111 -0.7867
  156SAPE  H11X17453   6.803   2.418   9.043  3.3237 -0.3518  0.4247
  156SAPE  H11Y17454   6.714   2.264   9.062 -0.3979  0.4539 -1.3123
  156SAPE  C31217455   6.802   2.307   8.863  0.7406 -0.2858  0.2254
  156SAPE  H12X17456   6.707   2.341   8.818  1.2922 -0.2834 -0.9695
  156SAPE  H12Y17457   6.804   2.200   8.831 -0.5375  0.1531 -1.4773
  156SAPE  C31317458   6.920   2.373   8.797 -0.3579  0.6415  0.5844
  156SAPE  H13X17459   7.021   2.327   8.806 -0.3653  0.1778 -1.2298
  156SAPE  H13Y17460   6.930   2.477   8.834  2.7375  0.9047 -0.6384
  156SAPE  C31417461   6.897   2.381   8.644  0.1206  0.7988  0.1660
  156SAPE  H14X17462   6.818   2.451   8.610  0.0491  1.6211  1.9215
  156SAPE  H14Y17463   6.866   2.281   8.607  1.8359 -0.1302  1.1066
  156SAPE  C31517464   7.025   2.434   8.571 -0.1002 -0.0112 -0.4832
  156SAPE  H15X17465   7.096   2.349   8.573  0.3923  0.3994  0.4634
  156SAPE  H15Y17466   7.066   2.523   8.623 -0.2972  2.1047 -3.7067
  156SAPE  C31617467   6.980   2.477   8.435 -0.4109 -0.3855  0.2123
  156SAPE  H16X17468   6.902   2.555   8.446  2.0750  2.1158  1.3829
  156SAPE  H16Y17469   6.938   2.386   8.387  1.3679 -1.7024  1.0518
  156SAPE  C31717470   7.104   2.539   8.362 -0.8245  0.5013 -0.4291
  156SAPE  H17X17471   7.176   2.455   8.363 -0.8234  0.5019 -0.4610
  156SAPE  H17Y17472   7.150   2.624   8.418  1.8928 -2.4781  2.2301
  156SAPE  C31817473   7.083   2.579   8.219 -0.5860 -0.0898  0.0429
  156SAPE  H18X17474   6.990   2.640   8.211 -0.3580  0.1373 -1.0169
  156SAPE  H18Y17475   7.068   2.496   8.147  2.1574  0.0753 -0.8307
  156SAPE  H18Z17476   7.166   2.632   8.168 -0.9954 -1.3172 -2.0169
  157SAPE     N17477   4.745   0.913  10.942 -0.3351 -0.0524  0.1991
  157SAPE   HN117478   4.705   0.839  11.003 -0.0422 -1.4290 -1.2163
  157SAPE   HN217479   4.807   0.981  10.991  1.6183  0.6955 -3.0191
  157SAPE   HN317480   4.673   0.966  10.889 -0.6682  0.2968  0.9915
  157SAPE   C1217481   4.838   0.852  10.846 -0.0820  0.3815 -0.2540
  157SAPE  H12A17482   4.779   0.771  10.797  1.9297 -0.9461 -0.5998
  157SAPE  H12B17483   4.916   0.813  10.915  0.7687 -0.7115 -1.7517
  157SAPE   C1117484   4.907   0.952  10.742 -1.3318  0.0034 -0.6463
  157SAPE  H11A17485   4.821   0.998  10.690 -2.5886 -0.1770  1.1650
  157SAPE  H11B17486   4.958   0.890  10.666 -0.8284 -0.1699 -0.1775
  157SAPE     P17487   5.151   1.001  10.826 -0.0517  0.0789 -0.0012
  157SAPE   O1317488   5.239   1.119  10.813  0.3584 -0.4086  0.0405
  157SAPE   O1417489   5.168   0.931  10.957 -0.7114  0.1764  0.8898
  157SAPE   O1217490   5.000   1.044  10.805  0.5452  0.8484 -0.5767
  157SAPE   O1117491   5.169   0.883  10.727 -0.2190 -0.0922  0.0891
  157SAPE    C117492   5.299   0.869  10.670 -0.3082  0.6684 -0.3181
  157SAPE    HA17493   5.383   0.891  10.740 -2.3187  0.8410  2.1750
  157SAPE    HB17494   5.310   0.761  10.646 -2.2453  0.6937 -1.5204
  157SAPE    C217495   5.316   0.942  10.535  0.1623  0.5800 -0.2372
  157SAPE    HS17496   5.291   1.049  10.552 -1.2271 -0.0504  2.0578
  157SAPE   O2117497   5.231   0.887  10.445 -0.0646  0.2118  0.0044
  157SAPE   C2117498   5.109   0.938  10.418  0.0695  0.3079 -0.0012
  157SAPE   O2217499   5.075   1.055  10.433  0.2633 -0.1675 -0.1708
  157SAPE   C2217500   5.030   0.827  10.354  0.0940  0.5864  0.3910
  157SAPE   H2R17501   5.094   0.784  10.274  1.0839  0.4088  1.2580
  157SAPE   H2S17502   5.017   0.749  10.432  0.6895  0.8413  0.7487
  157SAPE    C317503   5.462   0.936  10.488  0.0139  0.5084 -0.3409
  157SAPE    HX17504   5.499   0.832  10.488 -0.0928  0.4182 -2.7839
  157SAPE    HY17505   5.530   0.996  10.552  3.3440 -2.2598 -0.9972
  157SAPE   O3117506   5.487   0.973  10.348  0.3929 -0.1891  0.2919
  157SAPE   C3117507   5.615   0.979  10.321  0.8958 -0.0288  0.4656
  157SAPE   O3217508   5.709   0.957  10.399 -0.2220 -0.2181 -0.4973
  157SAPE   C3217509   5.634   1.032  10.178  0.3158  0.3540 -0.6846
  157SAPE   H2X17510   5.564   1.118  10.163 -2.1200 -1.4689 -0.3830
  157SAPE   H2Y17511   5.600   0.964  10.097 -0.5540  0.5661 -0.5111
  157SAPE   C2317512   4.902   0.866  10.288  0.4722 -0.0027  0.5725
  157SAPE   H3R17513   4.830   0.915  10.357 -1.4239 -1.2597 -0.3975
  157SAPE   H3S17514   4.850   0.771  10.260 -2.6426  2.1532 -1.6156
  157SAPE   C2417515   4.923   0.947  10.167 -0.1491 -0.7059  0.1291
  157SAPE   H4R17516   4.980   1.041  10.183 -0.8444 -0.3805  0.7243
  157SAPE   H4S17517   4.825   0.988  10.134  0.2893  0.0550 -0.2539
  157SAPE   C2517518   4.995   0.889  10.049  0.1623  0.6878 -0.3620
  157SAPE   H5R17519   5.098   0.926  10.053  1.7272 -3.1923 -0.7204
  157SAPE   C2617520   4.954   0.817   9.944  0.6059  0.4561  0.3910
  157SAPE   H6R17521   5.026   0.788   9.866 -0.7704 -2.1378 -0.0499
  157SAPE   C2717522   4.809   0.771   9.908 -0.7924  0.1814  0.8461
  157SAPE   H7R17523   4.737   0.847   9.947 -1.2113  0.0418  0.3537
  157SAPE   H7S17524   4.779   0.673   9.952  0.0162 -0.7961 -0.6924
  157SAPE   C2817525   4.779   0.734   9.763 -0.2910 -0.0685 -0.1994
  157SAPE   H8R17526   4.699   0.802   9.729 -0.7040  0.1470  1.1375
  157SAPE   C2917527   4.824   0.638   9.678  0.0343  0.1491  0.3168
  157SAPE   H9R17528   4.774   0.627   9.580  2.0279 -2.5336 -0.5271
  157SAPE  C21017529   4.930   0.529   9.697  0.3151 -0.0000 -0.1407
  157SAPE  H10R17530   5.005   0.547   9.777  0.1525  0.2100 -0.0305
  157SAPE  H10S17531   5.002   0.524   9.613  0.9175 -0.3534  0.3866
  157SAPE  C21117532   4.869   0.391   9.718  0.0954 -0.6251 -0.7844
  157SAPE  H11R17533   4.850   0.348   9.618 -2.7942  0.7091 -0.9138
  157SAPE  C21217534   4.833   0.324   9.832 -0.8355  0.0481  0.1556
  157SAPE  H12R17535   4.782   0.229   9.810 -3.1735  1.2314  0.1848
  157SAPE  C21317536   4.857   0.355   9.975 -0.6803 -0.4725 -0.0423
  157SAPE  H13R17537   4.842   0.266  10.039  0.9732  0.2249  1.3964
  157SAPE  H13S17538   4.770   0.408  10.019  0.6103 -0.0185  2.1215
  157SAPE  C21417539   4.984   0.423  10.012 -0.0816 -0.3319  0.1290
  157SAPE  H14R17540   4.979   0.533  10.017  0.9626 -0.1659 -1.6840
  157SAPE  C21517541   5.102   0.363  10.040  0.3166  0.5672  0.3250
  157SAPE  H15R17542   5.183   0.426  10.080  1.1166  0.2544 -0.7512
  157SAPE  C21617543   5.134   0.215  10.036 -0.1719  0.0408  0.5195
  157SAPE  H16R17544   5.231   0.204   9.983  0.5568  1.0773  1.5842
  157SAPE  H16S17545   5.059   0.157   9.977  0.7205  0.3619 -1.0026
  157SAPE  C21717546   5.143   0.151  10.172 -0.0822 -1.1450 -0.4654
  157SAPE  H17R17547   5.204   0.222  10.231 -1.6125  0.3455 -0.6077
  157SAPE  H17S17548   5.197   0.054  10.162  2.5653  0.1273  0.4214
  157SAPE  C21817549   5.011   0.136  10.244  0.2887 -0.2927 -0.5837
  157SAPE  H18R17550   4.941   0.060  10.201 -1.4351  0.6306  0.4670
  157SAPE  H18S17551   4.962   0.235  10.229 -0.9899 -0.7365  0.4909
  157SAPE  C21917552   5.012   0.112  10.398 -0.8670 -0.5093 -0.1232
  157SAPE  H19R17553   4.911   0.129  10.440 -1.3915  1.4299 -2.0276
  157SAPE  H19S17554   5.081   0.185  10.446 -1.6182  0.6046 -0.6985
  157SAPE  C22017555   5.063  -0.025  10.430  0.3787 -0.6864  0.4436
  157SAPE  H20R17556   5.171  -0.027  10.402  0.2551  0.9409 -0.2661
  157SAPE  H20S17557   5.001  -0.101  10.379 -1.6418  1.9114 -1.2094
  157SAPE  H20T17558   5.043  -0.040  10.539 -1.6438 -2.3116 -0.0906
  157SAPE   C3317559   5.780   1.076  10.150 -0.5817 -0.4563 -0.1470
  157SAPE   H3X17560   5.849   0.990  10.149  0.3729  0.2723  0.8329
  157SAPE   H3Y17561   5.818   1.141  10.231 -1.8344  0.6948 -0.4285
  157SAPE   C3417562   5.800   1.147  10.015 -0.0986 -0.5698  0.0118
  157SAPE   H4X17563   5.900   1.195  10.007 -0.1985 -0.5368 -1.0754
  157SAPE   H4Y17564   5.720   1.223  10.012 -2.1369 -2.6215 -0.2740
  157SAPE   C3517565   5.800   1.044   9.898 -0.4333  0.0890 -0.7138
  157SAPE   H5X17566   5.708   0.982   9.902 -1.2956  1.3979  1.2246
  157SAPE   H5Y17567   5.890   0.980   9.899 -0.5179 -0.0210 -0.0893
  157SAPE   C3617568   5.790   1.127   9.769 -0.1250 -0.0107  0.0153
  157SAPE   H6X17569   5.847   1.222   9.772  0.8297 -0.4864 -1.6386
  157SAPE   H6Y17570   5.686   1.164   9.752  0.2769  0.6755 -1.0520
  157SAPE   C3717571   5.836   1.050   9.651  0.3097 -0.1182  0.5996
  157SAPE   H7X17572   5.772   0.960   9.637 -0.9669  0.9916 -1.0967
  157SAPE   H7Y17573   5.942   1.018   9.657 -0.2373 -2.1522  0.3862
  157SAPE   C3817574   5.823   1.120   9.513  0.6488 -0.3775  0.2999
  157SAPE   H8X17575   5.861   1.225   9.511  0.4904 -0.3240  0.0538
  157SAPE   H8Y17576   5.714   1.131   9.495  0.4857  2.9243  2.4427
  157SAPE   C3917577   5.874   1.038   9.398 -0.1050 -0.5939  0.0977
  157SAPE   H9X17578   5.812   0.946   9.391  0.7204 -1.0746 -1.5312
  157SAPE   H9Y17579   5.983   1.015   9.403  0.1144 -1.0717 -3.6843
  157SAPE  C31017580   5.870   1.112   9.257  0.2365  0.3928 -0.5208
  157SAPE  H10X17581   5.935   1.201   9.266  2.5333 -0.5708 -4.7403
  157SAPE  H10Y17582   5.762   1.128   9.237 -0.7912 -2.7480  1.6023
  157SAPE  C31117583   5.927   1.021   9.152  0.6079 -0.3156 -0.5926
  157SAPE  H11X17584   5.878   0.922   9.161 -0.9879  0.5699  1.1292
  157SAPE  H11Y17585   6.036   1.005   9.171  0.4065 -2.4653 -0.9623
  157SAPE  C31217586   5.902   1.065   9.008 -0.1413  0.0340 -0.1342
  157SAPE  H12X17587   5.958   1.160   8.999  0.4491 -0.1724  1.1330
  157SAPE  H12Y17588   5.793   1.087   9.001 -0.7715 -1.2577  3.5294
  157SAPE  C31317589   5.948   0.959   8.909 -0.1188  0.5313 -0.3893
  157SAPE  H13X17590   5.868   0.884   8.891  1.1948 -1.4098  1.5047
  157SAPE  H13Y17591   6.021   0.887   8.951 -4.2812 -3.2246  1.1910
  157SAPE  C31417592   6.001   1.013   8.775  1.0580  0.8934  0.0295
  157SAPE  H14X17593   6.109   1.041   8.776  1.0955  0.7534  0.6643
  157SAPE  H14Y17594   5.938   1.103   8.762  0.5671  0.5544  0.0332
  157SAPE  C31517595   5.966   0.917   8.659  0.3921  0.3410  1.0790
  157SAPE  H15X17596   5.969   0.971   8.561  1.1983 -2.5669 -0.6222
  157SAPE  H15Y17597   5.861   0.882   8.671 -0.2997  1.2887 -1.5523
  157SAPE  C31617598   6.062   0.797   8.650  0.3276  0.3788 -0.4796
  157SAPE  H16X17599   6.064   0.755   8.752 -0.6978  2.0669  0.2753
  157SAPE  H16Y17600   6.165   0.826   8.618  1.9297 -2.7920  1.3372
  157SAPE  C31717601   6.020   0.680   8.562  0.8868 -0.0680 -0.5516
  157SAPE  H17X17602   5.990   0.735   8.470 -0.1223 -1.2130 -0.9282
  157SAPE  H17Y17603   5.934   0.628   8.609  1.7982 -1.4130 -0.3159
  157SAPE  C31817604   6.131   0.580   8.537 -0.8276  1.3505 -0.0883
  157SAPE  H18X17605   6.174   0.549   8.634 -0.1914  1.2799 -0.3926
  157SAPE  H18Y17606   6.217   0.625   8.483  0.3470 -0.0190  0.5723
  157SAPE  H18Z17607   6.101   0.489   8.481 -1.6901  1.6666 -0.1606
  158SAPE     N17608   0.648   3.412  11.255  0.2563  0.8421 -0.0655
  158SAPE   HN117609   0.646   3.497  11.314  3.3244 -0.4969  2.2723
  158SAPE   HN217610   0.636   3.446  11.157 -0.3729 -1.1598 -0.7406
  158SAPE   HN317611   0.576   3.342  11.282  0.8478  0.2438  0.0016
  158SAPE   C1217612   0.776   3.342  11.276  0.3056  0.1701 -0.1509
  158SAPE  H12A17613   0.772   3.306  11.381  0.6912 -0.3288 -0.3029
  158SAPE  H12B17614   0.849   3.426  11.267 -1.9884  2.3972  0.9390
  158SAPE   C1117615   0.806   3.238  11.172 -0.2210  0.1239  0.5719
  158SAPE  H11A17616   0.907   3.195  11.184  1.3997  3.2046 -0.8024
  158SAPE  H11B17617   0.816   3.291  11.075 -1.7167  1.5539  1.1423
  158SAPE     P17618   0.710   3.018  11.074  0.2155  0.0929  0.4994
  158SAPE   O1317619   0.852   2.970  11.064  0.5802  0.0770  0.4166
  158SAPE   O1417620   0.595   2.930  11.111  0.1701 -0.0478  0.4942
  158SAPE   O1217621   0.707   3.136  11.174 -0.0461 -0.1249  0.4331
  158SAPE   O1117622   0.684   3.094  10.938 -0.1442  0.1099  0.4019
  158SAPE    C117623   0.672   3.021  10.818  0.1021  0.9895 -0.1351
  158SAPE    HA17624   0.719   2.920  10.818  0.6852  1.2072 -2.7204
  158SAPE    HB17625   0.566   3.015  10.783  0.5066 -0.9795 -1.1792
  158SAPE    C217626   0.740   3.099  10.702  0.4536  0.4353 -0.4493
  158SAPE    HS17627   0.693   3.199  10.705 -0.0460  0.1715  1.4547
  158SAPE   O2117628   0.732   3.023  10.580  0.9312 -0.1676 -0.6621
  158SAPE   C2117629   0.701   3.093  10.474 -0.2958  0.2098  0.3801
  158SAPE   O2217630   0.668   3.211  10.475  0.4909  0.2841  0.0465
  158SAPE   C2217631   0.721   3.016  10.346 -0.5263  0.1684 -0.0262
  158SAPE   H2R17632   0.769   2.918  10.367 -1.2779 -0.4121 -0.8992
  158SAPE   H2S17633   0.621   3.002  10.299 -0.3425 -1.0745 -0.0965
  158SAPE    C317634   0.890   3.122  10.730 -0.5762 -0.3839  0.2211
  158SAPE    HX17635   0.950   3.033  10.759  0.5003  0.5404  0.9093
  158SAPE    HY17636   0.898   3.179  10.825  2.0657  1.8086 -1.1656
  158SAPE   O3117637   0.965   3.197  10.625 -0.1895  0.9186  0.2756
  158SAPE   C3117638   0.972   3.333  10.644 -0.4693 -0.0414  0.5579
  158SAPE   O3217639   0.921   3.391  10.736  0.4349 -0.1178 -0.1475
  158SAPE   C3217640   1.049   3.392  10.528  0.2400 -0.0580 -0.1971
  158SAPE   H2X17641   1.040   3.327  10.438 -1.1414 -1.4523  0.9103
  158SAPE   H2Y17642   1.152   3.398  10.570 -0.5535  1.1318  1.7070
  158SAPE   C2317643   0.802   3.108  10.245 -0.1561 -1.0284 -0.5034
  158SAPE   H3R17644   0.864   3.048  10.175 -0.9090 -1.4408 -0.8249
  158SAPE   H3S17645   0.871   3.178  10.298 -1.2766 -0.2987  0.0367
  158SAPE   C2417646   0.719   3.193  10.156  0.6528 -1.4091  0.2282
  158SAPE   H4R17647   0.788   3.258  10.099  0.3880 -1.2986  0.0332
  158SAPE   H4S17648   0.661   3.256  10.227  1.7277  0.0136 -0.1305
  158SAPE   C2517649   0.629   3.126  10.053 -0.2473  0.5260  0.6367
  158SAPE   H5R17650   0.553   3.057  10.091 -0.6845 -0.3809 -1.7748
  158SAPE   C2617651   0.624   3.152   9.924 -0.0885 -0.8728  0.0373
  158SAPE   H6R17652   0.552   3.100   9.859  0.3236 -0.9805 -0.3474
  158SAPE   C2717653   0.702   3.263   9.857 -0.7741  0.1986  0.2158
  158SAPE   H7R17654   0.784   3.303   9.920  0.2460  0.4830 -1.2346
  158SAPE   H7S17655   0.636   3.351   9.841  0.8138  0.9531 -3.4160
  158SAPE   C2817656   0.752   3.230   9.713 -0.6772  0.3350 -0.4048
  158SAPE   H8R17657   0.854   3.188   9.712  0.3569  2.3913  2.5291
  158SAPE   C2917658   0.680   3.238   9.601 -0.8804  0.0719 -0.2172
  158SAPE   H9R17659   0.734   3.218   9.507  0.0181  1.2891  0.0053
  158SAPE  C21017660   0.535   3.279   9.599  0.0772  0.5139  0.5711
  158SAPE  H10R17661   0.516   3.381   9.559  0.3599  1.1068  1.8974
  158SAPE  H10S17662   0.504   3.282   9.705  2.3529 -0.8461  1.3438
  158SAPE  C21117663   0.465   3.167   9.524 -0.0955 -0.4702  0.3741
  158SAPE  H11R17664   0.464   3.069   9.574 -2.2747 -0.4131  0.5140
  158SAPE  C21217665   0.415   3.166   9.403 -0.3321 -0.4911 -0.6820
  158SAPE  H12R17666   0.365   3.078   9.358 -0.9487  0.2705 -1.5370
  158SAPE  C21317667   0.406   3.284   9.311 -0.1864 -0.3586  0.1009
  158SAPE  H13R17668   0.462   3.257   9.219 -3.1052 -1.5197 -1.4386
  158SAPE  H13S17669   0.440   3.387   9.337 -0.9263  0.4483 -1.8820
  158SAPE  C21417670   0.263   3.308   9.279  0.4712 -0.4997  0.5495
  158SAPE  H14R17671   0.194   3.328   9.362  0.0961  0.4683  0.0188
  158SAPE  C21517672   0.206   3.298   9.159  0.0944  0.5339  0.1034
  158SAPE  H15R17673   0.099   3.322   9.154  0.5224  2.3057 -1.8356
  158SAPE  C21617674   0.283   3.277   9.033 -0.7362 -0.2291 -0.0033
  158SAPE  H16R17675   0.297   3.167   9.025 -0.4610 -0.4481  2.5997
  158SAPE  H16S17676   0.387   3.316   9.031 -1.0662  0.7064  0.4597
  158SAPE  C21717677   0.211   3.319   8.899 -0.4811 -0.0047 -0.4903
  158SAPE  H17R17678   0.260   3.270   8.812  0.1863  1.6021 -1.0514
  158SAPE  H17S17679   0.226   3.426   8.875 -0.1178 -0.5544 -2.9214
  158SAPE  C21817680   0.061   3.273   8.881  0.2035  0.3048 -0.5543
  158SAPE  H18R17681   0.012   3.339   8.957  4.2703  1.8230  1.0285
  158SAPE  H18S17682   0.040   3.170   8.916 -0.3248  0.3737 -0.6628
  158SAPE  C21917683  -0.003   3.305   8.746 -0.4578 -0.5791 -0.1852
  158SAPE  H19R17684  -0.111   3.310   8.769 -0.3013 -0.2928  0.5146
  158SAPE  H19S17685   0.007   3.227   8.668  1.2699 -0.6190  0.0273
  158SAPE  C22017686   0.045   3.441   8.691 -0.4325  0.4624 -0.3201
  158SAPE  H20R17687   0.156   3.433   8.687 -0.4989 -1.5849  0.3504
  158SAPE  H20S17688   0.029   3.527   8.758  2.3830  0.1400  0.9369
  158SAPE  H20T17689  -0.000   3.455   8.591  1.2885  0.5056 -1.1288
  158SAPE   C3317690   1.007   3.545  10.501  0.2829  0.0876 -0.0644
  158SAPE   H3X17691   1.079   3.592  10.432 -1.1020  1.1939 -0.8152
  158SAPE   H3Y17692   1.033   3.594  10.598  3.0208 -1.2721 -0.0095
  158SAPE   C3417693   0.863   3.554  10.457 -0.0597  0.7112  0.0588
  158SAPE   H4X17694   0.803   3.643  10.486  1.0328  0.9921  1.5491
  158SAPE   H4Y17695   0.807   3.470  10.503 -0.8433  1.5824  0.7479
  158SAPE   C3517696   0.824   3.523  10.304 -0.1412 -0.1721 -0.9973
  158SAPE   H5X17697   0.714   3.516  10.297 -0.0282 -1.2332 -2.0129
  158SAPE   H5Y17698   0.858   3.417  10.296  2.1018  0.5547 -2.1129
  158SAPE   C3617699   0.883   3.610  10.195 -0.4965 -0.1990 -0.3948
  158SAPE   H6X17700   0.993   3.628  10.192 -0.6767  0.9784 -0.6162
  158SAPE   H6Y17701   0.836   3.709  10.214  0.2949 -0.0168  0.7163
  158SAPE   C3717702   0.858   3.547  10.058  0.0428  0.0983  0.3962
  158SAPE   H7X17703   0.751   3.517  10.061  0.4469 -1.6271 -0.7167
  158SAPE   H7Y17704   0.920   3.455  10.056  1.3602  0.8759  2.6184
  158SAPE   C3817705   0.883   3.641   9.941  0.7401 -0.1330 -0.0656
  158SAPE   H8X17706   0.990   3.666   9.923  0.5127  0.7412 -0.2173
  158SAPE   H8Y17707   0.838   3.742   9.952  1.8322  0.7072 -2.5877
  158SAPE   C3917708   0.836   3.595   9.806  0.0769 -0.3268 -0.1181
  158SAPE   H9X17709   0.726   3.589   9.817  0.1627 -3.0543  0.0582
  158SAPE   H9Y17710   0.879   3.499   9.770  2.6871  1.7092 -3.0057
  158SAPE  C31017711   0.861   3.690   9.696 -0.1943 -0.3966  1.1247
  158SAPE  H10X17712   0.967   3.719   9.680 -0.9615  2.3619  0.5426
  158SAPE  H10Y17713   0.801   3.781   9.713 -0.7771 -0.3144 -1.0095
  158SAPE  C31117714   0.798   3.640   9.562  0.4821 -0.3725  0.2973
  158SAPE  H11X17715   0.694   3.609   9.584  0.1222  0.8914  0.3947
  158SAPE  H11Y17716   0.856   3.560   9.510  0.6611 -0.5361  0.7387
  158SAPE  C31217717   0.792   3.754   9.463 -0.3738  0.0726 -1.2552
  158SAPE  H12X17718   0.887   3.798   9.426  0.0460  1.7452  1.4871
  158SAPE  H12Y17719   0.749   3.838   9.522 -0.0462 -0.3156 -0.4474
  158SAPE  C31317720   0.693   3.716   9.347 -0.5661 -0.2625 -0.3315
  158SAPE  H13X17721   0.664   3.805   9.287 -0.7946 -0.7574 -0.9687
  158SAPE  H13Y17722   0.604   3.665   9.390 -1.3223  0.6681 -0.7509
  158SAPE  C31417723   0.756   3.625   9.250  0.2924 -0.4323 -0.1552
  158SAPE  H14X17724   0.796   3.532   9.296 -0.1109 -1.1822 -1.2897
  158SAPE  H14Y17725   0.850   3.671   9.212  0.5755 -0.1374  0.8601
  158SAPE  C31517726   0.662   3.584   9.133 -0.0214  0.3953  0.3721
  158SAPE  H15X17727   0.639   3.678   9.078 -1.4106 -1.0449 -1.6720
  158SAPE  H15Y17728   0.571   3.537   9.174 -0.0533 -0.8470 -1.0217
  158SAPE  C31617729   0.730   3.480   9.039 -0.1548  0.4574 -0.3669
  158SAPE  H16X17730   0.747   3.388   9.097  1.9295  0.7101 -0.5042
  158SAPE  H16Y17731   0.830   3.525   9.024  0.2726 -0.6597 -0.9311
  158SAPE  C31717732   0.641   3.456   8.920 -0.9176 -0.3522  0.3561
  158SAPE  H17X17733   0.658   3.545   8.856 -1.6538  0.5282  1.3525
  158SAPE  H17Y17734   0.538   3.458   8.963 -0.8109  1.3247  0.6001
  158SAPE  C31817735   0.673   3.321   8.852 -0.1974 -0.3327 -0.5488
  158SAPE  H18X17736   0.620   3.233   8.895 -0.5610  0.4696  0.7015
  158SAPE  H18Y17737   0.782   3.300   8.856  0.1253  1.1482 -0.8487
  158SAPE  H18Z17738   0.640   3.333   8.747  0.1172 -1.4035 -0.7778
  159SAPE     N17739   4.802   4.625   6.416 -0.3020  0.2914 -0.0886
  159SAPE   HN117740   4.757   4.531   6.409  2.2022 -1.0977  1.0284
  159SAPE   HN217741   4.741   4.705   6.389  1.3026  0.8831 -2.2086
  159SAPE   HN317742   4.888   4.645   6.362  0.5765  1.8694  1.7687
  159SAPE   C1217743   4.832   4.636   6.561 -0.2637  0.3454  0.1336
  159SAPE  H12A17744   4.909   4.560   6.585  0.3253  1.2944  1.3632
  159SAPE  H12B17745   4.740   4.612   6.618  0.2470  0.7310  1.1495
  159SAPE   C1117746   4.891   4.774   6.600 -0.4013  0.1989 -0.0847
  159SAPE  H11A17747   4.912   4.774   6.710  1.8336  1.6431 -0.4391
  159SAPE  H11B17748   4.816   4.854   6.580 -1.6533 -1.3274 -1.7595
  159SAPE     P17749   5.111   4.921   6.568 -0.2911 -0.3646 -0.1977
  159SAPE   O1317750   5.227   4.911   6.478  0.3606  0.0485  0.7886
  159SAPE   O1417751   5.030   5.043   6.542  0.0071 -0.5528 -0.0608
  159SAPE   O1217752   5.018   4.798   6.536  0.1388  0.0243 -0.1321
  159SAPE   O1117753   5.151   4.908   6.723  0.2851  0.5954  0.4534
  159SAPE    C117754   5.233   4.802   6.764  0.6183  0.8690 -0.6204
  159SAPE    HA17755   5.192   4.705   6.728  3.6601 -1.3780  1.4878
  159SAPE    HB17756   5.322   4.803   6.698  0.2149  0.0333 -1.1887
  159SAPE    C217757   5.262   4.803   6.924  0.4271  0.3621  0.1231
  159SAPE    HS17758   5.257   4.697   6.959 -0.5621  0.4373  0.2351
  159SAPE   O2117759   5.170   4.888   6.991  0.2832  0.1011  0.5452
  159SAPE   C2117760   5.049   4.830   6.994 -0.4857  0.4875 -0.2199
  159SAPE   O2217761   5.007   4.728   6.939  0.2296 -0.6668 -0.2361
  159SAPE   C2217762   4.960   4.923   7.085 -0.2828  0.3013 -0.2217
  159SAPE   H2R17763   4.925   5.003   7.016  2.7034  1.4750 -0.4930
  159SAPE   H2S17764   4.887   4.854   7.132  1.5347 -1.8418 -0.3907
  159SAPE    C317765   5.404   4.859   6.956 -0.3167  0.2237 -0.1373
  159SAPE    HX17766   5.396   4.967   6.929  0.1129  0.4947  0.7968
  159SAPE    HY17767   5.463   4.806   6.878  1.1405  0.8132  0.5284
  159SAPE   O3117768   5.444   4.826   7.093 -0.2598 -0.1274  0.3962
  159SAPE   C3117769   5.483   4.934   7.164  0.1601  0.3949  0.1282
  159SAPE   O3217770   5.500   5.043   7.117  0.3049 -0.6785 -0.3979
  159SAPE   C3217771   5.496   4.888   7.309 -0.0530 -1.2974  1.1164
  159SAPE   H2X17772   5.573   4.807   7.313 -0.8751 -2.3216 -1.6416
  159SAPE   H2Y17773   5.397   4.848   7.339 -0.7395 -0.8494 -0.4611
  159SAPE   C2317774   5.022   4.997   7.206  0.3254  0.0917 -0.4315
  159SAPE   H3R17775   4.963   5.089   7.221 -3.1068 -1.7621 -1.3750
  159SAPE   H3S17776   5.125   5.026   7.178  0.4301  0.9958  0.8413
  159SAPE   C2417777   5.036   4.913   7.332  0.4251  0.1345  0.8408
  159SAPE   H4R17778   5.099   4.825   7.305 -0.2981  0.5528 -2.7068
  159SAPE   H4S17779   4.932   4.883   7.360  0.2541 -0.3980 -0.2717
  159SAPE   C2517780   5.102   4.999   7.432 -0.4168  0.9235  0.4924
  159SAPE   H5R17781   5.120   5.105   7.408  0.8112  0.1548 -2.5378
  159SAPE   C2617782   5.163   4.946   7.547  0.2083  0.2581  0.0911
  159SAPE   H6R17783   5.212   5.016   7.617  0.5692  1.5793 -1.4389
  159SAPE   C2717784   5.159   4.799   7.594 -0.4404  0.1525 -0.4509
  159SAPE   H7R17785   5.262   4.761   7.610 -1.2149 -2.5173 -1.3895
  159SAPE   H7S17786   5.122   4.732   7.514 -1.4586  0.4670 -0.2617
  159SAPE   C2817787   5.085   4.781   7.720 -0.0572  0.7817 -0.9997
  159SAPE   H8R17788   4.978   4.799   7.701 -0.3637 -1.7047 -2.0723
  159SAPE   C2917789   5.141   4.763   7.842 -0.4378 -0.0918 -0.3720
  159SAPE   H9R17790   5.074   4.785   7.926 -1.9785 -1.1550 -1.2896
  159SAPE  C21017791   5.289   4.765   7.882 -0.1537  0.3079 -0.3163
  159SAPE  H10R17792   5.302   4.847   7.955 -1.3819  0.4028 -0.1861
  159SAPE  H10S17793   5.353   4.798   7.797 -1.9317  2.1218 -1.0309
  159SAPE  C21117794   5.352   4.640   7.947  0.4772  1.1143 -0.0243
  159SAPE  H11R17795   5.328   4.641   8.054 -1.8017  1.1458 -0.4715
  159SAPE  C21217796   5.433   4.544   7.886 -0.1579  0.1497  0.2042
  159SAPE  H12R17797   5.468   4.461   7.950  0.9704  0.6994  0.3206
  159SAPE  C21317798   5.473   4.560   7.745 -0.0585  0.6863  0.6780
  159SAPE  H13R17799   5.579   4.594   7.745  0.0468  0.9771 -3.8165
  159SAPE  H13S17800   5.400   4.618   7.684 -0.6714 -0.8674 -0.1540
  159SAPE  C21417801   5.485   4.426   7.682 -0.5759  0.0537 -0.3205
  159SAPE  H14R17802   5.455   4.345   7.750  0.7431  0.7577  1.1516
  159SAPE  C21517803   5.523   4.390   7.563  0.7167 -0.3233 -0.1604
  159SAPE  H15R17804   5.514   4.283   7.538  0.0673 -0.3508  0.1595
  159SAPE  C21617805   5.578   4.474   7.456 -0.0146 -0.2663  0.4021
  159SAPE  H16R17806   5.681   4.441   7.433 -0.0302 -1.1073  1.4720
  159SAPE  H16S17807   5.584   4.579   7.492 -2.5721  1.0198 -2.4180
  159SAPE  C21717808   5.486   4.476   7.327  0.4743  0.3523 -0.1160
  159SAPE  H17R17809   5.448   4.375   7.299 -2.0684  0.8258  1.2408
  159SAPE  H17S17810   5.538   4.523   7.241  0.4488  0.6486  0.0318
  159SAPE  C21817811   5.356   4.555   7.353 -0.2129  0.0859 -0.0210
  159SAPE  H18R17812   5.389   4.646   7.408 -0.2156 -1.3595  2.5190
  159SAPE  H18S17813   5.291   4.498   7.423 -0.6137  0.6409  0.0661
  159SAPE  C21917814   5.272   4.591   7.234 -0.1822  0.1069 -0.0110
  159SAPE  H19R17815   5.310   4.681   7.182 -1.9330  0.0412 -1.5168
  159SAPE  H19S17816   5.174   4.632   7.266  0.7464  1.8242  0.7306
  159SAPE  C22017817   5.260   4.482   7.132 -0.2134 -0.0017  1.3234
  159SAPE  H20R17818   5.358   4.461   7.082 -0.4174 -2.1739  1.7356
  159SAPE  H20S17819   5.184   4.504   7.054  1.1247 -0.2185 -0.1206
  159SAPE  H20T17820   5.227   4.384   7.174  1.4198 -0.9961  0.4304
  159SAPE   C3317821   5.517   5.003   7.408  0.6746  0.2580 -1.0527
  159SAPE   H3X17822   5.425   5.064   7.408  0.6953  0.3080 -0.0167
  159SAPE   H3Y17823   5.605   5.065   7.379  0.3759  0.2264 -2.0722
  159SAPE   C3417824   5.531   4.945   7.547 -0.6625  0.1155 -0.2302
  159SAPE   H4X17825   5.627   4.889   7.543  0.7486  2.3843 -0.1046
  159SAPE   H4Y17826   5.448   4.874   7.569 -0.8352 -0.3682 -2.2762
  159SAPE   C3517827   5.532   5.058   7.656 -0.3361  0.2615 -0.2155
  159SAPE   H5X17828   5.541   5.015   7.758  2.7174 -0.0696 -0.5426
  159SAPE   H5Y17829   5.438   5.118   7.655 -0.1899  0.5032  0.3125
  159SAPE   C3617830   5.653   5.155   7.645  0.1258  0.8697 -0.2760
  159SAPE   H6X17831   5.627   5.229   7.566  1.1924 -0.0292 -1.5137
  159SAPE   H6Y17832   5.737   5.089   7.614  0.0272 -0.5142  2.1385
  159SAPE   C3717833   5.682   5.223   7.776  0.1037  0.5151 -0.5087
  159SAPE   H7X17834   5.771   5.291   7.773  0.5082  0.0218  0.1251
  159SAPE   H7Y17835   5.712   5.156   7.859 -3.6864  1.4255  1.8035
  159SAPE   C3817836   5.578   5.323   7.829  0.3719  0.3348 -0.0322
  159SAPE   H8X17837   5.480   5.271   7.836  0.5859  0.1086  1.8725
  159SAPE   H8Y17838   5.572   5.393   7.743 -0.5633 -2.0507 -2.0167
  159SAPE   C3917839   5.615   5.380   7.968  0.2432 -0.4496  0.3920
  159SAPE   H9X17840   5.716   5.426   7.974  1.2716 -2.7335  3.3828
  159SAPE   H9Y17841   5.600   5.295   8.038 -2.9843 -1.7135 -1.6068
  159SAPE  C31017842   5.516   5.494   8.015  0.0841 -0.0930 -0.2373
  159SAPE  H10X17843   5.409   5.466   8.013 -0.1507  0.7789 -0.7120
  159SAPE  H10Y17844   5.527   5.584   7.950  0.3686 -0.1398 -0.2585
  159SAPE  C31117845   5.549   5.550   8.158 -0.4410 -0.7311  0.1518
  159SAPE  H11X17846   5.493   5.643   8.180  1.7269  0.5431  0.5904
  159SAPE  H11Y17847   5.655   5.583   8.164 -1.0171  0.9726  2.2000
  159SAPE  C31217848   5.532   5.451   8.281  0.0328 -0.4753 -0.0774
  159SAPE  H12X17849   5.612   5.375   8.281 -0.3909 -0.9711  1.5822
  159SAPE  H12Y17850   5.431   5.405   8.289 -0.1938  0.2986  2.7777
  159SAPE  C31317851   5.553   5.521   8.419  0.7601 -0.7641 -0.8012
  159SAPE  H13X17852   5.651   5.572   8.413  0.4237 -0.0792 -0.5687
  159SAPE  H13Y17853   5.557   5.440   8.496 -1.5403  0.4234  0.6937
  159SAPE  C31417854   5.439   5.622   8.460  0.2267 -0.5955 -0.2177
  159SAPE  H14X17855   5.344   5.565   8.462 -0.1899  0.0693 -0.6558
  159SAPE  H14Y17856   5.417   5.687   8.372 -0.6989 -0.9205 -0.2383
  159SAPE  C31517857   5.458   5.710   8.584 -0.5145  0.0293  0.1780
  159SAPE  H15X17858   5.562   5.748   8.581 -0.4593 -0.2019 -1.9701
  159SAPE  H15Y17859   5.451   5.648   8.676  1.2233  0.9704  1.0028
  159SAPE  C31617860   5.361   5.829   8.588  0.1293 -0.1697  0.2516
  159SAPE  H16X17861   5.255   5.794   8.588  0.2276 -0.4735 -0.2776
  159SAPE  H16Y17862   5.380   5.889   8.498  3.2812 -1.2868  0.0696
  159SAPE  C31717863   5.382   5.908   8.715  0.3433 -0.0521 -0.3457
  159SAPE  H17X17864   5.490   5.932   8.712 -0.2970  3.1824 -2.6147
  159SAPE  H17Y17865   5.359   5.838   8.799 -1.0753 -0.2231 -0.8425
  159SAPE  C31817866   5.299   6.036   8.726  0.0156 -0.9518  0.6031
  159SAPE  H18X17867   5.213   6.011   8.791 -0.5696 -3.1487 -0.8974
  159SAPE  H18Y17868   5.278   6.078   8.625  0.3020  1.0246  1.3300
  159SAPE  H18Z17869   5.352   6.117   8.780 -1.8760  1.0311 -0.3427
  160SAPE     N17870   4.980   5.433   6.672  0.1347  0.1007 -0.3806
  160SAPE   HN117871   5.041   5.404   6.593  1.8574  1.9201  0.2062
  160SAPE   HN217872   4.990   5.368   6.752 -2.3465  1.7228  1.3950
  160SAPE   HN317873   4.880   5.432   6.645 -0.2223  5.2109 -0.1951
  160SAPE   C1217874   5.019   5.567   6.726  0.2847  0.0215  0.1809
  160SAPE  H12A17875   5.095   5.550   6.805 -0.2488  1.0435  0.9463
  160SAPE  H12B17876   4.930   5.610   6.777  2.1254  1.7573  2.1465
  160SAPE   C1117877   5.068   5.651   6.602  0.2530  0.2223 -0.4013
  160SAPE  H11A17878   5.087   5.752   6.645 -0.3808  1.1624 -2.2210
  160SAPE  H11B17879   4.980   5.659   6.535 -2.1288  3.4861  2.7548
  160SAPE     P17880   5.326   5.586   6.612  0.2047  0.3648  0.4321
  160SAPE   O1317881   5.424   5.591   6.501 -0.2429  0.1492 -0.6740
  160SAPE   O1417882   5.349   5.690   6.718 -0.5679 -0.2931  0.5157
  160SAPE   O1217883   5.183   5.596   6.539  0.0916  0.1916  0.0499
  160SAPE   O1117884   5.317   5.450   6.684  0.5083 -0.0008  0.2797
  160SAPE    C117885   5.388   5.339   6.629 -0.0035  0.6498 -0.3966
  160SAPE    HA17886   5.378   5.332   6.518  0.8371 -2.2407 -0.3821
  160SAPE    HB17887   5.495   5.353   6.651 -0.4335  0.0872  2.3439
  160SAPE    C217888   5.351   5.194   6.690 -0.0971 -0.2958 -0.2501
  160SAPE    HS17889   5.250   5.168   6.652 -1.4169 -0.9974  3.3767
  160SAPE   O2117890   5.343   5.205   6.837  0.6760 -0.3762 -0.1691
  160SAPE   C2117891   5.223   5.232   6.893 -0.7113 -0.0305  0.1699
  160SAPE   O2217892   5.113   5.236   6.834 -0.2601 -0.2430  0.0383
  160SAPE   C2217893   5.238   5.281   7.032  0.8478 -0.7204  0.0630
  160SAPE   H2R17894   5.152   5.349   7.048  1.7785 -0.0830  2.7845
  160SAPE   H2S17895   5.225   5.196   7.103  2.8102 -1.9703 -0.9795
  160SAPE    C317896   5.457   5.091   6.650 -0.1772 -0.1825  0.6777
  160SAPE    HX17897   5.430   5.081   6.543  0.8451  0.9205  0.2838
  160SAPE    HY17898   5.437   4.991   6.693 -1.1183  0.2104  1.1712
  160SAPE   O3117899   5.589   5.138   6.656  0.2961 -0.2838 -0.3117
  160SAPE   C3117900   5.676   5.053   6.701 -0.7085 -0.2927  0.7699
  160SAPE   O3217901   5.658   4.937   6.725  0.0476  0.0024 -0.1611
  160SAPE   C3217902   5.813   5.117   6.684  0.3637 -0.1373 -0.2174
  160SAPE   H2X17903   5.827   5.120   6.574  0.3721  0.6405 -0.1987
  160SAPE   H2Y17904   5.885   5.044   6.728  0.8928 -0.4723 -1.5896
  160SAPE   C2317905   5.364   5.359   7.066 -0.1205  0.3417 -0.5395
  160SAPE   H3R17906   5.384   5.443   6.996  4.3496  0.4335  0.5592
  160SAPE   H3S17907   5.452   5.290   7.063 -1.4654 -1.4577 -0.7636
  160SAPE   C2417908   5.370   5.433   7.201  0.0858 -0.1184  0.8342
  160SAPE   H4R17909   5.301   5.519   7.200  0.3380  0.0989  1.4138
  160SAPE   H4S17910   5.474   5.471   7.212  0.0859  0.1314  0.0180
  160SAPE   C2517911   5.337   5.333   7.308 -0.3010 -0.6945 -0.3224
  160SAPE   H5R17912   5.362   5.229   7.280  0.8031 -0.4230 -0.4169
  160SAPE   C2617913   5.290   5.346   7.436 -0.2851 -0.4901  0.2893
  160SAPE   H6R17914   5.278   5.259   7.502 -3.4119 -0.0161  0.4929
  160SAPE   C2717915   5.258   5.472   7.514  0.0944  0.1635  0.0324
  160SAPE   H7R17916   5.320   5.559   7.485 -2.1653  1.8171 -0.1498
  160SAPE   H7S17917   5.272   5.450   7.622 -2.1945 -2.5048 -0.0871
  160SAPE   C2817918   5.120   5.518   7.477 -0.6023 -0.6275  0.6628
  160SAPE   H8R17919   5.112   5.587   7.391 -1.6366 -0.1978  1.0839
  160SAPE   C2917920   5.012   5.470   7.538 -0.0519  0.1186 -0.4251
  160SAPE   H9R17921   4.914   5.494   7.494 -0.9154 -0.6824  0.9597
  160SAPE  C21017922   5.010   5.364   7.642 -0.8579  0.0224  0.3573
  160SAPE  H10R17923   5.113   5.329   7.666 -0.7397  1.6019  2.4616
  160SAPE  H10S17924   4.965   5.279   7.588  1.1505  0.0387 -1.4499
  160SAPE  C21117925   4.939   5.403   7.776  0.4859  0.7591 -0.0679
  160SAPE  H11R17926   4.842   5.454   7.768 -1.2861 -2.3321 -0.0912
  160SAPE  C21217927   4.982   5.376   7.900  0.2793  0.2395  0.5962
  160SAPE  H12R17928   4.939   5.436   7.981 -1.5841 -1.1371  0.7084
  160SAPE  C21317929   5.101   5.296   7.939 -0.5446  0.3198  0.3310
  160SAPE  H13R17930   5.153   5.325   8.033  2.5784  0.2378 -1.2348
  160SAPE  H13S17931   5.178   5.313   7.860 -3.0343  0.6824 -2.1768
  160SAPE  C21417932   5.064   5.150   7.953 -0.0307 -0.5772  0.3231
  160SAPE  H14R17933   5.000   5.109   7.873  0.7317 -1.8764  0.3484
  160SAPE  C21517934   5.093   5.071   8.059 -0.2020 -0.0067  0.0529
  160SAPE  H15R17935   5.073   4.963   8.065  1.5153 -0.3316  0.3998
  160SAPE  C21617936   5.172   5.114   8.182  0.0710  0.1569  1.0121
  160SAPE  H16R17937   5.180   5.031   8.255  2.7185 -0.1007  0.5246
  160SAPE  H16S17938   5.128   5.207   8.222  1.3904  0.6760  1.3115
  160SAPE  C21717939   5.314   5.154   8.135 -0.4276  0.5405 -0.2851
  160SAPE  H17R17940   5.318   5.265   8.126 -0.2790  0.4258 -1.9878
  160SAPE  H17S17941   5.330   5.112   8.034  1.8904 -2.9326  1.3138
  160SAPE  C21817942   5.423   5.095   8.231  0.3229  0.2504 -0.3679
  160SAPE  H18R17943   5.508   5.154   8.192 -0.1453  2.5692  1.8208
  160SAPE  H18S17944   5.431   4.985   8.219 -0.4747  0.1993 -0.4683
  160SAPE  C21917945   5.402   5.141   8.377 -0.6499 -0.5184 -0.8834
  160SAPE  H19R17946   5.308   5.102   8.421 -0.0570  0.3436  1.3023
  160SAPE  H19S17947   5.389   5.252   8.383 -1.6101 -0.4549 -3.2227
  160SAPE  C22017948   5.524   5.103   8.469 -0.8296  0.3880  0.5062
  160SAPE  H20R17949   5.619   5.138   8.424 -0.1867  0.2647  1.7199
  160SAPE  H20S17950   5.526   4.993   8.483  0.2730  0.0371 -1.9846
  160SAPE  H20T17951   5.516   5.147   8.571  0.9870 -2.0478  1.8085
  160SAPE   C3317952   5.828   5.256   6.740 -0.0237  0.0343  1.0771
  160SAPE   H3X17953   5.739   5.314   6.706 -0.5670 -1.8065 -0.8205
  160SAPE   H3Y17954   5.921   5.305   6.704 -1.0728  1.1158 -0.2803
  160SAPE   C3417955   5.846   5.273   6.893  0.3438 -1.5260  0.1684
  160SAPE   H4X17956   5.844   5.382   6.912  0.9386 -1.4211 -0.3280
  160SAPE   H4Y17957   5.945   5.238   6.930  1.4264  0.0768 -1.0699
  160SAPE   C3517958   5.734   5.207   6.963 -0.4895 -0.1515 -0.0120
  160SAPE   H5X17959   5.754   5.098   6.961  3.1127  0.3726 -1.8993
  160SAPE   H5Y17960   5.635   5.244   6.929 -0.6850 -0.1766  0.5146
  160SAPE   C3617961   5.753   5.245   7.118 -0.0274 -0.3940  0.3857
  160SAPE   H6X17962   5.663   5.200   7.164 -1.1118  0.5253 -0.7630
  160SAPE   H6Y17963   5.757   5.356   7.115 -0.9973 -0.3598 -1.7552
  160SAPE   C3717964   5.867   5.183   7.184  0.6564  0.4511  0.1902
  160SAPE   H7X17965   5.964   5.199   7.133  1.0033 -0.6590  0.4805
  160SAPE   H7Y17966   5.852   5.073   7.192 -0.5654  0.5051 -1.0942
  160SAPE   C3817967   5.883   5.217   7.334 -0.1188  0.1881  0.7295
  160SAPE   H8X17968   5.788   5.185   7.383 -0.2068 -1.1642 -0.2573
  160SAPE   H8Y17969   5.905   5.325   7.336  0.4144  0.1111 -0.4109
  160SAPE   C3917970   6.005   5.139   7.392 -0.5417  0.2297 -0.4217
  160SAPE   H9X17971   6.101   5.183   7.358  0.4408 -1.2237  0.3463
  160SAPE   H9Y17972   6.012   5.031   7.369  0.9046  0.1404  0.3110
  160SAPE  C31017973   6.014   5.144   7.545  0.6254  0.3574  0.3487
  160SAPE  H10X17974   6.102   5.087   7.583 -0.9927 -1.0312  2.2120
  160SAPE  H10Y17975   5.942   5.080   7.600  0.6757  0.6066  0.7114
  160SAPE  C31117976   6.025   5.284   7.597 -0.1733 -0.3954  0.5303
  160SAPE  H11X17977   5.922   5.326   7.591  1.3892  3.9964  0.7673
  160SAPE  H11Y17978   6.099   5.342   7.538  0.3383  0.5000  1.9939
  160SAPE  C31217979   6.082   5.294   7.745  0.8101 -0.2599 -0.1174
  160SAPE  H12X17980   6.184   5.253   7.732  1.0966  1.0201 -2.4821
  160SAPE  H12Y17981   6.025   5.236   7.820  2.3083 -2.2166 -0.4114
  160SAPE  C31317982   6.096   5.441   7.787 -0.3587 -0.0561 -0.3911
  160SAPE  H13X17983   6.001   5.498   7.798  0.3978  1.1831 -0.0311
  160SAPE  H13Y17984   6.168   5.477   7.710  1.2386 -0.5029  0.8320
  160SAPE  C31417985   6.167   5.435   7.921  0.4903  0.1845  0.0075
  160SAPE  H14X17986   6.250   5.361   7.925 -0.0537 -0.3987  0.7348
  160SAPE  H14Y17987   6.101   5.393   8.000  1.3146 -0.0234  0.6038
  160SAPE  C31517988   6.227   5.562   7.972 -0.4272 -0.1449  0.3627
  160SAPE  H15X17989   6.154   5.642   7.993  0.6976  0.3071  2.9544
  160SAPE  H15Y17990   6.299   5.588   7.892 -1.5059  0.2678 -0.4968
  160SAPE  C31617991   6.319   5.541   8.095  0.0888 -0.3098  0.5412
  160SAPE  H16X17992   6.396   5.464   8.072 -0.0484 -0.3144  0.0922
  160SAPE  H16Y17993   6.246   5.511   8.173  1.2312  0.7574  2.0974
  160SAPE  C31717994   6.391   5.673   8.131  0.2143  0.1406  0.5727
  160SAPE  H17X17995   6.338   5.765   8.098 -1.3220 -0.9318 -0.0203
  160SAPE  H17Y17996   6.483   5.675   8.069 -1.1458  2.2095 -1.5605
  160SAPE  C31817997   6.429   5.679   8.285  0.0046 -0.3991 -1.0215
  160SAPE  H18X17998   6.494   5.597   8.323  0.7958  0.2650 -0.9214
  160SAPE  H18Y17999   6.339   5.678   8.350  0.6591  3.8465  0.2332
  160SAPE  H18Z18000   6.482   5.773   8.310 -0.2619 -0.6972  0.7705
  161SAPE     N18001   6.728   5.996   6.318  0.2579 -0.2689 -0.0619
  161SAPE   HN118002   6.742   5.998   6.421 -0.7666 -0.3779  0.0822
  161SAPE   HN218003   6.811   5.947   6.277  0.5819 -1.1406  1.5647
  161SAPE   HN318004   6.711   6.092   6.283  1.4788 -0.7567 -2.1780
  161SAPE   C1218005   6.602   5.915   6.292 -0.0403  0.2407 -0.2025
  161SAPE  H12A18006   6.594   5.887   6.184 -1.3323  0.8493 -0.2733
  161SAPE  H12B18007   6.515   5.980   6.313 -1.1266 -1.1151 -0.3847
  161SAPE   C1118008   6.590   5.799   6.394  0.3114 -0.5403  0.1958
  161SAPE  H11A18009   6.509   5.730   6.364  0.0153 -0.1396  0.0626
  161SAPE  H11B18010   6.550   5.847   6.487  1.8941  3.0279 -0.7758
  161SAPE     P18011   6.757   5.600   6.348 -0.3767  0.2643 -0.0198
  161SAPE   O1318012   6.664   5.565   6.240  0.0815 -0.9162 -0.5053
  161SAPE   O1418013   6.900   5.627   6.315  0.2879  0.3288 -0.1167
  161SAPE   O1218014   6.713   5.731   6.424 -0.2798 -0.0064  0.5881
  161SAPE   O1118015   6.746   5.476   6.452 -0.0527 -0.1244  0.5004
  161SAPE    C118016   6.630   5.438   6.525  0.0242  0.6625  0.4742
  161SAPE    HA18017   6.536   5.494   6.502 -0.4466 -1.2349 -2.8829
  161SAPE    HB18018   6.616   5.332   6.497  0.0989  0.9273 -0.6150
  161SAPE    C218019   6.663   5.455   6.682 -0.4482  1.1978 -0.1749
  161SAPE    HS18020   6.569   5.426   6.735 -0.6588 -2.3812 -2.1431
  161SAPE   O2118021   6.719   5.584   6.711  0.1086  0.3075 -0.1939
  161SAPE   C2118022   6.632   5.667   6.753 -0.0221 -0.1276 -0.5419
  161SAPE   O2218023   6.515   5.648   6.764  0.4040 -0.2749  0.1780
  161SAPE   C2218024   6.696   5.801   6.791  0.0318  0.4410 -0.3408
  161SAPE   H2R18025   6.798   5.792   6.748  0.1656 -2.5967  0.4021
  161SAPE   H2S18026   6.632   5.875   6.737 -0.0274  0.0413 -0.8208
  161SAPE    C318027   6.761   5.343   6.714 -0.7840 -0.0257  0.0024
  161SAPE    HX18028   6.843   5.342   6.640  0.4328  0.0382  1.3208
  161SAPE    HY18029   6.721   5.240   6.706 -0.6434 -0.0547 -0.3181
  161SAPE   O3118030   6.807   5.355   6.853 -0.4657 -0.1930 -0.4563
  161SAPE   C3118031   6.916   5.292   6.878  0.1643 -0.3920  0.9195
  161SAPE   O3218032   6.982   5.226   6.798  0.2421 -0.6099  0.0880
  161SAPE   C3218033   6.960   5.321   7.018 -0.3525 -0.0878 -0.6512
  161SAPE   H2X18034   6.866   5.326   7.076  1.0658  0.8441  1.7342
  161SAPE   H2Y18035   7.000   5.425   7.013 -1.5050  0.5069  1.2942
  161SAPE   C2318036   6.682   5.839   6.938  0.4873 -0.3196 -0.1287
  161SAPE   H3R18037   6.576   5.832   6.972  0.8493  0.1761  1.1628
  161SAPE   H3S18038   6.718   5.940   6.965 -0.8899  0.1042  0.2022
  161SAPE   C2418039   6.756   5.742   7.025  0.3216 -0.3847 -0.7123
  161SAPE   H4R18040   6.759   5.781   7.130 -2.0998 -1.3802 -0.1878
  161SAPE   H4S18041   6.863   5.740   6.995  0.3879  2.0672 -0.8824
  161SAPE   C2518042   6.713   5.598   7.047  0.5852  0.0077  0.7233
  161SAPE   H5R18043   6.717   5.532   6.960 -1.5535 -0.2112  0.7261
  161SAPE   C2618044   6.665   5.541   7.159 -0.0482  0.1105  0.0720
  161SAPE   H6R18045   6.617   5.444   7.145 -1.4087  0.8511 -0.5513
  161SAPE   C2718046   6.642   5.611   7.294  0.6865 -0.3898 -0.3918
  161SAPE   H7R18047   6.740   5.655   7.321 -0.1125  0.6663  0.9568
  161SAPE   H7S18048   6.629   5.532   7.372 -0.0782 -0.7323 -0.8495
  161SAPE   C2818049   6.531   5.718   7.305 -0.8810  0.9968 -0.5685
  161SAPE   H8R18050   6.458   5.700   7.225 -0.5507  1.9737 -1.1074
  161SAPE   C2918051   6.514   5.816   7.382  0.3600 -0.4633  0.2190
  161SAPE   H9R18052   6.433   5.887   7.358  0.6179 -0.2127  0.0846
  161SAPE  C21018053   6.602   5.868   7.498 -0.6671 -0.3207  0.1433
  161SAPE  H10R18054   6.682   5.928   7.450  0.6391 -0.1940  2.3310
  161SAPE  H10S18055   6.656   5.779   7.537 -0.5805 -1.6248 -2.6681
  161SAPE  C21118056   6.524   5.958   7.594 -0.5850 -0.6091  0.0004
  161SAPE  H11R18057   6.426   5.991   7.555 -0.9584 -2.3626 -0.6840
  161SAPE  C21218058   6.581   6.002   7.712 -0.7874 -0.3335 -0.0933
  161SAPE  H12R18059   6.517   6.035   7.795 -0.5127 -0.9067  0.3593
  161SAPE  C21318060   6.727   5.965   7.759 -0.4700  0.6781  0.1328
  161SAPE  H13R18061   6.757   6.048   7.827  0.8569 -0.9546  1.6391
  161SAPE  H13S18062   6.799   5.966   7.675 -0.9427  0.7742 -0.2754
  161SAPE  C21418063   6.762   5.835   7.819  0.6264 -0.4052 -0.9920
  161SAPE  H14R18064   6.780   5.756   7.744  3.0631 -2.3940  1.4423
  161SAPE  C21518065   6.743   5.803   7.948  0.3833 -0.0925 -0.0937
  161SAPE  H15R18066   6.771   5.701   7.979  0.8710 -0.7005 -2.3515
  161SAPE  C21618067   6.699   5.904   8.057  0.6679 -0.5728 -0.4949
  161SAPE  H16R18068   6.606   5.874   8.109  0.0322  1.2169 -0.5494
  161SAPE  H16S18069   6.688   6.008   8.020 -0.6344 -0.7623 -0.7033
  161SAPE  C21718070   6.798   5.892   8.176  0.4049  0.0850 -0.5430
  161SAPE  H17R18071   6.901   5.922   8.146  0.8258 -0.2282  0.5333
  161SAPE  H17S18072   6.800   5.784   8.203  0.1697 -0.0802 -1.1732
  161SAPE  C21818073   6.761   5.976   8.294  0.1722 -0.4127 -0.4049
  161SAPE  H18R18074   6.667   5.932   8.334  0.7707 -0.0967  1.4451
  161SAPE  H18S18075   6.742   6.084   8.278 -1.5207 -0.4544  0.9646
  161SAPE  C21918076   6.869   5.967   8.408  0.1217  0.8916 -0.5013
  161SAPE  H19R18077   6.820   6.022   8.491  0.0842 -1.2029  0.9160
  161SAPE  H19S18078   6.961   6.029   8.395 -0.4347  1.5738 -1.3238
  161SAPE  C22018079   6.910   5.829   8.459  0.2331 -0.3745 -0.0057
  161SAPE  H20R18080   6.976   5.775   8.388  2.0670  0.4392  1.0136
  161SAPE  H20S18081   6.820   5.764   8.471 -1.6383  1.9514 -0.5068
  161SAPE  H20T18082   6.963   5.839   8.556 -0.4963  0.0138  0.3693
  161SAPE   C3318083   7.052   5.214   7.084 -0.2300 -0.1290  0.2491
  161SAPE   H3X18084   7.136   5.190   7.015  2.0217  1.0503  2.4216
  161SAPE   H3Y18085   6.993   5.121   7.097  0.9605 -0.8922  0.3591
  161SAPE   C3418086   7.103   5.250   7.229  0.0470  0.3341  0.1915
  161SAPE   H4X18087   7.014   5.285   7.286 -0.5376 -1.7589  0.6509
  161SAPE   H4Y18088   7.168   5.340   7.217 -0.3864  0.4177 -2.0963
  161SAPE   C3518089   7.185   5.145   7.290  0.2588  0.8827 -0.1667
  161SAPE   H5X18090   7.260   5.117   7.213 -1.2285  0.7090 -1.6034
  161SAPE   H5Y18091   7.129   5.051   7.309  1.2510  0.4560  0.7311
  161SAPE   C3618092   7.242   5.199   7.418  0.1465  0.2533  0.2346
  161SAPE   H6X18093   7.159   5.219   7.488 -0.3640 -0.0794 -0.2695
  161SAPE   H6Y18094   7.306   5.289   7.402  0.5072  0.0301  0.3931
  161SAPE   C3718095   7.337   5.094   7.489  0.0274  0.3905 -0.2807
  161SAPE   H7X18096   7.440   5.103   7.448 -0.1869 -0.0362 -0.9391
  161SAPE   H7Y18097   7.295   4.994   7.465 -1.6245  0.5847  1.6143
  161SAPE   C3818098   7.341   5.115   7.637 -0.8423  0.0072  0.1800
  161SAPE   H8X18099   7.259   5.064   7.692  1.1556 -2.2928  1.2338
  161SAPE   H8Y18100   7.337   5.225   7.653  0.6893  0.2473 -0.8660
  161SAPE   C3918101   7.465   5.065   7.717  0.4063  0.6072  0.4566
  161SAPE   H9X18102   7.557   5.102   7.668  0.7634 -1.6337 -0.7032
  161SAPE   H9Y18103   7.478   4.956   7.701 -1.0792  0.7682 -2.6800
  161SAPE  C31018104   7.461   5.104   7.866 -0.0880  0.1066  0.4209
  161SAPE  H10X18105   7.356   5.084   7.895 -0.7806  1.4743 -1.0050
  161SAPE  H10Y18106   7.472   5.214   7.878 -0.6488  0.0157  1.9585
  161SAPE  C31118107   7.558   5.027   7.951  0.4525 -0.8609  0.6105
  161SAPE  H11X18108   7.662   5.047   7.917 -0.4370  0.0772 -1.7521
  161SAPE  H11Y18109   7.543   4.918   7.958  0.5363 -0.8172  1.5891
  161SAPE  C31218110   7.547   5.062   8.100  0.1248 -0.0667  0.1581
  161SAPE  H12X18111   7.444   5.042   8.136  0.0728  0.5855  0.3851
  161SAPE  H12Y18112   7.560   5.171   8.116 -3.3577  0.8430 -2.0421
  161SAPE  C31318113   7.642   4.980   8.192  0.1734  0.0803  0.3662
  161SAPE  H13X18114   7.746   4.991   8.155  0.2796 -2.1615 -0.1327
  161SAPE  H13Y18115   7.624   4.870   8.193  0.4871  0.0260  0.1067
  161SAPE  C31418116   7.629   5.028   8.339 -0.0995  0.4951  0.2832
  161SAPE  H14X18117   7.533   5.009   8.391 -0.5699  3.3083  0.6099
  161SAPE  H14Y18118   7.638   5.139   8.341 -0.3008  0.5704 -1.4239
  161SAPE  C31518119   7.734   4.970   8.434 -0.9345  0.1641  0.5373
  161SAPE  H15X18120   7.835   5.002   8.400 -0.1729  2.0482  4.0478
  161SAPE  H15Y18121   7.727   4.860   8.420  0.2186  0.3103 -1.7933
  161SAPE  C31618122   7.735   5.010   8.578 -0.3914  0.3082  0.7479
  161SAPE  H16X18123   7.671   4.948   8.645 -0.3531  0.6691  1.1127
  161SAPE  H16Y18124   7.691   5.112   8.580 -2.4313 -0.4773 -0.2655
  161SAPE  C31718125   7.870   5.006   8.649 -0.1875  0.6401  0.2558
  161SAPE  H17X18126   7.935   5.060   8.576 -0.1229 -0.5882 -0.6388
  161SAPE  H17Y18127   7.892   4.897   8.657 -1.2548  0.3932 -0.0540
  161SAPE  C31818128   7.872   5.064   8.792  0.6170  0.3148  0.6129
  161SAPE  H18X18129   7.783   5.031   8.850  0.8830  2.1768  2.2034
  161SAPE  H18Y18130   7.867   5.175   8.785 -0.0193  0.1870 -2.9243
  161SAPE  H18Z18131   7.963   5.038   8.850  1.2816 -3.6858 -1.8783
  162SAPE     N18132   6.672   1.050   6.248 -0.7869 -0.5618  0.4581
  162SAPE   HN118133   6.705   1.049   6.149 -1.9149  0.7730  0.0334
  162SAPE   HN218134   6.751   1.022   6.310 -0.3468  0.8546  0.5719
  162SAPE   HN318135   6.605   0.971   6.255  1.6111 -2.5833  3.5965
  162SAPE   C1218136   6.617   1.184   6.287  0.0595 -0.2208 -0.0460
  162SAPE  H12A18137   6.557   1.182   6.381 -0.5369  1.2655 -0.3706
  162SAPE  H12B18138   6.562   1.226   6.200 -0.0844  1.3208  0.7580
  162SAPE   C1118139   6.737   1.285   6.310 -0.1964  0.0637 -0.5175
  162SAPE  H11A18140   6.787   1.237   6.397 -1.6334 -0.0486  0.2828
  162SAPE  H11B18141   6.688   1.375   6.353  0.6185 -0.1208  0.8775
  162SAPE     P18142   6.834   1.437   6.138  0.0948 -0.1044 -0.0260
  162SAPE   O1318143   6.961   1.452   6.058 -0.1827 -0.1606  0.4511
  162SAPE   O1418144   6.710   1.458   6.059  0.1076  0.0856 -0.1894
  162SAPE   O1218145   6.827   1.294   6.199 -0.1128 -0.6075 -0.0761
  162SAPE   O1118146   6.833   1.529   6.265  0.1273  0.1101 -0.4251
  162SAPE    C118147   6.751   1.648   6.267 -0.1422  0.2356 -0.1055
  162SAPE    HA18148   6.749   1.698   6.168 -1.8462 -1.2839 -0.8961
  162SAPE    HB18149   6.648   1.612   6.289  0.1435 -1.8367 -1.8770
  162SAPE    C218150   6.808   1.749   6.371  0.8030 -0.4738 -0.0170
  162SAPE    HS18151   6.909   1.774   6.333  0.0051  1.2489 -1.1069
  162SAPE   O2118152   6.811   1.692   6.502  0.0947 -0.0226  0.0909
  162SAPE   C2118153   6.905   1.738   6.579  0.5345  0.3042  0.4967
  162SAPE   O2218154   6.983   1.824   6.555 -0.5122 -0.2359 -0.2370
  162SAPE   C2218155   6.897   1.661   6.710 -0.0755  0.8071  0.8156
  162SAPE   H2R18156   6.801   1.604   6.708 -0.1515  0.9149  1.4041
  162SAPE   H2S18157   6.978   1.586   6.702 -1.1304 -0.4881  1.7136
  162SAPE    C318158   6.710   1.875   6.363  0.1958  0.1484 -0.3707
  162SAPE    HX18159   6.710   1.917   6.260 -3.1975  0.0416 -0.5406
  162SAPE    HY18160   6.750   1.960   6.423  0.4257  0.6506 -1.2216
  162SAPE   O3118161   6.570   1.850   6.395 -0.4653  0.1311  0.3082
  162SAPE   C3118162   6.536   1.861   6.524  0.4319 -0.6013  0.1289
  162SAPE   O3218163   6.605   1.905   6.613 -0.0171 -0.4548 -0.2851
  162SAPE   C3218164   6.386   1.845   6.529 -0.0030  1.0268 -0.8250
  162SAPE   H2X18165   6.359   1.738   6.544  0.1681  0.8946 -1.4629
  162SAPE   H2Y18166   6.347   1.884   6.433  0.6754 -2.5149 -2.6921
  162SAPE   C2318167   6.918   1.749   6.832  0.2000  0.6654 -0.2374
  162SAPE   H3R18168   6.871   1.850   6.828  1.5006  1.4323  2.0847
  162SAPE   H3S18169   7.025   1.777   6.820  1.3440 -3.1550 -0.4371
  162SAPE   C2418170   6.893   1.675   6.968 -0.5610 -0.0286  0.0035
  162SAPE   H4R18171   6.924   1.754   7.040  0.4519 -1.0224  0.7020
  162SAPE   H4S18172   6.972   1.600   6.987  1.1587  1.6707 -0.1277
  162SAPE   C2518173   6.755   1.611   6.978 -0.6528  0.0716 -0.4278
  162SAPE   H5R18174   6.719   1.553   6.891  1.5989 -1.5071 -0.3731
  162SAPE   C2618175   6.673   1.645   7.073  0.0723  0.0291  0.0129
  162SAPE   H6R18176   6.571   1.605   7.064 -0.8103  1.7400  1.7304
  162SAPE   C2718177   6.698   1.752   7.184 -0.8253 -0.7564  0.3208
  162SAPE   H7R18178   6.599   1.799   7.204 -0.2961  0.0392  1.2019
  162SAPE   H7S18179   6.769   1.833   7.157 -1.0829 -0.1182  1.4553
  162SAPE   C2818180   6.758   1.690   7.308 -0.6440  0.3609  0.2667
  162SAPE   H8R18181   6.864   1.665   7.300 -0.8915 -0.1441 -2.0410
  162SAPE   C2918182   6.687   1.666   7.423  0.3187  0.3097  1.1634
  162SAPE   H9R18183   6.740   1.602   7.495  1.3374 -2.0542 -1.5281
  162SAPE  C21018184   6.538   1.698   7.448  0.0321  0.6641  0.0475
  162SAPE  H10R18185   6.477   1.611   7.415  2.7839 -1.1683 -0.5473
  162SAPE  H10S18186   6.504   1.783   7.385 -0.0907  0.0645 -0.7084
  162SAPE  C21118187   6.508   1.733   7.596 -0.5501  0.1556  0.9317
  162SAPE  H11R18188   6.572   1.685   7.672 -0.3997 -3.0930 -1.0596
  162SAPE  C21218189   6.400   1.803   7.636  0.3188  0.0062 -0.0097
  162SAPE  H12R18190   6.402   1.847   7.737  1.6006  2.8560 -1.1564
  162SAPE  C21318191   6.285   1.855   7.545  0.3130  1.0247 -0.2050
  162SAPE  H13R18192   6.185   1.829   7.587  0.7689 -1.7868 -0.6410
  162SAPE  H13S18193   6.281   1.806   7.446 -0.5700  0.0941  0.2674
  162SAPE  C21418194   6.286   2.005   7.516 -0.1495 -0.5808 -0.6865
  162SAPE  H14R18195   6.299   2.029   7.409  1.2009  1.1683 -0.1888
  162SAPE  C21518196   6.262   2.102   7.604  0.9833  0.3787 -0.5822
  162SAPE  H15R18197   6.307   2.197   7.573 -0.9659  0.6772 -2.7538
  162SAPE  C21618198   6.236   2.087   7.753 -0.3446  0.0989 -0.3388
  162SAPE  H16R18199   6.186   1.988   7.767 -0.1339  0.1141  0.5585
  162SAPE  H16S18200   6.157   2.156   7.789 -3.3925 -1.7098 -3.0276
  162SAPE  C21718201   6.350   2.098   7.859  0.3153 -0.2015  0.5969
  162SAPE  H17R18202   6.443   2.059   7.813 -0.7214 -3.0247  0.7025
  162SAPE  H17S18203   6.327   2.043   7.953 -0.7733  1.3844  1.2985
  162SAPE  C21818204   6.392   2.240   7.906  0.4396  0.1912  0.8007
  162SAPE  H18R18205   6.486   2.247   7.964  0.6035 -0.6160  0.6381
  162SAPE  H18S18206   6.314   2.261   7.982  0.0170  0.2965  0.3456
  162SAPE  C21918207   6.391   2.347   7.796 -0.3751  0.1559 -0.0737
  162SAPE  H19R18208   6.296   2.345   7.740 -0.0827  0.3437 -0.5796
  162SAPE  H19S18209   6.470   2.316   7.724  0.3707 -0.6621  1.0520
  162SAPE  C22018210   6.414   2.481   7.860  0.2606 -0.4569 -0.1215
  162SAPE  H20R18211   6.416   2.550   7.773 -1.9044 -0.2490 -0.0484
  162SAPE  H20S18212   6.510   2.497   7.914 -0.9124  1.6030  1.5298
  162SAPE  H20T18213   6.338   2.508   7.936  1.9270  2.1940  0.7678
  162SAPE   C3318214   6.326   1.928   6.644 -0.5331  0.0864 -1.0922
  162SAPE   H3X18215   6.217   1.941   6.626 -0.5620  2.4041  0.3436
  162SAPE   H3Y18216   6.361   2.033   6.637 -0.6511  0.1687 -0.4369
  162SAPE   C3418217   6.355   1.872   6.784 -0.4735  0.7429 -0.6668
  162SAPE   H4X18218   6.463   1.898   6.794 -0.4326  0.8563 -1.3551
  162SAPE   H4Y18219   6.346   1.762   6.798  1.5259  0.7067  0.9361
  162SAPE   C3518220   6.275   1.944   6.896 -0.5391  0.2561  0.1373
  162SAPE   H5X18221   6.176   1.894   6.894 -0.1258 -0.5892  0.3041
  162SAPE   H5Y18222   6.270   2.052   6.871  0.9820  0.1602 -0.7036
  162SAPE   C3618223   6.323   1.907   7.043 -0.8274  0.3630  0.4914
  162SAPE   H6X18224   6.418   1.955   7.073 -0.6177  0.3954 -0.1995
  162SAPE   H6Y18225   6.335   1.796   7.045  2.0978  0.6328  1.3676
  162SAPE   C3718226   6.216   1.938   7.144  0.3820 -0.3770 -0.3717
  162SAPE   H7X18227   6.265   1.900   7.235 -0.8436 -3.7293 -0.9825
  162SAPE   H7Y18228   6.128   1.870   7.136  0.9842 -1.0786 -1.2687
  162SAPE   C3818229   6.182   2.093   7.159 -0.5719 -0.0737  0.7535
  162SAPE   H8X18230   6.104   2.107   7.237 -1.2144  0.1615  0.0789
  162SAPE   H8Y18231   6.124   2.131   7.072  0.5300  2.3508  0.9945
  162SAPE   C3918232   6.300   2.186   7.175 -1.0697  0.3271 -0.0976
  162SAPE   H9X18233   6.355   2.203   7.080  1.5090 -1.1649  1.0159
  162SAPE   H9Y18234   6.378   2.134   7.236 -2.6435 -4.4520 -1.6771
  162SAPE  C31018235   6.258   2.318   7.233 -0.4240 -0.1480 -0.0045
  162SAPE  H10X18236   6.185   2.303   7.316  0.3483  0.0301  0.7257
  162SAPE  H10Y18237   6.203   2.373   7.154 -2.7480 -2.9621 -0.5299
  162SAPE  C31118238   6.375   2.392   7.298  0.4467  0.4123 -0.4368
  162SAPE  H11X18239   6.459   2.414   7.229  0.3991  1.0599 -0.2957
  162SAPE  H11Y18240   6.417   2.326   7.377  1.9178  1.5020 -0.2551
  162SAPE  C31218241   6.322   2.517   7.356 -0.0688 -0.4351 -0.2961
  162SAPE  H12X18242   6.257   2.485   7.440  0.9344 -1.5054  0.1054
  162SAPE  H12Y18243   6.270   2.582   7.282 -1.5477 -0.8063  0.3881
  162SAPE  C31318244   6.431   2.598   7.429 -0.6106 -0.8069 -0.8411
  162SAPE  H13X18245   6.517   2.608   7.359 -0.5826 -2.0603 -0.9999
  162SAPE  H13Y18246   6.466   2.541   7.518  0.1950  0.0158 -0.6118
  162SAPE  C31418247   6.374   2.741   7.471  0.3237 -0.2091 -0.4849
  162SAPE  H14X18248   6.298   2.774   7.396 -1.2517 -0.8397  0.7689
  162SAPE  H14Y18249   6.454   2.816   7.456 -0.6093  0.6123 -1.5879
  162SAPE  C31518250   6.310   2.744   7.611  0.3240 -0.3191  0.1067
  162SAPE  H15X18251   6.397   2.734   7.678 -0.0005  0.5531  0.6683
  162SAPE  H15Y18252   6.245   2.654   7.620  0.8876 -0.8502 -0.8589
  162SAPE  C31618253   6.218   2.873   7.622  0.5547  0.0982  0.3859
  162SAPE  H16X18254   6.156   2.878   7.530  2.5228  2.1835 -0.9240
  162SAPE  H16Y18255   6.292   2.954   7.609 -1.2588  1.9510  1.1439
  162SAPE  C31718256   6.164   2.901   7.766  0.1243 -0.3126 -0.2480
  162SAPE  H17X18257   6.129   3.007   7.772 -2.3010 -1.0561 -0.2907
  162SAPE  H17Y18258   6.247   2.880   7.837 -0.8015 -3.7487 -0.0452
  162SAPE  C31818259   6.051   2.806   7.804 -0.3025 -0.2223 -0.0615
  162SAPE  H18X18260   6.096   2.707   7.828 -0.3890  0.3885  2.9790
  162SAPE  H18Y18261   5.988   2.793   7.713 -0.4091 -0.4101  0.0387
  162SAPE  H18Z18262   5.987   2.852   7.882 -0.2170  0.0115 -0.1269
  163SAPE     N18263   6.240   3.702   6.507 -0.2571 -0.6877  0.7892
  163SAPE   HN118264   6.271   3.605   6.486 -0.4012 -0.8752  1.4290
  163SAPE   HN218265   6.148   3.721   6.461 -0.4755 -1.0477  1.0718
  163SAPE   HN318266   6.310   3.777   6.491 -0.1171 -0.6304  1.6341
  163SAPE   C1218267   6.204   3.692   6.650  0.1068  0.3270  0.5241
  163SAPE  H12A18268   6.191   3.793   6.695 -1.9940 -0.0290  0.8364
  163SAPE  H12B18269   6.279   3.635   6.709 -0.7969 -0.4348  0.9609
  163SAPE   C1118270   6.070   3.623   6.674 -0.2290  0.1916  0.0642
  163SAPE  H11A18271   6.048   3.620   6.783  0.6369 -2.4465  0.2081
  163SAPE  H11B18272   6.079   3.515   6.651  0.6012 -0.1865  1.9343
  163SAPE     P18273   5.860   3.778   6.635 -0.2346  0.0625  0.2508
  163SAPE   O1318274   5.936   3.873   6.726 -0.0200 -0.2652  0.4659
  163SAPE   O1418275   5.800   3.832   6.509 -0.1254  0.5964 -1.2219
  163SAPE   O1218276   5.957   3.664   6.593 -0.1936 -0.6391 -0.3158
  163SAPE   O1118277   5.743   3.717   6.713  0.0273  0.3890  0.1365
  163SAPE    C118278   5.675   3.591   6.674 -0.2567 -0.6070  0.1945
  163SAPE    HA18279   5.668   3.575   6.565 -0.2245 -0.3515  0.1538
  163SAPE    HB18280   5.735   3.506   6.713  3.0297  1.2284 -0.5071
  163SAPE    C218281   5.528   3.591   6.724 -0.3331  0.6020  0.3332
  163SAPE    HS18282   5.498   3.697   6.708  1.2138  1.1844  0.9943
  163SAPE   O2118283   5.531   3.556   6.870 -0.3091 -0.6916  0.0018
  163SAPE   C2118284   5.489   3.659   6.956  0.3861  0.0961  0.7075
  163SAPE   O2218285   5.442   3.763   6.918 -0.2064 -0.8628 -0.0127
  163SAPE   C2218286   5.512   3.616   7.105 -0.5741  0.3113 -0.3113
  163SAPE   H2R18287   5.406   3.604   7.137  0.0701 -0.9852  1.4881
  163SAPE   H2S18288   5.563   3.517   7.114  0.3281  0.7384 -0.6443
  163SAPE    C318289   5.442   3.492   6.643  0.1120  0.1992 -0.5702
  163SAPE    HX18290   5.494   3.394   6.657  0.6030  0.5240 -0.0816
  163SAPE    HY18291   5.443   3.497   6.532  2.9555  0.8480 -0.5844
  163SAPE   O3118292   5.307   3.498   6.693  0.2266 -0.3051  0.1950
  163SAPE   C3118293   5.247   3.381   6.685  0.5139 -0.0612 -0.3874
  163SAPE   O3218294   5.291   3.280   6.632 -0.5736 -0.0889  0.3468
  163SAPE   C3218295   5.109   3.384   6.747  0.4194  0.2644 -0.2705
  163SAPE   H2X18296   5.035   3.339   6.677  2.3960 -0.6860 -1.8335
  163SAPE   H2Y18297   5.075   3.489   6.757 -0.0692  0.0578  0.3569
  163SAPE   C2318298   5.585   3.722   7.192  0.2081 -0.5590 -0.5386
  163SAPE   H3R18299   5.599   3.687   7.297 -2.6075 -1.7806 -0.5071
  163SAPE   H3S18300   5.513   3.806   7.202 -0.8936 -1.5093 -0.3477
  163SAPE   C2418301   5.723   3.777   7.130 -0.1208  0.7272 -0.9610
  163SAPE   H4R18302   5.753   3.871   7.181  0.0457  0.2886 -0.2207
  163SAPE   H4S18303   5.707   3.797   7.022 -0.1888  2.5651 -0.6320
  163SAPE   C2518304   5.832   3.678   7.160 -0.1176 -0.2728  0.6110
  163SAPE   H5R18305   5.802   3.573   7.148  1.9268 -0.9175  0.9165
  163SAPE   C2618306   5.963   3.707   7.193  0.3868  0.5326 -0.0047
  163SAPE   H6R18307   6.037   3.627   7.209 -1.6708 -1.1216  1.9924
  163SAPE   C2718308   6.014   3.843   7.211  0.0931 -0.4658 -0.1020
  163SAPE   H7R18309   5.946   3.905   7.272 -0.3097  0.5805 -1.5611
  163SAPE   H7S18310   6.016   3.892   7.112 -1.9337  1.6843  0.8519
  163SAPE   C2818311   6.150   3.863   7.279  0.1158  0.3273  0.2851
  163SAPE   H8R18312   6.239   3.897   7.224  0.7208  0.6089  1.4164
  163SAPE   C2918313   6.174   3.840   7.409 -0.4286  0.0964 -0.1281
  163SAPE   H9R18314   6.275   3.842   7.452 -0.2905  3.4380 -0.3660
  163SAPE  C21018315   6.061   3.801   7.510 -0.3708  0.1138 -0.6387
  163SAPE  H10R18316   6.093   3.712   7.567  0.1802  0.6205 -0.1445
  163SAPE  H10S18317   5.967   3.777   7.456 -1.0187  2.6624 -0.7911
  163SAPE  C21118318   6.039   3.916   7.610 -0.0512  0.1304  0.4849
  163SAPE  H11R18319   5.965   3.984   7.565  0.3045  1.4685  1.8512
  163SAPE  C21218320   6.088   3.928   7.733 -0.0257 -0.4099  0.0804
  163SAPE  H12R18321   6.070   4.022   7.786 -1.0622 -0.2078 -0.5885
  163SAPE  C21318322   6.175   3.827   7.800  0.5535 -0.0893 -0.6705
  163SAPE  H13R18323   6.242   3.884   7.868 -0.1897 -0.1703  0.1548
  163SAPE  H13S18324   6.249   3.776   7.736  0.5964 -1.0869  0.1407
  163SAPE  C21418325   6.123   3.707   7.869 -0.2078 -0.3608 -0.4343
  163SAPE  H14R18326   6.176   3.615   7.844  0.2526 -0.4594  0.8017
  163SAPE  C21518327   6.040   3.709   7.975 -0.2780 -0.2297  0.6748
  163SAPE  H15R18328   6.018   3.613   8.024 -0.5194 -1.3002 -1.4162
  163SAPE  C21618329   5.986   3.831   8.046 -1.0162  0.5617  0.0489
  163SAPE  H16R18330   5.876   3.838   8.038 -0.9342  0.6186 -1.2068
  163SAPE  H16S18331   6.025   3.927   8.006  0.8373 -0.7844 -1.5898
  163SAPE  C21718332   6.043   3.834   8.191 -0.2487 -0.2385  0.5633
  163SAPE  H17R18333   6.150   3.803   8.200 -0.8418 -2.8244 -0.4435
  163SAPE  H17S18334   5.996   3.753   8.251  0.7325 -0.3634  1.1980
  163SAPE  C21818335   6.038   3.969   8.268 -0.2856  0.6765 -0.3754
  163SAPE  H18R18336   5.939   4.012   8.291 -0.9574 -1.6667  1.4397
  163SAPE  H18S18337   6.095   4.045   8.210 -2.5244  1.4660 -1.6305
  163SAPE  C21918338   6.110   3.965   8.406 -0.7804 -0.2305  0.8101
  163SAPE  H19R18339   6.138   4.070   8.428 -0.7982 -0.0083 -0.1964
  163SAPE  H19S18340   6.206   3.910   8.397  0.5188  1.8542  1.1545
  163SAPE  C22018341   6.026   3.916   8.518  0.2016  0.0513  0.4650
  163SAPE  H20R18342   5.921   3.949   8.503  0.1949 -0.9872 -2.1823
  163SAPE  H20S18343   6.051   3.960   8.617 -0.3936  1.6788 -0.0655
  163SAPE  H20T18344   6.028   3.805   8.516  4.1889  0.0048 -0.6050
  163SAPE   C3318345   5.110   3.322   6.888 -0.4194 -0.1751  0.7206
  163SAPE   H3X18346   5.148   3.218   6.884  1.2556  0.4289 -0.0781
  163SAPE   H3Y18347   5.004   3.317   6.921 -1.5003  1.8761 -2.0276
  163SAPE   C3418348   5.188   3.397   7.000 -0.3089 -0.1965  0.0183
  163SAPE   H4X18349   5.179   3.507   6.985 -1.0658 -0.2519  0.0350
  163SAPE   H4Y18350   5.298   3.393   6.992 -0.1937  0.9158  0.7600
  163SAPE   C3518351   5.135   3.363   7.141  0.2596  0.4535 -0.6408
  163SAPE   H5X18352   5.132   3.254   7.162  0.8969  0.9634  2.6128
  163SAPE   H5Y18353   5.035   3.408   7.162  0.0700 -0.1263 -0.2854
  163SAPE   C3618354   5.223   3.428   7.249  0.1332  0.4408  0.0272
  163SAPE   H6X18355   5.236   3.534   7.218 -0.5171  1.0773  1.7746
  163SAPE   H6Y18356   5.325   3.385   7.246  0.6756  1.7187 -2.2898
  163SAPE   C3718357   5.172   3.407   7.394  0.8633  0.4675 -0.0550
  163SAPE   H7X18358   5.256   3.402   7.466  1.2203  1.4749 -0.3767
  163SAPE   H7Y18359   5.129   3.305   7.387  1.3793  0.3520 -2.1687
  163SAPE   C3818360   5.066   3.515   7.428 -0.5084  0.4999 -0.0144
  163SAPE   H8X18361   4.967   3.505   7.381 -0.3386  0.5206 -0.3797
  163SAPE   H8Y18362   5.104   3.614   7.393  4.5924 -1.0843  0.1444
  163SAPE   C3918363   5.047   3.529   7.582 -0.0020  0.3036  0.1545
  163SAPE   H9X18364   5.008   3.438   7.631 -0.3168 -0.4514 -1.4239
  163SAPE   H9Y18365   4.988   3.623   7.593 -0.0967  0.3387 -0.5957
  163SAPE  C31018366   5.175   3.566   7.660 -0.6684 -0.0034 -0.4096
  163SAPE  H10X18367   5.239   3.627   7.593  1.2353 -0.2997  1.0703
  163SAPE  H10Y18368   5.230   3.475   7.691 -0.2296  0.5752  0.5568
  163SAPE  C31118369   5.148   3.638   7.794  0.4036  0.1843  0.0881
  163SAPE  H11X18370   5.069   3.586   7.850  0.0287  1.0462  0.3777
  163SAPE  H11Y18371   5.097   3.733   7.766 -0.1465  0.2096  1.1464
  163SAPE  C31218372   5.273   3.672   7.880 -0.0562  0.6341 -0.4473
  163SAPE  H12X18373   5.341   3.733   7.817  3.9068  0.7346  3.3811
  163SAPE  H12Y18374   5.329   3.578   7.901  2.0744  1.9113 -0.1198
  163SAPE  C31318375   5.246   3.751   8.001  0.6462 -0.4258 -0.0436
  163SAPE  H13X18376   5.154   3.708   8.045  0.1756  0.6505  0.0546
  163SAPE  H13Y18377   5.223   3.856   7.972  0.0216 -0.2747  0.9220
  163SAPE  C31418378   5.354   3.760   8.118  0.0289  0.5000  0.0152
  163SAPE  H14X18379   5.316   3.827   8.198 -0.8444 -2.6282  2.3711
  163SAPE  H14Y18380   5.445   3.816   8.087  0.0911 -0.6461 -2.0529
  163SAPE  C31518381   5.377   3.632   8.195  0.2704  0.4019 -0.9432
  163SAPE  H15X18382   5.413   3.564   8.115 -0.1990 -1.5353  0.4257
  163SAPE  H15Y18383   5.287   3.585   8.240  1.3077 -0.6454  0.0876
  163SAPE  C31618384   5.482   3.656   8.308  0.0687 -0.4103 -0.2669
  163SAPE  H16X18385   5.563   3.725   8.275 -0.5492  0.8224  0.6987
  163SAPE  H16Y18386   5.544   3.565   8.323  1.8758  1.1617  2.8198
  163SAPE  C31718387   5.410   3.693   8.436 -0.1893 -0.2356  0.2316
  163SAPE  H17X18388   5.336   3.612   8.453 -1.0935  0.1791 -1.5634
  163SAPE  H17Y18389   5.352   3.787   8.431  2.1672  1.2311 -2.0350
  163SAPE  C31818390   5.514   3.701   8.554  0.7200 -0.3342 -1.2568
  163SAPE  H18X18391   5.459   3.711   8.650  1.1205  0.6685 -1.1135
  163SAPE  H18Y18392   5.586   3.785   8.545 -0.2345  0.4344 -1.9709
  163SAPE  H18Z18393   5.570   3.605   8.560  0.6788 -0.2847  0.4839
  164SAPE     N18394   1.603   2.737   5.652  0.3880 -0.3899  0.7100
  164SAPE   HN118395   1.663   2.760   5.734  2.5691 -0.8691 -0.6714
  164SAPE   HN218396   1.544   2.656   5.680  0.5502 -0.4774  0.8002
  164SAPE   HN318397   1.659   2.718   5.567 -2.5187 -0.1160 -1.4071
  164SAPE   C1218398   1.525   2.864   5.639  0.0674  0.3116  0.2575
  164SAPE  H12A18399   1.444   2.856   5.563 -0.6644  0.0147  1.0494
  164SAPE  H12B18400   1.599   2.939   5.605 -0.4919  0.3135 -1.0073
  164SAPE   C1118401   1.471   2.886   5.778  0.2214  0.3922  0.3201
  164SAPE  H11A18402   1.412   2.979   5.765 -3.6853 -2.2406 -3.3491
  164SAPE  H11B18403   1.553   2.917   5.847  0.1787  3.2909 -0.8034
  164SAPE     P18404   1.273   2.798   5.923  0.0273  0.1242  0.1781
  164SAPE   O1318405   1.177   2.900   5.872  0.0550 -0.0517  0.0473
  164SAPE   O1418406   1.211   2.672   5.960 -0.2540 -0.0308  0.4554
  164SAPE   O1218407   1.376   2.778   5.812  0.0201  0.4285 -0.3248
  164SAPE   O1118408   1.347   2.864   6.042  0.1766 -0.4416 -0.0811
  164SAPE    C118409   1.440   2.782   6.116  0.7097  0.2422  0.0656
  164SAPE    HA18410   1.476   2.695   6.057 -2.0124 -0.8617 -0.0893
  164SAPE    HB18411   1.530   2.843   6.140  0.3068  1.4325 -1.3319
  164SAPE    C218412   1.367   2.723   6.243  0.1553 -0.0730  0.3505
  164SAPE    HS18413   1.290   2.657   6.196  0.7072  1.0668 -2.2709
  164SAPE   O2118414   1.309   2.825   6.319 -0.5699 -0.0547 -0.6629
  164SAPE   C2118415   1.197   2.802   6.382 -0.1586  0.4365  0.0520
  164SAPE   O2218416   1.124   2.701   6.365 -0.3037  0.1894  0.1049
  164SAPE   C2218417   1.161   2.929   6.458  0.1362 -0.0100  0.4177
  164SAPE   H2R18418   1.252   2.956   6.517 -0.7942  1.5155  1.2196
  164SAPE   H2S18419   1.129   3.007   6.386 -0.9929 -0.8500 -0.0229
  164SAPE    C318420   1.453   2.624   6.330  0.6324 -0.3510 -0.0263
  164SAPE    HX18421   1.535   2.676   6.384  1.5418 -1.5085 -0.2413
  164SAPE    HY18422   1.493   2.545   6.263 -0.7293 -1.1539  0.0783
  164SAPE   O3118423   1.366   2.571   6.432  0.7766 -0.3010 -0.2025
  164SAPE   C3118424   1.406   2.465   6.501 -0.6552  1.2895  0.5512
  164SAPE   O3218425   1.515   2.407   6.475 -0.3427 -0.4338  0.0534
  164SAPE   C3218426   1.307   2.434   6.613 -0.0878  0.1550 -0.0222
  164SAPE   H2X18427   1.270   2.329   6.604 -1.9167  0.6189  1.6601
  164SAPE   H2Y18428   1.221   2.499   6.589 -1.7423 -1.6545  0.7715
  164SAPE   C2318429   1.043   2.896   6.557 -0.0634 -0.1574 -0.0596
  164SAPE   H3R18430   1.065   2.797   6.602  3.4293  0.1462 -0.7540
  164SAPE   H3S18431   0.942   2.879   6.514 -0.2180  1.2025 -0.2795
  164SAPE   C2418432   1.035   2.995   6.673  0.3200 -1.7169  0.6036
  164SAPE   H4R18433   1.134   3.025   6.715 -0.4427 -1.7998  2.5538
  164SAPE   H4S18434   0.989   2.954   6.765 -0.1102  2.2977  2.3687
  164SAPE   C2518435   0.955   3.121   6.638  0.0888  0.8045 -0.1228
  164SAPE   H5R18436   0.955   3.144   6.530 -0.0641 -0.9122 -0.5211
  164SAPE   C2618437   0.886   3.196   6.726  0.5759 -0.1250  0.0651
  164SAPE   H6R18438   0.836   3.289   6.698  0.3445  1.6043  5.1946
  164SAPE   C2718439   0.856   3.170   6.870  0.2074 -0.0933  0.4604
  164SAPE   H7R18440   0.848   3.271   6.914 -2.1592  0.2532 -0.5680
  164SAPE   H7S18441   0.934   3.111   6.922  0.3902 -0.0295  0.2573
  164SAPE   C2818442   0.718   3.111   6.888 -0.7060  0.4075 -0.3583
  164SAPE   H8R18443   0.665   3.065   6.804  0.3485 -1.2930 -0.1280
  164SAPE   C2918444   0.670   3.097   7.012 -0.3424 -0.0395 -0.3080
  164SAPE   H9R18445   0.573   3.046   7.013 -1.0226  1.2288  0.3215
  164SAPE  C21018446   0.742   3.138   7.142  0.2694 -0.0311  0.9139
  164SAPE  H10R18447   0.845   3.095   7.134  1.4456  2.8666 -1.3631
  164SAPE  H10S18448   0.698   3.078   7.224 -0.1081  0.7218  1.2676
  164SAPE  C21118449   0.759   3.284   7.170 -0.1104  0.3790 -0.0874
  164SAPE  H11R18450   0.850   3.333   7.130 -0.0679  1.3038  1.0945
  164SAPE  C21218451   0.678   3.350   7.256  0.8719  0.0117  0.1187
  164SAPE  H12R18452   0.696   3.452   7.293  2.5532  0.0436 -0.7214
  164SAPE  C21318453   0.564   3.300   7.339 -0.2856  0.0002  0.1357
  164SAPE  H13R18454   0.514   3.215   7.289  1.2826 -0.1725 -1.1928
  164SAPE  H13S18455   0.474   3.365   7.341 -1.2402 -1.2694  1.7131
  164SAPE  C21418456   0.607   3.262   7.478 -0.1866  0.3927 -0.2020
  164SAPE  H14R18457   0.704   3.214   7.494 -0.9559 -1.2580 -0.3607
  164SAPE  C21518458   0.523   3.274   7.579  0.3887  0.0260  0.7631
  164SAPE  H15R18459   0.572   3.246   7.673  1.4644  0.8998  0.4834
  164SAPE  C21618460   0.384   3.334   7.590  0.3125  0.0537  0.9338
  164SAPE  H16R18461   0.314   3.272   7.529  1.4016  0.9839 -1.4014
  164SAPE  H16S18462   0.382   3.435   7.543 -0.5380  0.4220  1.7309
  164SAPE  C21718463   0.332   3.350   7.725  0.1926  0.5407 -0.2912
  164SAPE  H17R18464   0.389   3.425   7.783  0.6649  0.4907 -0.6860
  164SAPE  H17S18465   0.337   3.249   7.771  0.5846 -0.2553 -1.9922
  164SAPE  C21818466   0.180   3.396   7.730 -0.0564 -0.1841  0.2665
  164SAPE  H18R18467   0.135   3.335   7.649 -0.9575 -0.4635  0.9573
  164SAPE  H18S18468   0.170   3.503   7.703  1.1224 -0.0506  0.3016
  164SAPE  C21918469   0.106   3.361   7.859 -0.4243 -0.0030  0.0161
  164SAPE  H19R18470   0.113   3.251   7.871 -1.4893 -0.0556  0.1970
  164SAPE  H19S18471  -0.001   3.391   7.855 -0.6889 -1.0093 -1.1156
  164SAPE  C22018472   0.188   3.417   7.985 -0.7724 -0.5153  0.9185
  164SAPE  H20R18473   0.290   3.375   7.997  2.1163  5.0479 -0.7786
  164SAPE  H20S18474   0.115   3.396   8.066 -2.2019  2.9822  0.7201
  164SAPE  H20T18475   0.198   3.526   7.966  0.5591 -0.7781 -0.0188
  164SAPE   C3318476   1.363   2.466   6.757  0.3633 -0.2714  0.3736
  164SAPE   H3X18477   1.463   2.419   6.768  0.3704 -0.5419 -0.7373
  164SAPE   H3Y18478   1.297   2.440   6.843 -1.1886  1.8264 -0.1016
  164SAPE   C3418479   1.384   2.615   6.772 -0.1065  0.3816  0.4814
  164SAPE   H4X18480   1.291   2.673   6.750 -0.2493  0.3076  0.8844
  164SAPE   H4Y18481   1.452   2.642   6.689  0.6129 -1.5754  0.3667
  164SAPE   C3518482   1.446   2.643   6.907 -0.4892  0.1509  0.5389
  164SAPE   H5X18483   1.473   2.751   6.901  2.4471 -0.4774  1.1403
  164SAPE   H5Y18484   1.543   2.591   6.919 -0.6399 -0.3658 -0.3743
  164SAPE   C3618485   1.360   2.625   7.028 -0.5519  1.1332  0.4914
  164SAPE   H6X18486   1.318   2.522   7.018  2.4386 -0.1411  0.0783
  164SAPE   H6Y18487   1.275   2.693   7.005 -1.3944 -0.5288 -1.7552
  164SAPE   C3718488   1.429   2.637   7.166  0.1925 -0.3856 -0.4231
  164SAPE   H7X18489   1.501   2.720   7.150  0.0124 -0.0108  0.6460
  164SAPE   H7Y18490   1.501   2.555   7.184 -0.3292 -1.7294 -3.7690
  164SAPE   C3818491   1.312   2.659   7.259 -0.2111  0.2383  0.4003
  164SAPE   H8X18492   1.238   2.579   7.236  0.8206 -0.5487 -0.2796
  164SAPE   H8Y18493   1.272   2.760   7.238  1.1172  1.0718  1.6723
  164SAPE   C3918494   1.362   2.633   7.401  0.6730  0.0748  0.7369
  164SAPE   H9X18495   1.457   2.689   7.414 -0.3558  1.9516  0.5682
  164SAPE   H9Y18496   1.383   2.524   7.402 -1.1871 -0.3370 -0.4982
  164SAPE  C31018497   1.258   2.653   7.510  0.4469  1.1356  0.1902
  164SAPE  H10X18498   1.307   2.614   7.601 -0.4567 -1.3016 -0.2818
  164SAPE  H10Y18499   1.177   2.583   7.479  1.3717  0.0970  0.0477
  164SAPE  C31118500   1.190   2.790   7.540 -0.3172  0.3527  0.2123
  164SAPE  H11X18501   1.137   2.831   7.451 -0.1089  1.4912  0.5918
  164SAPE  H11Y18502   1.286   2.846   7.546 -1.3897  2.8874 -3.2360
  164SAPE  C31218503   1.099   2.778   7.662 -0.6714  0.4197 -0.1174
  164SAPE  H12X18504   1.013   2.715   7.632 -2.0778  2.7512 -1.2113
  164SAPE  H12Y18505   1.048   2.875   7.678  0.1147  0.8173  0.0358
  164SAPE  C31318506   1.164   2.723   7.789  0.5465  0.5321 -0.0311
  164SAPE  H13X18507   1.272   2.727   7.814  1.0651 -3.0124 -1.1192
  164SAPE  H13Y18508   1.136   2.617   7.803 -1.0841  0.9956  0.4595
  164SAPE  C31418509   1.103   2.784   7.914  0.3758  0.1169 -1.0367
  164SAPE  H14X18510   0.997   2.815   7.900 -0.2209 -0.1684  2.2396
  164SAPE  H14Y18511   1.163   2.870   7.950  0.3524 -1.1329  2.2678
  164SAPE  C31518512   1.115   2.696   8.039 -0.2173  0.7828  0.2489
  164SAPE  H15X18513   1.214   2.646   8.043 -0.2898  0.6400  0.2881
  164SAPE  H15Y18514   1.047   2.609   8.024 -1.3205  2.1646 -4.3700
  164SAPE  C31618515   1.084   2.769   8.168 -0.5364  0.8683  0.0068
  164SAPE  H16X18516   0.983   2.815   8.163 -1.0197  0.1068  1.8410
  164SAPE  H16Y18517   1.145   2.859   8.190 -1.6980  1.1551  2.4343
  164SAPE  C31718518   1.088   2.681   8.294  0.3584 -0.7158  0.4178
  164SAPE  H17X18519   1.189   2.635   8.289  0.5664 -0.2502  0.2026
  164SAPE  H17Y18520   1.005   2.609   8.280  0.9735 -1.4332  0.4056
  164SAPE  C31818521   1.062   2.754   8.429  0.2804  0.5985  0.1542
  164SAPE  H18X18522   1.076   2.685   8.515 -0.8342  0.1319 -0.0092
  164SAPE  H18Y18523   0.955   2.784   8.422 -0.0690 -0.5871  0.0917
  164SAPE  H18Z18524   1.118   2.849   8.434  0.3518  0.5214  0.8065
  165SAPE     N18525   1.842   6.048   6.049  0.0024 -0.8928  0.6681
  165SAPE   HN118526   1.828   6.142   6.090  0.2971 -0.1306 -0.9322
  165SAPE   HN218527   1.944   6.035   6.036 -0.0617  0.1260 -1.2384
  165SAPE   HN318528   1.790   6.041   5.960 -1.5569  1.7028  1.2730
  165SAPE   C1218529   1.784   5.932   6.128  0.2483  0.3898  0.0564
  165SAPE  H12A18530   1.815   5.835   6.084  0.6708  1.2417 -1.5814
  165SAPE  H12B18531   1.673   5.943   6.124  0.3468  1.3795 -0.2136
  165SAPE   C1118532   1.818   5.938   6.281 -0.5350 -0.0754 -0.6198
  165SAPE  H11A18533   1.833   6.041   6.320 -0.5552 -0.5773  0.7815
  165SAPE  H11B18534   1.914   5.883   6.277 -0.1698  0.6210 -2.8150
  165SAPE     P18535   1.622   5.950   6.458  0.6290 -0.0197  0.1668
  165SAPE   O1318536   1.498   5.988   6.384 -0.2414 -0.0418 -0.2363
  165SAPE   O1418537   1.594   5.860   6.576  0.0043  0.2700  0.6096
  165SAPE   O1218538   1.724   5.869   6.359  0.0242  0.2361  0.0647
  165SAPE   O1118539   1.704   6.080   6.513 -0.0674  0.1639  0.1340
  165SAPE    C118540   1.814   6.075   6.588 -0.3373 -0.2588 -0.1422
  165SAPE    HA18541   1.869   5.981   6.567 -0.8362 -1.2850  2.7680
  165SAPE    HB18542   1.888   6.156   6.570 -0.6038 -0.5179 -2.8567
  165SAPE    C218543   1.774   6.064   6.740 -0.0961 -0.0600  0.5334
  165SAPE    HS18544   1.720   5.967   6.745 -1.1762  0.4185 -1.0933
  165SAPE   O2118545   1.695   6.177   6.783  0.2991  0.4557 -0.1656
  165SAPE   C2118546   1.620   6.165   6.889 -0.4852  0.1328 -0.4536
  165SAPE   O2218547   1.577   6.056   6.937  0.2207 -0.3572 -0.1559
  165SAPE   C2218548   1.604   6.297   6.957 -0.1104 -0.2808 -0.4627
  165SAPE   H2R18549   1.704   6.330   6.993 -0.8970 -0.0715  1.6793
  165SAPE   H2S18550   1.580   6.370   6.876  1.8207  0.4484 -0.4261
  165SAPE    C318551   1.901   6.046   6.829  0.4620  0.4335 -0.0450
  165SAPE    HX18552   1.959   6.140   6.838  2.6022 -0.9031  1.1603
  165SAPE    HY18553   1.964   5.966   6.783 -0.3758 -0.4345  0.2774
  165SAPE   O3118554   1.868   5.998   6.962  0.7814 -0.3863  0.5392
  165SAPE   C3118555   1.838   5.875   6.972 -0.1908 -0.2301 -0.1005
  165SAPE   O3218556   1.818   5.799   6.880 -0.3159  0.2969 -0.0051
  165SAPE   C3218557   1.852   5.839   7.126  0.3897 -0.5301  0.1255
  165SAPE   H2X18558   1.953   5.876   7.155  1.1391 -2.8278  0.6317
  165SAPE   H2Y18559   1.851   5.728   7.130 -2.4483 -0.6130 -0.8155
  165SAPE   C2318560   1.486   6.301   7.060  0.1109  0.3743  0.9517
  165SAPE   H3R18561   1.395   6.250   7.022  0.2842  1.2777 -0.7431
  165SAPE   H3S18562   1.454   6.408   7.066  0.8103  0.6543 -0.1099
  165SAPE   C2418563   1.526   6.248   7.194  0.9717  0.5445  0.2147
  165SAPE   H4R18564   1.546   6.140   7.205  0.7077  0.7335  3.6232
  165SAPE   H4S18565   1.431   6.247   7.252  0.0704 -3.6079 -1.0293
  165SAPE   C2518566   1.633   6.326   7.260  0.1054 -0.4141 -0.4747
  165SAPE   H5R18567   1.724   6.324   7.199  1.3662 -1.1723  1.3500
  165SAPE   C2618568   1.629   6.393   7.376 -0.0394  0.4704 -0.5943
  165SAPE   H6R18569   1.709   6.457   7.416 -0.9785  0.2132  1.9188
  165SAPE   C2718570   1.507   6.383   7.470  0.0003  0.9663  0.6904
  165SAPE   H7R18571   1.533   6.339   7.568 -0.8633  1.2378  1.0548
  165SAPE   H7S18572   1.419   6.318   7.448  1.3576 -1.0391  0.8848
  165SAPE   C2818573   1.458   6.528   7.483 -0.3991 -0.0701 -0.1677
  165SAPE   H8R18574   1.466   6.581   7.387  0.3818  0.4283  0.1598
  165SAPE   C2918575   1.413   6.592   7.590  0.2903 -0.1256 -0.2171
  165SAPE   H9R18576   1.393   6.700   7.587  0.6298 -0.0546  0.1123
  165SAPE  C21018577   1.391   6.527   7.721 -0.8258  0.6733 -0.1236
  165SAPE  H10R18578   1.361   6.420   7.718  1.5192 -0.0435 -0.2050
  165SAPE  H10S18579   1.306   6.565   7.782 -0.0676 -0.5275  1.7850
  165SAPE  C21118580   1.524   6.532   7.801  0.9184  0.0629  0.0334
  165SAPE  H11R18581   1.612   6.509   7.740  1.5857  0.4797  0.8134
  165SAPE  C21218582   1.540   6.548   7.936  0.6786 -0.6846  0.1348
  165SAPE  H12R18583   1.645   6.547   7.967  0.3384 -1.5799  1.3468
  165SAPE  C21318584   1.435   6.569   8.040  0.0393  0.3019 -1.3813
  165SAPE  H13R18585   1.348   6.626   8.000 -0.0418  2.2626  1.3103
  165SAPE  H13S18586   1.476   6.640   8.115  0.4152 -0.6067 -0.7110
  165SAPE  C21418587   1.385   6.439   8.090  0.0793  0.2182  0.2113
  165SAPE  H14R18588   1.394   6.350   8.026 -0.4288 -0.6886  1.3626
  165SAPE  C21518589   1.318   6.419   8.201  0.1112 -0.4644  0.1292
  165SAPE  H15R18590   1.291   6.317   8.230 -0.9749 -0.3507 -0.4515
  165SAPE  C21618591   1.282   6.534   8.293  0.0851  0.2486 -0.2516
  165SAPE  H16R18592   1.214   6.602   8.237 -1.9537 -0.1259  1.6261
  165SAPE  H16S18593   1.365   6.600   8.324 -1.8801  1.6450  2.4607
  165SAPE  C21718594   1.206   6.496   8.425 -0.5771  0.4697  0.0626
  165SAPE  H17R18595   1.264   6.429   8.492  0.5454  0.9551 -0.3853
  165SAPE  H17S18596   1.121   6.434   8.390  0.2836 -0.2950 -0.7108
  165SAPE  C21818597   1.166   6.614   8.515 -0.5730 -0.5465  0.6032
  165SAPE  H18R18598   1.126   6.579   8.612  1.2333 -2.0107  0.8732
  165SAPE  H18S18599   1.090   6.673   8.458 -0.0992 -1.3688 -0.9339
  165SAPE  C21918600   1.276   6.712   8.548  0.7734 -0.5502  0.4763
  165SAPE  H19R18601   1.232   6.809   8.581  2.2156  0.1561  0.4201
  165SAPE  H19S18602   1.348   6.738   8.468 -1.4854  3.0412 -0.6343
  165SAPE  C22018603   1.363   6.657   8.660 -0.0313 -0.0592  0.9027
  165SAPE  H20R18604   1.382   6.547   8.656  3.0047  0.2486  3.1832
  165SAPE  H20S18605   1.328   6.689   8.761  1.3312 -0.2575  1.4615
  165SAPE  H20T18606   1.462   6.708   8.656 -0.1028  0.0066 -0.3362
  165SAPE   C3318607   1.734   5.895   7.218 -0.1859 -0.2587  0.5709
  165SAPE   H3X18608   1.637   5.850   7.187  0.1250 -0.6517  0.1636
  165SAPE   H3Y18609   1.716   6.003   7.199 -0.2817 -0.3794 -0.0365
  165SAPE   C3418610   1.753   5.885   7.372 -0.3621  0.4741 -0.0447
  165SAPE   H4X18611   1.858   5.909   7.397 -0.3594  2.6206 -1.8292
  165SAPE   H4Y18612   1.730   5.780   7.403 -1.6698  0.5651 -0.6267
  165SAPE   C3518613   1.664   5.984   7.451 -0.4539 -0.5973 -0.5649
  165SAPE   H5X18614   1.556   5.959   7.442 -0.5750 -0.3160  0.0750
  165SAPE   H5Y18615   1.674   6.086   7.408 -3.4956  0.0680  0.1044
  165SAPE   C3618616   1.705   5.973   7.597  0.1787 -0.5242 -0.5714
  165SAPE   H6X18617   1.814   5.989   7.614  0.4582 -1.6939 -1.1819
  165SAPE   H6Y18618   1.685   5.868   7.627 -0.2039 -0.1784  0.4262
  165SAPE   C3718619   1.638   6.070   7.699 -0.4784 -1.7162  0.3768
  165SAPE   H7X18620   1.528   6.061   7.683 -0.2759 -4.0148 -0.1522
  165SAPE   H7Y18621   1.681   6.171   7.683  0.5871 -2.0549  1.0314
  165SAPE   C3818622   1.671   6.016   7.842  0.2406 -0.2630  0.4612
  165SAPE   H8X18623   1.781   6.026   7.849  0.1751  0.5203  0.4562
  165SAPE   H8Y18624   1.647   5.909   7.858 -0.1332  0.2304  3.8696
  165SAPE   C3918625   1.610   6.098   7.955 -0.0742  0.2564  0.0553
  165SAPE   H9X18626   1.503   6.069   7.960 -0.2866  0.6210 -1.8497
  165SAPE   H9Y18627   1.600   6.204   7.923 -2.3622  1.2439  3.4176
  165SAPE  C31018628   1.680   6.074   8.090 -0.1497  0.2070  0.0119
  165SAPE  H10X18629   1.789   6.086   8.074 -0.0053 -2.0377 -1.1558
  165SAPE  H10Y18630   1.672   5.969   8.127 -3.1302  0.6641  0.9175
  165SAPE  C31118631   1.617   6.156   8.200 -0.0061 -0.2668  0.6659
  165SAPE  H11X18632   1.506   6.160   8.203 -0.0039  4.1193  2.7520
  165SAPE  H11Y18633   1.640   6.261   8.171  0.0508 -0.7769 -1.2881
  165SAPE  C31218634   1.655   6.127   8.343  0.0128 -0.3096  0.1669
  165SAPE  H12X18635   1.635   6.220   8.400 -0.5112 -1.2607  1.5873
  165SAPE  H12Y18636   1.766   6.119   8.341  0.1323  1.0996 -0.7138
  165SAPE  C31318637   1.594   6.003   8.404  0.6977 -0.0694  0.7010
  165SAPE  H13X18638   1.591   5.929   8.322 -2.2182  1.2334 -0.5064
  165SAPE  H13Y18639   1.488   6.008   8.437  0.2898  0.8213 -0.6451
  165SAPE  C31418640   1.684   5.958   8.521 -0.1996 -0.1566  0.3673
  165SAPE  H14X18641   1.700   6.032   8.602  2.5576 -2.0130  1.6763
  165SAPE  H14Y18642   1.785   5.932   8.485  0.0303  0.2351  0.7175
  165SAPE  C31518643   1.642   5.832   8.587 -0.0393  0.6429  0.2459
  165SAPE  H15X18644   1.719   5.794   8.657 -0.7891  1.4300  1.5242
  165SAPE  H15Y18645   1.631   5.752   8.511  0.1957  0.0006  0.8762
  165SAPE  C31618646   1.504   5.853   8.650 -0.2930  0.8101  0.5192
  165SAPE  H16X18647   1.417   5.863   8.581  0.7162  1.1085 -0.7610
  165SAPE  H16Y18648   1.495   5.947   8.708  1.7498  0.1649  1.9721
  165SAPE  C31718649   1.469   5.736   8.743  0.4464 -0.4489 -0.4343
  165SAPE  H17X18650   1.552   5.728   8.816 -1.3003 -0.1187  1.6839
  165SAPE  H17Y18651   1.455   5.637   8.695 -0.5109 -0.9553  0.8430
  165SAPE  C31818652   1.341   5.777   8.828 -0.4420 -0.4929 -0.0800
  165SAPE  H18X18653   1.339   5.875   8.880 -0.5541 -0.9922  0.8961
  165SAPE  H18Y18654   1.319   5.705   8.910  1.9034  1.5713  2.5628
  165SAPE  H18Z18655   1.253   5.769   8.760 -1.8413  0.6947  1.4998
  166SAPE     N18656   1.119   4.104   6.292 -0.0459 -0.2691 -0.7016
  166SAPE   HN118657   1.200   4.071   6.235  0.2410  0.5930 -0.8060
  166SAPE   HN218658   1.038   4.068   6.236  1.2969  0.0524 -2.9986
  166SAPE   HN318659   1.115   4.207   6.303 -1.1943 -0.4248  0.5879
  166SAPE   C1218660   1.116   4.034   6.420  0.6567 -0.8954  0.1902
  166SAPE  H12A18661   1.048   4.091   6.486  1.5314  0.3966  0.0200
  166SAPE  H12B18662   1.216   4.029   6.468  1.6779  1.0139 -1.5877
  166SAPE   C1118663   1.069   3.891   6.402  0.3233  0.2825 -0.0895
  166SAPE  H11A18664   1.020   3.851   6.493  0.6305  0.8031  0.3068
  166SAPE  H11B18665   1.164   3.837   6.381  1.3311  1.2979  1.6701
  166SAPE     P18666   0.948   3.742   6.222 -0.0505 -0.2292 -0.0777
  166SAPE   O1318667   0.983   3.755   6.080 -0.3073  0.3865  0.0547
  166SAPE   O1418668   1.018   3.633   6.296  0.4793 -0.2768 -0.0693
  166SAPE   O1218669   0.982   3.885   6.288  0.7913  0.5988  0.7117
  166SAPE   O1118670   0.788   3.732   6.233  0.0483  0.2863  0.3269
  166SAPE    C118671   0.698   3.828   6.296  0.7939 -0.0201 -0.5855
  166SAPE    HA18672   0.725   3.935   6.282 -2.2569  0.7852 -1.0988
  166SAPE    HB18673   0.594   3.807   6.264  0.6101 -1.5043  0.8497
  166SAPE    C218674   0.699   3.815   6.454  0.5220 -0.3300  0.4528
  166SAPE    HS18675   0.810   3.809   6.467  1.2614  1.2381 -3.6492
  166SAPE   O2118676   0.619   3.704   6.489  0.0069 -0.2341 -0.1515
  166SAPE   C2118677   0.660   3.637   6.601 -0.3739  0.0221 -0.5543
  166SAPE   O2218678   0.760   3.670   6.662  0.0383 -0.0899 -0.4818
  166SAPE   C2218679   0.568   3.520   6.625 -0.4275 -0.5587 -0.5229
  166SAPE   H2R18680   0.464   3.558   6.632  0.2254  1.2883 -0.1346
  166SAPE   H2S18681   0.581   3.451   6.539  0.9103 -1.8515  0.6615
  166SAPE    C318682   0.648   3.947   6.519  0.4452 -0.0036 -0.0037
  166SAPE    HX18683   0.552   3.966   6.467 -0.0911 -3.9597 -0.7830
  166SAPE    HY18684   0.703   4.039   6.490 -2.6858  2.8686  2.4006
  166SAPE   O3118685   0.636   3.942   6.655  0.1446 -0.0191 -0.5154
  166SAPE   C3118686   0.736   3.962   6.732  0.1859  0.0131 -0.3816
  166SAPE   O3218687   0.843   4.014   6.702 -0.5560 -0.1169  0.8765
  166SAPE   C3218688   0.696   3.928   6.872 -0.2875 -0.6090 -0.5907
  166SAPE   H2X18689   0.613   3.855   6.879  1.1149 -2.0910  1.5364
  166SAPE   H2Y18690   0.658   4.019   6.924 -1.1065  0.0849 -2.3149
  166SAPE   C2318691   0.587   3.444   6.761  0.3133  0.6929 -0.0376
  166SAPE   H3R18692   0.692   3.409   6.767  0.0726  0.0384  0.4688
  166SAPE   H3S18693   0.517   3.359   6.748  0.8900  0.2264 -0.1605
  166SAPE   C2418694   0.550   3.531   6.886  0.1790 -0.2617 -0.3683
  166SAPE   H4R18695   0.624   3.615   6.887 -1.0113  0.8822  2.2747
  166SAPE   H4S18696   0.563   3.481   6.984  0.5097  0.8429  0.1774
  166SAPE   C2518697   0.413   3.581   6.877  0.2211 -0.3694 -0.2249
  166SAPE   H5R18698   0.372   3.632   6.789 -3.8982 -1.2301  1.0083
  166SAPE   C2618699   0.326   3.578   6.981  1.0226  0.0903 -0.3992
  166SAPE   H6R18700   0.221   3.608   6.968  1.5384  2.6261  0.6566
  166SAPE   C2718701   0.347   3.523   7.122  0.7718 -0.5677  0.4388
  166SAPE   H7R18702   0.455   3.512   7.144  0.7219 -1.3484  0.2981
  166SAPE   H7S18703   0.295   3.425   7.129  0.7667 -0.7649 -1.6992
  166SAPE   C2818704   0.299   3.620   7.226  0.0612 -0.8553 -0.1218
  166SAPE   H8R18705   0.369   3.701   7.248  0.0458 -0.5928 -0.9778
  166SAPE   C2918706   0.180   3.615   7.293 -0.5063 -0.6434  0.6231
  166SAPE   H9R18707   0.159   3.681   7.378  1.6504 -1.5380  1.9367
  166SAPE  C21018708   0.073   3.512   7.266  0.9745 -0.5498  0.2444
  166SAPE  H10R18709   0.021   3.484   7.360 -1.3818 -0.8566 -1.0828
  166SAPE  H10S18710   0.113   3.418   7.222  0.9451 -1.4927  2.1163
  166SAPE  C21118711  -0.014   3.576   7.156  0.4090 -1.3868 -0.8428
  166SAPE  H11R18712   0.027   3.554   7.056  0.5411  1.1627 -1.4113
  166SAPE  C21218713  -0.133   3.647   7.159  0.5474  0.5341  0.5284
  166SAPE  H12R18714  -0.173   3.657   7.057  0.1504  1.3665  0.7530
  166SAPE  C21318715  -0.214   3.688   7.279  0.2896  0.9772 -0.2684
  166SAPE  H13R18716  -0.272   3.780   7.253 -0.8609  1.6275  3.7843
  166SAPE  H13S18717  -0.149   3.712   7.366  1.0203 -1.1479 -0.1688
  166SAPE  C21418718  -0.310   3.577   7.321 -0.3608 -0.2149 -0.2879
  166SAPE  H14R18719  -0.364   3.533   7.235  0.8734  0.2582 -1.3310
  166SAPE  C21518720  -0.341   3.519   7.442  0.4881 -0.1304 -0.1667
  166SAPE  H15R18721  -0.414   3.437   7.443 -2.6760  2.4254 -1.6910
  166SAPE  C21618722  -0.268   3.555   7.569 -0.1831 -1.2773  0.5413
  166SAPE  H16R18723  -0.264   3.665   7.582 -2.3539 -1.2371  1.3698
  166SAPE  H16S18724  -0.166   3.515   7.553 -0.7752 -2.0538 -1.7772
  166SAPE  C21718725  -0.341   3.515   7.693 -0.0159 -0.1642  0.3453
  166SAPE  H17R18726  -0.341   3.405   7.699 -0.3227 -0.2877 -1.2902
  166SAPE  H17S18727  -0.449   3.539   7.701  0.0942 -0.1790  2.3532
  166SAPE  C21818728  -0.267   3.583   7.808  0.1719  0.2844 -0.1958
  166SAPE  H18R18729  -0.295   3.690   7.817 -0.1828  0.1785 -0.0200
  166SAPE  H18S18730  -0.157   3.572   7.799  0.6695  0.8888  3.4243
  166SAPE  C21918731  -0.311   3.523   7.942  0.3012 -0.2788 -0.8360
  166SAPE  H19R18732  -0.322   3.413   7.937  1.9478 -0.4191 -1.9292
  166SAPE  H19S18733  -0.413   3.552   7.975  1.3720  1.0278  1.6082
  166SAPE  C22018734  -0.216   3.552   8.055  0.6636 -0.2595 -0.2140
  166SAPE  H20R18735  -0.234   3.502   8.153 -1.3125  3.1172  1.3182
  166SAPE  H20S18736  -0.239   3.659   8.076  0.4130 -0.1966 -0.7961
  166SAPE  H20T18737  -0.109   3.539   8.030  0.5938 -0.5781 -0.3582
  166SAPE   C3318738   0.811   3.870   6.957  0.2920 -0.1804  0.0596
  166SAPE   H3X18739   0.911   3.918   6.953 -0.1243  0.9338  1.7645
  166SAPE   H3Y18740   0.831   3.767   6.920  0.7908  0.5392 -1.7864
  166SAPE   C3418741   0.778   3.868   7.110 -0.2980 -0.2023 -0.8412
  166SAPE   H4X18742   0.758   3.975   7.135  1.8734  0.0028  0.2295
  166SAPE   H4Y18743   0.872   3.850   7.166 -0.9255  1.7403  0.9743
  166SAPE   C3518744   0.677   3.762   7.149  0.5764  0.1298 -0.0063
  166SAPE   H5X18745   0.712   3.668   7.101 -0.3660 -0.6654  0.8363
  166SAPE   H5Y18746   0.578   3.786   7.105  0.4174  2.0015  1.2776
  166SAPE   C3618747   0.669   3.731   7.294  0.2555 -0.3424 -0.0623
  166SAPE   H6X18748   0.776   3.718   7.322 -0.6099 -0.1962  4.0189
  166SAPE   H6Y18749   0.615   3.635   7.306 -2.2935  1.1632  1.3905
  166SAPE   C3718750   0.605   3.838   7.381  0.8962 -0.5939  0.0123
  166SAPE   H7X18751   0.509   3.871   7.334  1.6575  0.4644 -0.8436
  166SAPE   H7Y18752   0.665   3.930   7.395  0.9692 -0.5985 -0.2704
  166SAPE   C3818753   0.573   3.778   7.516  0.3717  0.3821  0.5085
  166SAPE   H8X18754   0.498   3.698   7.497  1.7521 -0.9248  0.2851
  166SAPE   H8Y18755   0.529   3.858   7.580  0.2267 -0.2361  1.2072
  166SAPE   C3918756   0.688   3.716   7.597  0.7424  0.1087  0.0782
  166SAPE   H9X18757   0.757   3.796   7.632  0.9173 -0.6529  1.5441
  166SAPE   H9Y18758   0.747   3.645   7.534  0.7109  0.3851 -0.2705
  166SAPE  C31018759   0.634   3.652   7.723 -0.7082  0.8320  0.3536
  166SAPE  H10X18760   0.573   3.566   7.687  1.4030 -0.1714 -1.0127
  166SAPE  H10Y18761   0.575   3.720   7.788  1.4722  2.3683  0.8104
  166SAPE  C31118762   0.746   3.585   7.802 -0.4610  0.0294 -0.2586
  166SAPE  H11X18763   0.815   3.669   7.828 -2.8421  1.9713  0.1004
  166SAPE  H11Y18764   0.803   3.518   7.733 -3.2090 -2.6929 -0.0641
  166SAPE  C31218765   0.701   3.518   7.928 -0.2895  0.6065 -1.1966
  166SAPE  H12X18766   0.789   3.477   7.981  1.1277  3.0912 -1.4778
  166SAPE  H12Y18767   0.632   3.436   7.898  0.1985 -0.7330  1.1498
  166SAPE  C31318768   0.633   3.620   8.017  0.1247 -0.6017 -0.9400
  166SAPE  H13X18769   0.532   3.653   7.985 -0.5420 -1.5427  0.0969
  166SAPE  H13Y18770   0.694   3.712   8.027  1.7286 -1.4483 -2.4304
  166SAPE  C31418771   0.610   3.541   8.148 -1.0031  0.5533 -0.1055
  166SAPE  H14X18772   0.688   3.568   8.223  0.2539 -2.2979 -0.2495
  166SAPE  H14Y18773   0.616   3.432   8.130  0.9779  0.2626  1.8838
  166SAPE  C31518774   0.475   3.572   8.211  0.5053  0.7442 -0.4803
  166SAPE  H15X18775   0.400   3.558   8.131 -1.2302  3.5394  0.5141
  166SAPE  H15Y18776   0.485   3.679   8.240  1.2142  0.3933  0.6876
  166SAPE  C31618777   0.443   3.484   8.328 -0.2263  0.5133 -0.1646
  166SAPE  H16X18778   0.524   3.497   8.402 -0.2540  0.3126 -0.0967
  166SAPE  H16Y18779   0.427   3.378   8.297 -0.5260  0.1692  1.0913
  166SAPE  C31718780   0.317   3.528   8.400 -0.2224  0.1505 -0.2777
  166SAPE  H17X18781   0.274   3.462   8.478 -0.5222 -0.8042 -1.2270
  166SAPE  H17Y18782   0.239   3.539   8.321 -0.4880 -0.2231 -0.0730
  166SAPE  C31818783   0.323   3.667   8.460  0.4583 -0.0953 -0.2675
  166SAPE  H18X18784   0.358   3.745   8.389  1.0278  0.5461  0.6885
  166SAPE  H18Y18785   0.388   3.673   8.550  1.0375 -0.1995 -0.6689
  166SAPE  H18Z18786   0.220   3.699   8.487  0.5412 -1.1922  1.4920
  167SAPE     N18787   3.208   1.658   5.870  0.2819 -0.3420  0.7304
  167SAPE   HN118788   3.265   1.585   5.917  0.8889 -1.9336 -2.2629
  167SAPE   HN218789   3.167   1.615   5.785 -0.5875 -0.2344  1.0814
  167SAPE   HN318790   3.280   1.730   5.848  1.0358 -1.4980 -0.7348
  167SAPE   C1218791   3.087   1.706   5.953 -0.0362 -0.2528  0.4341
  167SAPE  H12A18792   3.046   1.617   6.004 -1.6074  0.4674  0.4970
  167SAPE  H12B18793   3.017   1.743   5.875  1.0581 -2.7011 -1.8612
  167SAPE   C1118794   3.130   1.801   6.060 -0.8858 -0.4740 -0.3344
  167SAPE  H11A18795   3.038   1.835   6.112 -0.4901 -0.5360  0.4254
  167SAPE  H11B18796   3.173   1.892   6.012  3.3395 -0.6789  2.5383
  167SAPE     P18797   3.275   1.815   6.273  0.2815  0.0219 -0.2680
  167SAPE   O1318798   3.334   1.710   6.361  0.3748 -0.2248  0.1902
  167SAPE   O1418799   3.367   1.932   6.247  0.3322  0.8783  0.4261
  167SAPE   O1218800   3.237   1.744   6.135  0.0688 -0.2562 -0.3134
  167SAPE   O1118801   3.131   1.864   6.328  0.0921  0.2133 -0.3802
  167SAPE    C118802   3.132   1.988   6.390 -0.7354  0.0580  0.5756
  167SAPE    HA18803   3.219   2.014   6.454  0.7143  1.3577 -1.7612
  167SAPE    HB18804   3.136   2.075   6.322 -0.0716  1.0322  1.8191
  167SAPE    C218805   2.998   1.997   6.476  0.5656  0.4285 -0.0815
  167SAPE    HS18806   3.001   2.097   6.524  0.8699  1.8372 -2.8579
  167SAPE   O2118807   2.993   1.888   6.566  0.7163  0.0614 -0.1309
  167SAPE   C2118808   3.081   1.870   6.665 -0.7331 -0.0060 -0.5008
  167SAPE   O2218809   3.174   1.945   6.691 -0.0951 -0.0635 -0.0356
  167SAPE   C2218810   3.032   1.752   6.748  0.5727 -0.0334 -0.0121
  167SAPE   H2R18811   2.926   1.770   6.777  0.2845 -0.0379 -1.0321
  167SAPE   H2S18812   3.041   1.659   6.688  1.2007  0.0728 -0.0869
  167SAPE    C318813   2.865   1.992   6.389  0.2096 -0.4271 -0.0954
  167SAPE    HX18814   2.852   1.886   6.358  4.1579 -1.9662  2.6571
  167SAPE    HY18815   2.861   2.053   6.297 -1.0797  2.0494  1.4904
  167SAPE   O3118816   2.760   2.036   6.482 -0.3168  0.5749 -0.1729
  167SAPE   C3118817   2.684   1.942   6.534  0.6199  0.4049 -0.4277
  167SAPE   O3218818   2.704   1.823   6.522  0.3218  0.6568 -0.2900
  167SAPE   C3218819   2.555   2.005   6.597  0.6111  0.2098 -0.1274
  167SAPE   H2X18820   2.519   2.059   6.506  0.5476 -0.9645 -0.8239
  167SAPE   H2Y18821   2.581   2.091   6.662 -2.2751  0.1586  1.2428
  167SAPE   C2318822   3.117   1.737   6.877  0.9554  0.5475  0.0527
  167SAPE   H3R18823   3.113   1.823   6.947  4.3441  1.8487 -1.1476
  167SAPE   H3S18824   3.222   1.710   6.852  1.1846 -0.2450  1.7069
  167SAPE   C2418825   3.070   1.609   6.957 -0.4078  0.0029  0.2987
  167SAPE   H4R18826   3.087   1.515   6.900 -1.6397 -0.5162  0.7514
  167SAPE   H4S18827   2.960   1.598   6.966 -0.3161 -1.6780 -0.2717
  167SAPE   C2518828   3.128   1.604   7.094  0.2269 -0.2986  0.4657
  167SAPE   H5R18829   3.223   1.547   7.098  0.7450  0.5750  0.9015
  167SAPE   C2618830   3.079   1.653   7.204  0.2800 -1.2268 -0.1725
  167SAPE   H6R18831   3.148   1.645   7.289 -0.7534  0.2835  0.8498
  167SAPE   C2718832   2.947   1.719   7.224  0.5097 -1.3419 -0.1295
  167SAPE   H7R18833   2.913   1.746   7.122  0.9338 -2.8222 -0.6943
  167SAPE   H7S18834   2.979   1.810   7.279  0.0848  0.3865 -2.6178
  167SAPE   C2818835   2.853   1.621   7.285 -0.1283  0.7010 -0.2241
  167SAPE   H8R18836   2.812   1.553   7.209 -0.4835  0.5884  0.0644
  167SAPE   C2918837   2.802   1.617   7.411 -0.4049 -0.2640 -0.2114
  167SAPE   H9R18838   2.732   1.536   7.434 -0.4141 -0.0978  0.3634
  167SAPE  C21018839   2.834   1.718   7.527  0.3691  0.8203  0.7206
  167SAPE  H10R18840   2.745   1.728   7.593 -1.2189 -0.6664 -1.0655
  167SAPE  H10S18841   2.849   1.820   7.485  2.1744  0.2208 -0.2100
  167SAPE  C21118842   2.962   1.677   7.592  0.8523 -0.0856 -0.3411
  167SAPE  H11R18843   3.036   1.635   7.522  1.5908 -0.0529  0.4011
  167SAPE  C21218844   2.979   1.687   7.724 -0.6024  0.1809 -0.0241
  167SAPE  H12R18845   3.069   1.641   7.766 -0.5303  0.3028 -0.0450
  167SAPE  C21318846   2.880   1.724   7.832  0.0550 -0.1703  0.1465
  167SAPE  H13R18847   2.820   1.812   7.799  0.7934  0.0854 -0.5644
  167SAPE  H13S18848   2.937   1.759   7.921 -0.0542 -0.4306  0.3185
  167SAPE  C21418849   2.787   1.608   7.861  0.6667  0.7697  0.6402
  167SAPE  H14R18850   2.804   1.521   7.796 -1.8764  0.1185  0.7261
  167SAPE  C21518851   2.679   1.598   7.943  0.0546  0.2665 -0.3726
  167SAPE  H15R18852   2.624   1.503   7.936  0.1307  0.1586  0.4310
  167SAPE  C21618853   2.634   1.707   8.031  0.1116  0.1031 -0.0795
  167SAPE  H16R18854   2.552   1.760   7.977 -1.3788 -1.5793  0.4400
  167SAPE  H16S18855   2.715   1.783   8.037 -0.7240  1.1297 -1.2333
  167SAPE  C21718856   2.588   1.681   8.173 -1.1967 -0.5164 -0.0598
  167SAPE  H17R18857   2.510   1.602   8.172  0.5582 -2.4109  2.0757
  167SAPE  H17S18858   2.556   1.768   8.235 -0.2943  0.4724 -0.9361
  167SAPE  C21818859   2.703   1.627   8.256  0.5408 -0.4527 -0.6050
  167SAPE  H18R18860   2.757   1.716   8.294 -1.9835  1.4595 -1.2185
  167SAPE  H18S18861   2.766   1.553   8.203  2.1050  0.7405 -0.4890
  167SAPE  C21918862   2.644   1.565   8.385 -0.4971  0.4674  0.7523
  167SAPE  H19R18863   2.586   1.649   8.430 -0.6222  1.1906 -0.6813
  167SAPE  H19S18864   2.739   1.552   8.441 -0.4250  0.4405  0.6241
  167SAPE  C22018865   2.567   1.438   8.372 -0.2215 -0.1717 -0.0913
  167SAPE  H20R18866   2.526   1.402   8.469 -0.1976 -2.6184 -0.9067
  167SAPE  H20S18867   2.621   1.352   8.326 -0.1055 -0.3846  0.4429
  167SAPE  H20T18868   2.475   1.445   8.309  0.0990 -1.2872 -0.7088
  167SAPE   C3318869   2.449   1.905   6.660 -0.2950 -0.4910  0.6263
  167SAPE   H3X18870   2.407   1.836   6.584  1.4577  0.3414 -1.2066
  167SAPE   H3Y18871   2.364   1.959   6.706  0.2751  0.9364  0.0663
  167SAPE   C3418872   2.505   1.834   6.790 -0.0651 -0.1608 -0.1255
  167SAPE   H4X18873   2.601   1.788   6.757  0.0198 -0.7336  0.8929
  167SAPE   H4Y18874   2.439   1.751   6.824  1.9441 -2.1737 -0.8709
  167SAPE   C3518875   2.534   1.921   6.903  0.4274 -0.3387 -0.1903
  167SAPE   H5X18876   2.452   1.995   6.908  1.2544  0.8621 -2.6833
  167SAPE   H5Y18877   2.626   1.980   6.882  0.2328 -0.2946 -0.9442
  167SAPE   C3618878   2.532   1.855   7.047 -0.7454 -0.3413  0.4718
  167SAPE   H6X18879   2.605   1.773   7.063  0.5605  0.4348 -1.1594
  167SAPE   H6Y18880   2.435   1.805   7.066 -1.9473  1.9901  0.7794
  167SAPE   C3718881   2.564   1.962   7.149 -0.3419  0.0159 -0.0990
  167SAPE   H7X18882   2.485   2.040   7.148 -0.3493  0.0035 -1.0240
  167SAPE   H7Y18883   2.654   2.006   7.101 -0.0039 -2.0555 -1.4789
  167SAPE   C3818884   2.592   1.895   7.286 -0.3217  0.3700 -0.2385
  167SAPE   H8X18885   2.676   1.822   7.284 -0.5239  0.1420 -2.0374
  167SAPE   H8Y18886   2.506   1.833   7.319  0.0951 -0.8725 -1.3723
  167SAPE   C3918887   2.606   2.013   7.382 -0.1265 -0.4089  0.0369
  167SAPE   H9X18888   2.521   2.081   7.358 -0.0577 -0.6206 -0.8624
  167SAPE   H9Y18889   2.696   2.072   7.356  1.6416 -1.9986  2.1982
  167SAPE  C31018890   2.597   1.975   7.535  0.1862 -0.2164  0.6154
  167SAPE  H10X18891   2.699   1.942   7.561 -0.2171 -0.8765  1.4009
  167SAPE  H10Y18892   2.515   1.903   7.554 -3.4056  3.2926 -0.1366
  167SAPE  C31118893   2.561   2.093   7.627  0.5177 -0.1043 -0.1594
  167SAPE  H11X18894   2.470   2.150   7.598  1.4764  1.9865  0.7149
  167SAPE  H11Y18895   2.639   2.172   7.632  0.2261  0.1754  0.0558
  167SAPE  C31218896   2.540   2.033   7.763  0.1597 -0.6716  0.1740
  167SAPE  H12X18897   2.633   1.994   7.810 -0.5603 -1.4317  1.0226
  167SAPE  H12Y18898   2.459   1.956   7.763  1.6091 -2.3024 -1.5156
  167SAPE  C31318899   2.493   2.149   7.858  0.3216  0.3858  0.3575
  167SAPE  H13X18900   2.392   2.187   7.833  1.2523  1.0373 -2.8336
  167SAPE  H13Y18901   2.559   2.234   7.829 -0.0045  0.2716 -0.7479
  167SAPE  C31418902   2.508   2.109   8.005  0.5951 -0.2024 -0.3956
  167SAPE  H14X18903   2.612   2.068   8.010  0.8719  0.4615 -0.6197
  167SAPE  H14Y18904   2.437   2.025   8.022 -1.8785  1.7462 -0.5831
  167SAPE  C31518905   2.458   2.203   8.112  0.2531 -0.1176  0.2312
  167SAPE  H15X18906   2.350   2.227   8.102  0.1759  0.6528  2.3879
  167SAPE  H15Y18907   2.517   2.295   8.130 -0.3042 -0.1744  2.7467
  167SAPE  C31618908   2.459   2.139   8.249 -0.1423 -0.5641  0.2252
  167SAPE  H16X18909   2.391   2.052   8.234 -1.2693  0.6713 -2.4255
  167SAPE  H16Y18910   2.404   2.194   8.328 -0.8817 -0.6025 -0.2468
  167SAPE  C31718911   2.593   2.109   8.305 -0.6217 -0.2623  0.6400
  167SAPE  H17X18912   2.633   2.211   8.317  0.0303 -0.6102  1.5098
  167SAPE  H17Y18913   2.665   2.065   8.234 -0.0771  1.7425 -0.1075
  167SAPE  C31818914   2.592   2.032   8.440  0.3553  0.1578  0.1851
  167SAPE  H18X18915   2.570   1.925   8.422  0.6128  0.1547 -0.1093
  167SAPE  H18Y18916   2.517   2.072   8.512 -2.0739 -1.7447 -1.1263
  167SAPE  H18Z18917   2.693   2.055   8.480  0.4697 -1.7057  1.0602
  168SAPE     N18918   3.238   4.120   6.512 -0.3033  0.3796  0.5030
  168SAPE   HN118919   3.261   4.052   6.436  1.5458  3.3871 -1.8481
  168SAPE   HN218920   3.141   4.096   6.538 -0.7541 -0.7921 -1.9386
  168SAPE   HN318921   3.239   4.214   6.469  0.3629  1.1817  2.1839
  168SAPE   C1218922   3.335   4.108   6.631 -0.2989  0.7860  0.2155
  168SAPE  H12A18923   3.305   4.173   6.716  0.0989 -0.1940  1.1470
  168SAPE  H12B18924   3.438   4.133   6.596 -0.3700 -0.9575 -1.4081
  168SAPE   C1118925   3.337   3.957   6.684  0.6687  0.0462  0.1107
  168SAPE  H11A18926   3.230   3.948   6.715  0.3346  1.6411 -0.4762
  168SAPE  H11B18927   3.402   3.957   6.774 -0.1784 -0.1064  0.7389
  168SAPE     P18928   3.388   3.714   6.612  0.4323  0.2296  0.2161
  168SAPE   O1318929   3.253   3.657   6.582 -0.1632 -0.5962 -0.3975
  168SAPE   O1418930   3.500   3.675   6.522 -0.1218  0.3042 -0.1266
  168SAPE   O1218931   3.372   3.869   6.579  0.3320  0.5179  0.3064
  168SAPE   O1118932   3.422   3.690   6.767 -0.3710 -0.3334  0.0470
  168SAPE    C118933   3.546   3.718   6.837 -0.8073 -0.1905  0.9463
  168SAPE    HA18934   3.604   3.795   6.782  0.5375 -1.1096  1.0117
  168SAPE    HB18935   3.526   3.751   6.941 -0.2443 -0.5667  1.1833
  168SAPE    C218936   3.641   3.592   6.842 -0.9284 -0.2077  0.3131
  168SAPE    HS18937   3.653   3.561   6.736 -0.4898 -1.1951  0.6299
  168SAPE   O2118938   3.576   3.491   6.920 -0.0409 -0.2026  0.0350
  168SAPE   C2118939   3.588   3.369   6.881  0.4549 -0.0620 -0.3181
  168SAPE   O2218940   3.652   3.331   6.782  0.0066  0.2714 -0.0026
  168SAPE   C2218941   3.515   3.273   6.977 -0.6032 -0.4087  0.2473
  168SAPE   H2R18942   3.503   3.324   7.075  0.5058  0.1790  0.0926
  168SAPE   H2S18943   3.416   3.269   6.927  0.9462 -1.0821 -3.0092
  168SAPE    C318944   3.784   3.621   6.904 -1.0228  0.0696 -0.2413
  168SAPE    HX18945   3.835   3.694   6.837 -2.0255  2.6348  1.6018
  168SAPE    HY18946   3.845   3.529   6.895 -0.9132 -0.0651  1.4524
  168SAPE   O3118947   3.788   3.670   7.043 -0.1545 -0.5685 -0.9304
  168SAPE   C3118948   3.793   3.578   7.139  0.0742 -0.0466  0.2028
  168SAPE   O3218949   3.804   3.457   7.107  0.0990  0.2219  0.3746
  168SAPE   C3218950   3.792   3.639   7.278 -0.1891 -0.0815 -0.3168
  168SAPE   H2X18951   3.715   3.719   7.272 -2.4077 -2.1430 -1.4295
  168SAPE   H2Y18952   3.892   3.687   7.285  0.1421 -0.7054 -0.6607
  168SAPE   C2318953   3.588   3.129   6.986  0.1759 -0.2879 -0.5583
  168SAPE   H3R18954   3.690   3.147   7.025 -0.5085 -2.0831  2.3611
  168SAPE   H3S18955   3.588   3.095   6.880  1.0765  2.4791 -1.5376
  168SAPE   C2418956   3.506   3.040   7.084 -0.3950 -0.7056 -0.2550
  168SAPE   H4R18957   3.397   3.051   7.063 -0.3550 -0.8814 -0.5533
  168SAPE   H4S18958   3.515   3.085   7.185  0.6453 -0.6348 -0.3712
  168SAPE   C2518959   3.549   2.893   7.082  0.0946  0.3347 -0.1565
  168SAPE   H5R18960   3.544   2.848   6.982 -2.6325 -0.2447  0.1498
  168SAPE   C2618961   3.570   2.815   7.186 -0.0650 -0.2635 -0.0294
  168SAPE   H6R18962   3.606   2.713   7.163  0.5321 -0.2335  0.7233
  168SAPE   C2718963   3.563   2.850   7.333 -0.2230  0.4260 -1.0419
  168SAPE   H7R18964   3.520   2.951   7.349  1.4462  0.9395  0.5637
  168SAPE   H7S18965   3.658   2.854   7.390 -0.4758  2.1663 -0.6848
  168SAPE   C2818966   3.468   2.752   7.403 -0.1731 -0.8369 -0.0746
  168SAPE   H8R18967   3.472   2.645   7.378 -0.3457 -1.7897  3.5375
  168SAPE   C2918968   3.372   2.791   7.487  0.6016 -0.0135 -0.0642
  168SAPE   H9R18969   3.307   2.717   7.536 -0.8279  1.5084  0.4262
  168SAPE  C21018970   3.345   2.930   7.536 -0.1831 -0.9890 -0.3187
  168SAPE  H10R18971   3.250   2.936   7.594  1.6032 -1.2104  2.8236
  168SAPE  H10S18972   3.344   2.998   7.448 -0.8511 -1.0148 -0.3338
  168SAPE  C21118973   3.436   2.970   7.650  0.2717 -0.3670 -0.5635
  168SAPE  H11R18974   3.515   3.042   7.628 -0.0766  0.3725  0.5464
  168SAPE  C21218975   3.418   2.935   7.784  0.0094 -0.3947 -0.1599
  168SAPE  H12R18976   3.488   2.969   7.862 -2.2323  1.4758  1.1589
  168SAPE  C21318977   3.317   2.838   7.838 -0.5158 -0.4107  0.5197
  168SAPE  H13R18978   3.248   2.805   7.758  1.3409 -1.2244 -0.8158
  168SAPE  H13S18979   3.247   2.889   7.908 -0.6071 -0.5258  0.5136
  168SAPE  C21418980   3.390   2.722   7.905 -0.3560  0.2897  0.5637
  168SAPE  H14R18981   3.413   2.634   7.843  0.5268  0.7065  0.2878
  168SAPE  C21518982   3.426   2.711   8.033 -0.1173 -0.0763  0.5376
  168SAPE  H15R18983   3.476   2.618   8.063  1.1992  0.7964  1.1659
  168SAPE  C21618984   3.403   2.815   8.150 -0.1141  0.5011  0.2529
  168SAPE  H16R18985   3.358   2.768   8.240 -0.1642 -0.5821 -0.3255
  168SAPE  H16S18986   3.324   2.888   8.118 -0.6046 -0.8929 -1.9752
  168SAPE  C21718987   3.532   2.888   8.198 -0.2877 -0.3765  0.5432
  168SAPE  H17R18988   3.590   2.922   8.110  1.4244  0.1166  1.7984
  168SAPE  H17S18989   3.592   2.813   8.254  2.6847 -0.2292 -2.2052
  168SAPE  C21818990   3.503   3.011   8.282  0.1757  0.4442 -0.2715
  168SAPE  H18R18991   3.438   3.084   8.229 -1.4724 -0.2783  0.6439
  168SAPE  H18S18992   3.601   3.058   8.301  0.1253  0.9161 -1.1372
  168SAPE  C21918993   3.434   2.990   8.421 -0.8991 -0.3110  0.0802
  168SAPE  H19R18994   3.468   2.893   8.462  1.6280 -0.0341 -1.1474
  168SAPE  H19S18995   3.325   3.003   8.408 -0.3266  2.1104 -4.2139
  168SAPE  C22018996   3.482   3.092   8.531  0.1305  0.3341  0.1874
  168SAPE  H20R18997   3.496   3.188   8.477 -1.9994  0.0779 -0.9389
  168SAPE  H20S18998   3.576   3.068   8.584 -0.6028 -0.7974  1.0397
  168SAPE  H20T18999   3.401   3.110   8.606  1.6406 -1.2217  2.3112
  168SAPE   C3319000   3.771   3.536   7.394  0.1277  0.0567 -0.2089
  168SAPE   H3X19001   3.839   3.450   7.375  0.6825 -0.0187  1.8539
  168SAPE   H3Y19002   3.668   3.494   7.380 -0.0693  0.5977 -0.3986
  168SAPE   C3419003   3.789   3.582   7.534  0.1974  0.2106  0.2862
  168SAPE   H4X19004   3.777   3.691   7.550 -1.0937  0.0634  0.4498
  168SAPE   H4Y19005   3.896   3.566   7.559  0.6702  2.4137 -0.1087
  168SAPE   C3519006   3.690   3.528   7.642  0.4965  0.1226 -0.0024
  168SAPE   H5X19007   3.684   3.417   7.641 -0.8807  0.1743 -0.1702
  168SAPE   H5Y19008   3.585   3.556   7.619 -0.1166 -2.1688 -0.2949
  168SAPE   C3619009   3.732   3.578   7.776 -0.1862  0.3614 -0.2985
  168SAPE   H6X19010   3.645   3.569   7.845  1.9938  1.1595  2.7733
  168SAPE   H6Y19011   3.749   3.688   7.767  0.9397  0.2689  0.5044
  168SAPE   C3719012   3.857   3.506   7.826  0.4123  0.2062  0.3969
  168SAPE   H7X19013   3.923   3.481   7.740 -2.2679 -0.4389 -1.6590
  168SAPE   H7Y19014   3.830   3.408   7.871  0.6380 -1.0332 -1.9824
  168SAPE   C3819015   3.936   3.571   7.934  0.2087 -0.9102  0.3293
  168SAPE   H8X19016   3.869   3.612   8.012  0.8081  0.3930  0.1953
  168SAPE   H8Y19017   3.991   3.661   7.897 -0.3167 -1.1339 -1.0647
  168SAPE   C3919018   4.024   3.475   8.025 -0.8171 -1.0139  0.2339
  168SAPE   H9X19019   4.102   3.427   7.963 -0.3953  1.3990 -1.2260
  168SAPE   H9Y19020   3.964   3.387   8.057 -0.5394 -1.9533 -1.6694
  168SAPE  C31019021   4.091   3.550   8.146  0.5197  0.8726 -0.0036
  168SAPE  H10X19022   4.003   3.590   8.201 -0.0803 -0.3104 -0.0752
  168SAPE  H10Y19023   4.161   3.634   8.126 -1.5875  2.6780 -0.1453
  168SAPE  C31119024   4.156   3.464   8.256  0.1800  0.5508  0.4725
  168SAPE  H11X19025   4.221   3.387   8.210  0.5911  1.3583 -0.3278
  168SAPE  H11Y19026   4.077   3.408   8.310 -1.5129  2.3795  0.0445
  168SAPE  C31219027   4.241   3.543   8.351  0.0315 -0.1874 -1.1107
  168SAPE  H12X19028   4.174   3.626   8.382 -0.2391 -0.3843 -1.1619
  168SAPE  H12Y19029   4.324   3.602   8.307  0.5960  3.4675  4.0395
  168SAPE  C31319030   4.294   3.458   8.467 -0.0567 -0.2261 -0.3127
  168SAPE  H13X19031   4.357   3.372   8.435  0.5842  0.7615 -1.8272
  168SAPE  H13Y19032   4.201   3.427   8.519 -0.6529  0.5077 -0.9192
  168SAPE  C31419033   4.382   3.535   8.572  0.0554 -0.0822  0.1604
  168SAPE  H14X19034   4.335   3.625   8.618  0.0207  0.0483 -0.1272
  168SAPE  H14Y19035   4.475   3.563   8.519  0.1539  0.8277  0.7919
  168SAPE  C31519036   4.415   3.458   8.700 -0.0181  0.0301  0.6159
  168SAPE  H15X19037   4.487   3.381   8.664 -1.1325 -0.3882 -0.7993
  168SAPE  H15Y19038   4.333   3.401   8.748  1.6944 -0.7475  2.8175
  168SAPE  C31619039   4.487   3.534   8.811 -0.7941 -0.6039  0.5628
  168SAPE  H16X19040   4.425   3.604   8.870 -2.1544 -1.4427  0.1765
  168SAPE  H16Y19041   4.562   3.592   8.752 -0.7342 -1.4345 -0.2074
  168SAPE  C31719042   4.566   3.439   8.902  0.3964  0.3630  0.4757
  168SAPE  H17X19043   4.611   3.357   8.842 -1.8760 -1.2352  0.8340
  168SAPE  H17Y19044   4.497   3.389   8.974  0.9617  1.8536  2.1146
  168SAPE  C31819045   4.668   3.498   9.004 -0.7385 -0.4785  0.7687
  168SAPE  H18X19046   4.614   3.578   9.058  0.1962  2.2109 -1.9604
  168SAPE  H18Y19047   4.761   3.545   8.963 -0.4310 -0.9752  0.8926
  168SAPE  H18Z19048   4.695   3.416   9.073  1.4418  0.4593  1.1201
  169SAPE     N19049   1.480   4.881   6.534 -0.2233  0.0771  0.4639
  169SAPE   HN119050   1.579   4.859   6.511 -0.5534 -0.5539 -0.4200
  169SAPE   HN219051   1.457   4.978   6.506  0.3800  0.1491  0.2036
  169SAPE   HN319052   1.466   4.869   6.636  0.9359 -1.9672  0.4440
  169SAPE   C1219053   1.397   4.784   6.454 -0.9776 -0.4080  0.0473
  169SAPE  H12A19054   1.454   4.756   6.363  0.6710  2.2139  0.1623
  169SAPE  H12B19055   1.306   4.837   6.417 -2.1650 -1.9791  0.6084
  169SAPE   C1119056   1.363   4.657   6.532 -0.1855  0.3671 -0.0680
  169SAPE  H11A19057   1.300   4.699   6.613  0.7651  4.6231 -1.2981
  169SAPE  H11B19058   1.450   4.603   6.574  1.0358  0.2843 -2.5325
  169SAPE     P19059   1.303   4.412   6.436 -0.2955 -0.3656  0.6447
  169SAPE   O1319060   1.177   4.341   6.419 -0.1870  0.6109  0.3027
  169SAPE   O1419061   1.401   4.410   6.325  0.3127  0.1338  0.3239
  169SAPE   O1219062   1.275   4.565   6.458  0.3865 -0.0236  0.1688
  169SAPE   O1119063   1.368   4.358   6.563 -0.0663  0.0096  0.2335
  169SAPE    C119064   1.299   4.287   6.665  0.6646  0.4201 -1.0448
  169SAPE    HA19065   1.189   4.287   6.654  0.1935  0.1294  2.4396
  169SAPE    HB19066   1.329   4.180   6.664  2.8650  0.8592  2.3931
  169SAPE    C219067   1.340   4.343   6.803  0.2661  0.1485  0.2369
  169SAPE    HS19068   1.327   4.258   6.873 -2.0182 -0.1579 -0.4833
  169SAPE   O2119069   1.267   4.455   6.859  0.2193  0.4399  0.2716
  169SAPE   C2119070   1.136   4.439   6.859 -0.0611 -0.6068  0.8815
  169SAPE   O2219071   1.073   4.335   6.843 -0.1014 -0.4248 -0.6557
  169SAPE   C2219072   1.084   4.576   6.902 -0.0992  0.3074  0.1641
  169SAPE   H2R19073   1.096   4.643   6.814 -0.3127 -1.4935 -1.2815
  169SAPE   H2S19074   0.975   4.569   6.922  0.2447 -0.6601  1.9290
  169SAPE    C319075   1.495   4.381   6.797  0.5043  0.4394 -0.6254
  169SAPE    HX19076   1.506   4.474   6.738 -0.0442 -0.2755 -1.8948
  169SAPE    HY19077   1.561   4.305   6.748  1.8362  0.8766  0.4073
  169SAPE   O3119078   1.545   4.396   6.932 -0.1591  0.1348 -0.2083
  169SAPE   C3119079   1.529   4.516   6.984 -0.2026  0.7730  0.8860
  169SAPE   O3219080   1.495   4.621   6.935 -0.0685  0.3323  0.8965
  169SAPE   C3219081   1.545   4.509   7.127  0.0383  0.9321 -0.9319
  169SAPE   H2X19082   1.644   4.464   7.151  0.3166  2.0625  0.1112
  169SAPE   H2Y19083   1.465   4.444   7.167  1.3153 -0.3052 -0.2888
  169SAPE   C2319084   1.169   4.639   7.015  0.2483 -0.0632 -0.0988
  169SAPE   H3R19085   1.247   4.700   6.965  0.9334 -0.1884  0.7991
  169SAPE   H3S19086   1.227   4.571   7.080 -0.3059  0.5390  1.0427
  169SAPE   C2419087   1.079   4.726   7.098 -0.2043  0.2258 -0.2254
  169SAPE   H4R19088   1.032   4.804   7.035 -1.1932  0.8226  1.1874
  169SAPE   H4S19089   1.136   4.781   7.176  1.4748 -3.5120  1.4586
  169SAPE   C2519090   0.977   4.651   7.189  0.5685  0.6558 -1.0834
  169SAPE   H5R19091   0.885   4.622   7.137  0.0085 -0.4443  0.4399
  169SAPE   C2619092   0.986   4.619   7.322  0.8225 -0.0316  0.1534
  169SAPE   H6R19093   0.909   4.556   7.369  0.7805  0.2561  0.4772
  169SAPE   C2719094   1.103   4.660   7.408  0.1582  0.2293 -0.6649
  169SAPE   H7R19095   1.187   4.685   7.340  0.0182  1.0475 -0.5458
  169SAPE   H7S19096   1.131   4.567   7.462 -0.1294  1.2853  1.3977
  169SAPE   C2819097   1.092   4.776   7.506 -0.6402  0.1114 -0.2053
  169SAPE   H8R19098   1.119   4.873   7.462 -0.1785 -0.1163 -0.4269
  169SAPE   C2919099   1.047   4.757   7.634 -0.0737 -0.2165  0.1005
  169SAPE   H9R19100   1.055   4.845   7.699  0.3243 -0.4927  0.4331
  169SAPE  C21019101   0.999   4.630   7.699 -0.3464  0.5637 -0.1373
  169SAPE  H10R19102   1.081   4.561   7.727 -1.9596 -0.5530  2.1104
  169SAPE  H10S19103   0.952   4.563   7.625 -0.5845 -0.1458  0.6405
  169SAPE  C21119104   0.909   4.648   7.818 -0.3662  0.0598  0.3945
  169SAPE  H11R19105   0.801   4.651   7.797 -0.2166  1.8400 -0.2331
  169SAPE  C21219106   0.957   4.678   7.940  0.5938 -0.3579  0.4252
  169SAPE  H12R19107   0.878   4.683   8.017 -1.1995  1.1222 -1.4166
  169SAPE  C21319108   1.107   4.694   7.977  0.4098 -0.2629  0.1732
  169SAPE  H13R19109   1.143   4.794   7.945 -2.9943  0.6060 -1.5322
  169SAPE  H13S19110   1.158   4.622   7.910  2.3076  1.6175 -0.4849
  169SAPE  C21419111   1.156   4.687   8.117 -0.3756  1.2221 -0.3979
  169SAPE  H14R19112   1.222   4.767   8.155  2.1362 -1.5257  1.4354
  169SAPE  C21519113   1.118   4.604   8.218 -0.5013  0.0958 -0.0839
  169SAPE  H15R19114   1.167   4.617   8.316  0.3513 -1.1520 -0.3101
  169SAPE  C21619115   1.007   4.492   8.217  0.3276 -0.2603 -0.0045
  169SAPE  H16R19116   1.055   4.396   8.248  0.9015  0.1265  0.3157
  169SAPE  H16S19117   0.973   4.480   8.111 -1.1182  1.3518  0.2325
  169SAPE  C21719118   0.887   4.530   8.307 -0.0414  0.4739  1.1793
  169SAPE  H17R19119   0.814   4.447   8.294  1.4078 -0.7979  0.8384
  169SAPE  H17S19120   0.831   4.614   8.262 -0.4523 -0.0153  0.7541
  169SAPE  C21819121   0.918   4.530   8.457  0.2792 -0.1744  0.0593
  169SAPE  H18R19122   0.988   4.615   8.472  0.7631 -0.9546  2.7399
  169SAPE  H18S19123   0.960   4.429   8.475  0.7221  0.3063  1.8531
  169SAPE  C21919124   0.790   4.543   8.532  0.0880  0.4629 -0.3474
  169SAPE  H19R19125   0.714   4.476   8.487 -0.1011  1.3142 -1.3543
  169SAPE  H19S19126   0.749   4.646   8.520 -0.5673  0.4063  1.1581
  169SAPE  C22019127   0.805   4.498   8.680 -0.1761 -0.0542  0.8172
  169SAPE  H20R19128   0.798   4.387   8.679 -0.2897 -0.0752 -1.4001
  169SAPE  H20S19129   0.728   4.544   8.745 -0.1014  0.8816  0.2673
  169SAPE  H20T19130   0.902   4.534   8.721  0.6237  0.0667 -1.0971
  169SAPE   C3319131   1.520   4.642   7.211 -0.1019 -0.5825 -0.5881
  169SAPE   H3X19132   1.430   4.694   7.171 -1.3442 -1.4647  0.9728
  169SAPE   H3Y19133   1.608   4.708   7.195 -0.2339 -0.1764  0.2872
  169SAPE   C3419134   1.482   4.621   7.359 -0.3928 -0.5470 -0.8054
  169SAPE   H4X19135   1.549   4.539   7.393 -1.1452 -1.2793 -1.0530
  169SAPE   H4Y19136   1.389   4.560   7.353 -0.3095 -0.6607 -0.9605
  169SAPE   C3519137   1.482   4.740   7.451  0.1198  1.2198  0.5624
  169SAPE   H5X19138   1.405   4.816   7.427 -1.1474  0.3709  1.8261
  169SAPE   H5Y19139   1.583   4.786   7.453  0.4610  0.4715  0.8428
  169SAPE   C3619140   1.455   4.682   7.597 -0.2236 -0.1317  0.5017
  169SAPE   H6X19141   1.364   4.620   7.590 -0.0514 -0.3527  0.1786
  169SAPE   H6Y19142   1.439   4.770   7.662 -2.3184  0.7272 -1.0875
  169SAPE   C3719143   1.570   4.606   7.650 -0.0827  0.9908  0.2467
  169SAPE   H7X19144   1.665   4.635   7.600 -0.4890 -0.1533 -1.2661
  169SAPE   H7Y19145   1.556   4.500   7.620 -1.0079  0.3896  2.5643
  169SAPE   C3819146   1.582   4.602   7.803  0.4924  0.6030  0.1452
  169SAPE   H8X19147   1.495   4.552   7.849 -0.7550  0.3991 -2.3039
  169SAPE   H8Y19148   1.580   4.709   7.836  0.5001  0.3282  1.0678
  169SAPE   C3919149   1.716   4.541   7.846 -0.3115 -0.2012  0.1847
  169SAPE   H9X19150   1.797   4.584   7.784  0.6002 -1.3437  0.5701
  169SAPE   H9Y19151   1.718   4.434   7.819  3.4437 -0.0723 -0.5144
  169SAPE  C31019152   1.759   4.554   7.991 -0.5816 -0.4942  0.3038
  169SAPE  H10X19153   1.802   4.655   8.008  0.8467 -1.1797  0.9830
  169SAPE  H10Y19154   1.827   4.476   8.032 -1.2418 -1.2495 -0.0080
  169SAPE  C31119155   1.639   4.536   8.090 -0.6998 -0.0413 -0.3960
  169SAPE  H11X19156   1.570   4.455   8.058 -1.6314  0.8034 -0.5952
  169SAPE  H11Y19157   1.580   4.630   8.081 -2.1401 -0.8684  0.0341
  169SAPE  C31219158   1.668   4.513   8.238  0.2408 -0.0231 -0.1127
  169SAPE  H12X19159   1.588   4.565   8.297  1.6099  1.2015  0.7436
  169SAPE  H12Y19160   1.760   4.570   8.262  0.0841  0.5362 -0.8245
  169SAPE  C31319161   1.670   4.361   8.288 -0.3037  0.4493  0.3473
  169SAPE  H13X19162   1.747   4.312   8.224  1.2060  1.2526  1.5009
  169SAPE  H13Y19163   1.571   4.310   8.277  1.3632 -3.5214  1.8701
  169SAPE  C31419164   1.697   4.346   8.438 -0.4946  0.0904 -0.5378
  169SAPE  H14X19165   1.614   4.383   8.502  2.1724 -1.3350  4.2518
  169SAPE  H14Y19166   1.784   4.407   8.468 -2.0202  1.5589  1.1196
  169SAPE  C31519167   1.723   4.199   8.484  0.3351 -0.3657 -0.1404
  169SAPE  H15X19168   1.816   4.170   8.430  0.1659  2.4278 -2.1705
  169SAPE  H15Y19169   1.631   4.142   8.461 -0.0211  0.8330 -1.9111
  169SAPE  C31619170   1.753   4.187   8.628  0.2838  0.4966 -0.4244
  169SAPE  H16X19171   1.662   4.220   8.683  1.2350  0.3614  1.3021
  169SAPE  H16Y19172   1.831   4.250   8.675  0.5300 -0.1191  0.0113
  169SAPE  C31719173   1.792   4.043   8.674 -1.3792 -0.1930  0.1834
  169SAPE  H17X19174   1.892   4.045   8.722 -0.4679 -0.3278 -1.6324
  169SAPE  H17Y19175   1.807   3.979   8.585  0.2557  0.4746 -0.0575
  169SAPE  C31819176   1.695   3.971   8.775 -0.8085  0.1973 -0.5082
  169SAPE  H18X19177   1.683   4.021   8.873  2.0118  0.6040 -0.2831
  169SAPE  H18Y19178   1.748   3.877   8.802  0.8972  1.1758 -0.2925
  169SAPE  H18Z19179   1.595   3.950   8.731 -1.4171  0.4365  0.6904
  170SAPE     N19180   2.327   3.098   6.176  0.1923  0.2988  0.6194
  170SAPE   HN119181   2.265   3.066   6.253 -1.1116  2.4347  0.5140
  170SAPE   HN219182   2.292   3.187   6.137  0.8507  1.1764  1.9220
  170SAPE   HN319183   2.324   3.020   6.107 -0.1372  1.6601 -0.9628
  170SAPE   C1219184   2.467   3.099   6.219 -0.3892  0.9997 -0.2475
  170SAPE  H12A19185   2.486   3.177   6.297 -1.5774 -0.2528  1.3514
  170SAPE  H12B19186   2.539   3.116   6.136  2.3186 -1.3696  1.4194
  170SAPE   C1119187   2.502   2.958   6.265 -0.4385 -0.0397  0.3544
  170SAPE  H11A19188   2.437   2.939   6.354 -0.2430  1.8483  0.9555
  170SAPE  H11B19189   2.606   2.953   6.303  0.2479 -2.3135 -1.6177
  170SAPE     P19190   2.554   2.728   6.148  0.5735  0.7640 -0.1047
  170SAPE   O1319191   2.461   2.638   6.070  0.6531 -0.0434 -0.4995
  170SAPE   O1419192   2.676   2.761   6.078  0.0079  0.4067 -0.3293
  170SAPE   O1219193   2.481   2.868   6.158 -0.3088  0.5837  0.1158
  170SAPE   O1119194   2.575   2.677   6.298 -0.1387 -0.1129  0.1320
  170SAPE    C119195   2.473   2.591   6.344  0.2984  0.7157 -0.3746
  170SAPE    HA19196   2.373   2.639   6.344  0.4228  1.2329 -3.6581
  170SAPE    HB19197   2.454   2.500   6.282 -0.2556  1.9074 -2.0196
  170SAPE    C219198   2.499   2.537   6.488  0.0606 -0.0033  0.1302
  170SAPE    HS19199   2.423   2.460   6.514  0.7779 -0.5122  0.8250
  170SAPE   O2119200   2.507   2.643   6.584 -0.2727 -0.7459  0.8178
  170SAPE   C2119201   2.403   2.719   6.598 -0.0647  0.5633  0.2756
  170SAPE   O2219202   2.289   2.683   6.568 -0.4836  0.4861  0.3871
  170SAPE   C2219203   2.448   2.844   6.684  0.4371 -0.1041 -0.3232
  170SAPE   H2R19204   2.534   2.805   6.743 -1.1041 -0.6792  1.6694
  170SAPE   H2S19205   2.494   2.919   6.616 -0.5851  0.2534 -0.6375
  170SAPE    C319206   2.631   2.457   6.491  0.1214 -1.0789 -0.2559
  170SAPE    HX19207   2.710   2.535   6.487  0.0092 -0.9080  0.6659
  170SAPE    HY19208   2.648   2.386   6.407  5.4646  0.7607 -1.1075
  170SAPE   O3119209   2.640   2.370   6.609 -0.7028 -0.3357 -0.4509
  170SAPE   C3119210   2.768   2.338   6.644  0.2426  0.2271 -0.1288
  170SAPE   O3219211   2.863   2.370   6.571  0.5571  0.1716  0.4114
  170SAPE   C3219212   2.773   2.282   6.781 -0.8885  0.1558 -0.0090
  170SAPE   H2X19213   2.675   2.235   6.805 -0.0032 -0.2566  3.2147
  170SAPE   H2Y19214   2.777   2.363   6.857  0.1307 -0.5324  0.7008
  170SAPE   C2319215   2.347   2.913   6.776 -0.4979 -0.2420  0.1526
  170SAPE   H3R19216   2.308   2.842   6.852 -0.3200 -0.6069 -0.0979
  170SAPE   H3S19217   2.274   2.945   6.699  1.3995 -1.0886 -2.0958
  170SAPE   C2419218   2.411   3.041   6.835 -0.0420 -0.2787  0.1280
  170SAPE   H4R19219   2.437   3.110   6.751 -2.1149 -2.3863 -2.4112
  170SAPE   H4S19220   2.512   3.015   6.875 -0.1117  1.4041  1.5275
  170SAPE   C2519221   2.325   3.114   6.936 -0.6946 -0.0663  0.7427
  170SAPE   H5R19222   2.250   3.179   6.888 -1.6345 -0.1859  1.9942
  170SAPE   C2619223   2.352   3.104   7.071  0.5244 -0.3515 -0.4663
  170SAPE   H6R19224   2.290   3.162   7.140  0.4272 -2.2262  1.1137
  170SAPE   C2719225   2.461   3.025   7.142  0.7791  0.4103 -0.2691
  170SAPE   H7R19226   2.532   3.105   7.173  1.8490  0.2249 -2.0866
  170SAPE   H7S19227   2.520   2.954   7.080 -2.1811 -1.1007 -1.5649
  170SAPE   C2819228   2.402   2.944   7.253 -0.0886 -0.3362  0.0649
  170SAPE   H8R19229   2.398   2.835   7.241 -0.6184 -0.1541 -1.6193
  170SAPE   C2919230   2.385   2.992   7.378 -0.4088  0.1637  0.6352
  170SAPE   H9R19231   2.349   2.925   7.458 -1.3773  0.6705  0.6404
  170SAPE  C21019232   2.416   3.136   7.425  0.6603  0.3333 -0.2758
  170SAPE  H10R19233   2.426   3.209   7.342  1.8643 -1.0681 -1.4407
  170SAPE  H10S19234   2.514   3.150   7.477 -0.8900  3.0008  2.2033
  170SAPE  C21119235   2.318   3.186   7.527  0.0828 -0.1488 -0.5979
  170SAPE  H11R19236   2.242   3.249   7.477 -1.1102 -2.4510 -1.8704
  170SAPE  C21219237   2.313   3.156   7.663  0.6560 -0.3309 -0.3412
  170SAPE  H12R19238   2.245   3.209   7.732  1.3669  1.3829 -0.9136
  170SAPE  C21319239   2.415   3.067   7.722  0.6947  0.1274 -0.5564
  170SAPE  H13R19240   2.498   3.030   7.658  1.3427  1.0222 -0.2587
  170SAPE  H13S19241   2.349   2.982   7.751 -0.8654  1.5665  0.2806
  170SAPE  C21419242   2.490   3.120   7.843 -0.4704 -0.1243 -0.2377
  170SAPE  H14R19243   2.505   3.227   7.824  0.1859  0.0514  1.1168
  170SAPE  C21519244   2.546   3.066   7.956 -0.4156 -0.2492 -0.9207
  170SAPE  H15R19245   2.587   3.133   8.033 -3.5680  0.5040  0.2442
  170SAPE  C21619246   2.540   2.925   8.004  0.6660  0.4441 -0.2172
  170SAPE  H16R19247   2.625   2.864   7.967  0.3840 -0.8708  1.1961
  170SAPE  H16S19248   2.452   2.873   7.961  0.7878 -0.6503  0.8244
  170SAPE  C21719249   2.546   2.903   8.154  0.1463 -0.1346  0.2262
  170SAPE  H17R19250   2.454   2.944   8.201  0.1773  0.3943 -0.1671
  170SAPE  H17S19251   2.637   2.959   8.186  1.1278 -1.1166 -0.7820
  170SAPE  C21819252   2.564   2.750   8.194  0.2230 -0.0176  0.5985
  170SAPE  H18R19253   2.651   2.700   8.147  0.3961  0.8605 -0.0383
  170SAPE  H18S19254   2.483   2.698   8.139  0.3468  0.9730 -0.5607
  170SAPE  C21919255   2.558   2.723   8.341  0.4504 -0.6230  0.4813
  170SAPE  H19R19256   2.451   2.748   8.358  0.6567  1.3188 -0.6535
  170SAPE  H19S19257   2.633   2.785   8.394 -1.2745  0.2410  2.0122
  170SAPE  C22019258   2.589   2.578   8.377 -0.0386  1.0820 -0.2082
  170SAPE  H20R19259   2.680   2.539   8.327 -0.1958  0.6125 -0.1373
  170SAPE  H20S19260   2.498   2.527   8.338  0.3438  0.2369 -0.0198
  170SAPE  H20T19261   2.598   2.550   8.484 -2.0232 -1.1287 -0.5312
  170SAPE   C3319262   2.896   2.192   6.801 -0.1601  0.7046 -0.7454
  170SAPE   H3X19263   2.991   2.244   6.780  0.1203  0.8160  0.6950
  170SAPE   H3Y19264   2.890   2.105   6.733  1.0629  0.6918 -0.8519
  170SAPE   C3419265   2.892   2.108   6.936  0.1977 -0.5323  0.3391
  170SAPE   H4X19266   2.972   2.031   6.934 -0.4828 -1.2580 -1.5424
  170SAPE   H4Y19267   2.796   2.055   6.953  0.3446 -1.1705 -0.7404
  170SAPE   C3519268   2.917   2.206   7.056  0.6365 -0.1409 -0.6495
  170SAPE   H5X19269   2.824   2.266   7.067  1.6883  1.4080  0.2577
  170SAPE   H5Y19270   2.990   2.287   7.037 -0.1194  0.7224  0.0363
  170SAPE   C3619271   2.950   2.125   7.185  0.3427  0.4972 -0.1585
  170SAPE   H6X19272   3.042   2.065   7.169  0.2103  0.3771 -0.4672
  170SAPE   H6Y19273   2.880   2.040   7.198  3.0604 -1.7815  0.7688
  170SAPE   C3719274   2.973   2.200   7.321 -0.3484 -0.6961  0.0379
  170SAPE   H7X19275   2.886   2.269   7.321  0.3909  0.2546 -0.2022
  170SAPE   H7Y19276   3.069   2.253   7.302 -1.1718  0.4982 -0.9630
  170SAPE   C3819277   2.982   2.115   7.445 -1.6066  0.6053 -0.0146
  170SAPE   H8X19278   3.076   2.056   7.441 -2.0883 -0.5808  3.0502
  170SAPE   H8Y19279   2.896   2.045   7.452 -0.2668 -1.0894  0.4017
  170SAPE   C3919280   2.979   2.203   7.570 -0.2615  0.5931 -0.0354
  170SAPE   H9X19281   2.880   2.253   7.564  0.3499  1.6792 -4.1473
  170SAPE   H9Y19282   3.067   2.271   7.571 -1.2437  2.0000 -1.9291
  170SAPE  C31019283   2.973   2.107   7.691 -0.6340 -0.4192  0.1975
  170SAPE  H10X19284   3.079   2.073   7.692  0.0044  1.4887  0.4226
  170SAPE  H10Y19285   2.904   2.022   7.670 -0.7716  0.1467 -1.8518
  170SAPE  C31119286   2.946   2.178   7.821 -0.3192  0.3628  0.4877
  170SAPE  H11X19287   2.841   2.212   7.813 -0.1772  1.0896  1.4582
  170SAPE  H11Y19288   3.018   2.262   7.838 -1.8704  1.5815  1.2662
  170SAPE  C31219289   2.970   2.076   7.934 -0.3185  0.6692  0.5848
  170SAPE  H12X19290   3.065   2.028   7.902 -0.9890  0.7941 -1.7672
  170SAPE  H12Y19291   2.893   1.997   7.928 -0.6160  1.0465 -0.7556
  170SAPE  C31319292   2.968   2.133   8.073 -0.8603  0.7257 -0.0759
  170SAPE  H13X19293   2.888   2.209   8.087 -1.4884  0.3332 -1.3805
  170SAPE  H13Y19294   3.062   2.194   8.072 -1.2091  1.2997  0.9020
  170SAPE  C31419295   2.967   2.035   8.195 -0.3742 -0.5642  0.2182
  170SAPE  H14X19296   2.873   1.978   8.211 -1.8291  1.4731 -0.5691
  170SAPE  H14Y19297   2.978   2.101   8.284 -0.5494 -2.2862  1.5701
  170SAPE  C31519298   3.081   1.928   8.200  0.4247 -0.5623  0.5017
  170SAPE  H15X19299   3.181   1.973   8.215  0.6359  0.1027 -2.3114
  170SAPE  H15Y19300   3.091   1.865   8.109  2.3137 -2.7930  2.1112
  170SAPE  C31619301   3.050   1.826   8.306  0.2120  0.0447  0.6128
  170SAPE  H16X19302   2.952   1.783   8.276  0.5436 -0.9146  0.8663
  170SAPE  H16Y19303   3.028   1.878   8.402  1.0042  1.9271 -0.1691
  170SAPE  C31719304   3.157   1.721   8.319  0.2472 -0.3397 -0.4398
  170SAPE  H17X19305   3.257   1.760   8.345  0.6217 -2.2431  1.2130
  170SAPE  H17Y19306   3.174   1.665   8.224  2.0351  1.3501 -1.1828
  170SAPE  C31819307   3.134   1.626   8.433 -0.2884 -0.5154 -0.3623
  170SAPE  H18X19308   3.042   1.567   8.417  1.5442 -2.9841 -2.6701
  170SAPE  H18Y19309   3.136   1.669   8.536  1.3512 -0.7073 -0.2885
  170SAPE  H18Z19310   3.212   1.547   8.443 -0.0536 -0.3651 -0.9704
  171SAPE     N19311   5.000   4.028   6.179 -0.1937  0.3473 -0.4242
  171SAPE   HN119312   4.953   3.966   6.110 -1.6192 -0.9408  1.5884
  171SAPE   HN219313   4.972   4.125   6.153 -2.3174  0.4256  1.7492
  171SAPE   HN319314   5.102   4.020   6.164  0.0595 -1.4402  1.6681
  171SAPE   C1219315   4.945   3.993   6.315 -0.1143  0.4824  0.2467
  171SAPE  H12A19316   5.003   3.903   6.345 -0.9151 -0.3679 -0.6705
  171SAPE  H12B19317   4.839   3.964   6.296  0.2153 -0.3989 -0.3296
  171SAPE   C1119318   4.965   4.111   6.411  0.3064  0.5915 -0.3914
  171SAPE  H11A19319   5.070   4.148   6.403  0.1844  0.8526 -0.8636
  171SAPE  H11B19320   4.939   4.071   6.511 -1.5446 -0.0643 -1.0998
  171SAPE     P19321   4.727   4.228   6.402 -0.1769 -0.5160  0.0006
  171SAPE   O1319322   4.693   4.370   6.421 -0.2159 -0.4940  0.2416
  171SAPE   O1419323   4.668   4.154   6.288  0.1392 -0.0256  0.2557
  171SAPE   O1219324   4.886   4.228   6.374  0.5958  0.6576 -0.1491
  171SAPE   O1119325   4.711   4.157   6.545  0.7419  0.3368  0.5549
  171SAPE    C119326   4.719   4.229   6.665  0.2649 -0.0569  0.0819
  171SAPE    HA19327   4.829   4.232   6.683  0.5689 -0.0248 -1.5991
  171SAPE    HB19328   4.673   4.330   6.658 -2.3467 -1.1295  0.5566
  171SAPE    C219329   4.651   4.168   6.788  0.3571 -0.1368 -0.3923
  171SAPE    HS19330   4.685   4.227   6.876 -0.5452  1.4069 -1.0305
  171SAPE   O2119331   4.687   4.025   6.795 -0.1350  0.5209 -0.3977
  171SAPE   C2119332   4.699   3.980   6.919  1.1252  0.2797 -0.1967
  171SAPE   O2219333   4.683   4.038   7.024  0.2933 -0.1140  0.2518
  171SAPE   C2219334   4.769   3.848   6.904  0.0342  0.1288 -0.5677
  171SAPE   H2R19335   4.843   3.863   6.822 -0.1404 -1.3448 -1.0195
  171SAPE   H2S19336   4.815   3.818   7.000 -1.2522 -1.4191 -0.4015
  171SAPE    C319337   4.491   4.174   6.784 -0.0841  0.4738 -0.0826
  171SAPE    HX19338   4.454   4.133   6.687 -0.7716  2.7495 -0.8427
  171SAPE    HY19339   4.464   4.281   6.776 -0.1309  0.5016  0.4477
  171SAPE   O3119340   4.422   4.112   6.894  0.4589  0.2839  0.1635
  171SAPE   C3119341   4.416   4.185   7.011 -0.1100  0.2312  0.4565
  171SAPE   O3219342   4.476   4.287   7.033  0.3533 -0.5151  0.5668
  171SAPE   C3219343   4.318   4.113   7.103 -0.0457  0.3686 -0.6717
  171SAPE   H2X19344   4.218   4.132   7.060 -0.6114 -1.3700 -0.1840
  171SAPE   H2Y19345   4.331   4.163   7.202  0.9167 -1.5240  0.2288
  171SAPE   C2319346   4.677   3.738   6.859 -0.2763  0.2385  0.4441
  171SAPE   H3R19347   4.735   3.670   6.792 -0.1857  1.6143 -0.9134
  171SAPE   H3S19348   4.596   3.780   6.796 -1.8389 -1.2695  1.3516
  171SAPE   C2419349   4.624   3.645   6.967  0.5800 -0.1268 -0.8126
  171SAPE   H4R19350   4.561   3.563   6.925 -0.6086  0.5002 -0.3081
  171SAPE   H4S19351   4.551   3.701   7.030 -0.1578 -0.6098 -1.2172
  171SAPE   C2519352   4.738   3.576   7.045 -0.2614  0.8714 -0.4117
  171SAPE   H5R19353   4.807   3.518   6.983 -1.3989  2.0339 -2.9441
  171SAPE   C2619354   4.767   3.581   7.176  0.5430 -0.2559  0.5720
  171SAPE   H6R19355   4.856   3.530   7.217  0.8505  0.0485  0.2909
  171SAPE   C2719356   4.685   3.653   7.281  0.7094 -0.2515  0.3859
  171SAPE   H7R19357   4.620   3.725   7.228  2.3153 -0.5443 -2.2111
  171SAPE   H7S19358   4.750   3.723   7.338 -1.6454  3.1029 -0.7348
  171SAPE   C2819359   4.603   3.568   7.374 -0.1617  0.0981  1.0730
  171SAPE   H8R19360   4.556   3.478   7.334 -0.1626 -0.2742  1.8838
  171SAPE   C2919361   4.564   3.593   7.502  0.4097 -0.4851  0.5526
  171SAPE   H9R19362   4.498   3.519   7.549 -0.9757  0.0136 -0.5418
  171SAPE  C21019363   4.588   3.711   7.587  0.5016 -0.2548 -0.4612
  171SAPE  H10R19364   4.494   3.748   7.633  1.8794  0.4966  1.9700
  171SAPE  H10S19365   4.615   3.797   7.523  0.2000  0.2302  0.0522
  171SAPE  C21119366   4.697   3.678   7.695  0.4882 -0.4494 -0.0364
  171SAPE  H11R19367   4.777   3.612   7.660  0.2531 -0.5330 -0.4240
  171SAPE  C21219368   4.696   3.717   7.826  0.6782  0.3695  0.3647
  171SAPE  H12R19369   4.778   3.676   7.886  0.8749 -1.0106 -0.8150
  171SAPE  C21319370   4.585   3.801   7.882 -0.3958 -0.5995 -0.7632
  171SAPE  H13R19371   4.508   3.831   7.806  0.4336  0.8046 -1.0865
  171SAPE  H13S19372   4.619   3.892   7.935  1.3114 -0.6153 -1.7530
  171SAPE  C21419373   4.510   3.725   7.986  0.3986 -0.0233 -0.2362
  171SAPE  H14R19374   4.437   3.653   7.945 -0.8540  1.0537  0.0262
  171SAPE  C21519375   4.532   3.727   8.120 -0.1181 -0.3710 -0.0532
  171SAPE  H15R19376   4.473   3.661   8.186  0.1127 -0.8427 -0.3122
  171SAPE  C21619377   4.626   3.806   8.202 -0.7465 -0.4150  0.1762
  171SAPE  H16R19378   4.559   3.837   8.285 -0.6386  1.8500 -0.5255
  171SAPE  H16S19379   4.658   3.896   8.145  0.8769 -1.2461 -0.2854
  171SAPE  C21719380   4.752   3.728   8.249  0.0807 -0.1502  0.3956
  171SAPE  H17R19381   4.807   3.702   8.156 -0.9537 -2.0499  0.2636
  171SAPE  H17S19382   4.722   3.634   8.298 -0.7120  0.0127  0.2356
  171SAPE  C21819383   4.840   3.808   8.342  0.1972  0.9906  0.0333
  171SAPE  H18R19384   4.789   3.822   8.439  0.3793 -2.8960  0.8267
  171SAPE  H18S19385   4.851   3.908   8.295  0.2295 -0.4851 -3.4177
  171SAPE  C21919386   4.973   3.741   8.345  1.2639  0.2119 -0.1771
  171SAPE  H19R19387   5.061   3.805   8.368  2.4628 -2.2960  2.9532
  171SAPE  H19S19388   4.996   3.690   8.249  1.1834 -0.4440  0.1435
  171SAPE  C22019389   4.991   3.645   8.460 -0.8405  0.3964 -0.4881
  171SAPE  H20R19390   5.087   3.589   8.457 -1.2894 -0.3471 -1.3240
  171SAPE  H20S19391   4.905   3.575   8.455 -1.3332  1.0679 -2.4762
  171SAPE  H20T19392   4.984   3.704   8.554  1.4909  2.9303 -1.7792
  171SAPE   C3319393   4.327   3.962   7.125 -0.4258 -0.5056 -0.1788
  171SAPE   H3X19394   4.428   3.955   7.171  0.8408  1.4840 -2.4383
  171SAPE   H3Y19395   4.338   3.931   7.019 -0.3131  0.7074 -0.5368
  171SAPE   C3419396   4.211   3.906   7.202  0.0699 -0.0610  0.1141
  171SAPE   H4X19397   4.215   3.798   7.177 -0.0900 -0.2383  0.8067
  171SAPE   H4Y19398   4.111   3.946   7.173 -0.5743 -0.6293  1.4362
  171SAPE   C3519399   4.226   3.937   7.345 -0.5728  0.9470  0.2209
  171SAPE   H5X19400   4.237   4.045   7.368 -2.8136  1.1065  0.8410
  171SAPE   H5Y19401   4.318   3.890   7.384 -1.0135 -0.6271 -0.5521
  171SAPE   C3619402   4.109   3.905   7.442 -0.5721  0.0443  0.1769
  171SAPE   H6X19403   4.107   3.795   7.456 -0.4403 -0.1131 -0.9153
  171SAPE   H6Y19404   4.017   3.932   7.387 -0.4689 -1.7394 -0.9697
  171SAPE   C3719405   4.114   3.960   7.582 -0.6688 -0.6523  0.0420
  171SAPE   H7X19406   4.016   3.931   7.625 -1.4124 -0.4160 -1.4349
  171SAPE   H7Y19407   4.111   4.071   7.581 -0.4329 -0.6454 -0.1674
  171SAPE   C3819408   4.229   3.913   7.668  0.2678 -0.0479  0.2468
  171SAPE   H8X19409   4.321   3.954   7.620 -0.8356  2.0174 -0.2251
  171SAPE   H8Y19410   4.236   3.803   7.674  0.9860 -0.0330 -0.2131
  171SAPE   C3919411   4.235   3.952   7.819  0.5071 -0.2506  0.2014
  171SAPE   H9X19412   4.182   4.050   7.814  2.9648  1.1005 -2.4024
  171SAPE   H9Y19413   4.337   3.979   7.855  0.2330  0.8357  0.2193
  171SAPE  C31019414   4.163   3.847   7.908  0.1229 -0.3412 -0.5862
  171SAPE  H10X19415   4.185   3.738   7.911  0.6245 -0.2395 -0.5130
  171SAPE  H10Y19416   4.066   3.846   7.854 -0.7144  1.0681  0.8125
  171SAPE  C31119417   4.131   3.903   8.051  0.4757  0.0669 -0.0679
  171SAPE  H11X19418   4.047   3.839   8.085  1.1850 -2.9236 -3.2951
  171SAPE  H11Y19419   4.107   4.011   8.043  2.3972  0.5668  0.4619
  171SAPE  C31219420   4.245   3.900   8.157  0.5801 -0.2056  0.4907
  171SAPE  H12X19421   4.321   3.961   8.104  0.8881 -2.3313 -1.6823
  171SAPE  H12Y19422   4.291   3.800   8.170 -0.5296 -0.7709  0.1955
  171SAPE  C31319423   4.206   3.972   8.289 -0.3790 -0.3348  0.9543
  171SAPE  H13X19424   4.154   3.900   8.356  0.5688 -1.2268  0.7616
  171SAPE  H13Y19425   4.145   4.062   8.267  1.6113  1.1936  1.3179
  171SAPE  C31419426   4.330   4.018   8.367 -0.3533 -0.0175  0.1828
  171SAPE  H14X19427   4.286   4.108   8.416 -1.6619  0.7726 -2.2590
  171SAPE  H14Y19428   4.404   4.052   8.291  0.2291 -2.9212 -0.6405
  171SAPE  C31519429   4.372   3.921   8.468 -0.0669 -0.6281  0.1763
  171SAPE  H15X19430   4.378   3.822   8.418  2.1705 -0.3502 -0.2237
  171SAPE  H15Y19431   4.286   3.917   8.538 -0.0689  2.3432  0.4839
  171SAPE  C31619432   4.502   3.960   8.542  0.2634 -0.7057 -0.0960
  171SAPE  H16X19433   4.509   4.064   8.581  3.8631 -0.8540 -0.0241
  171SAPE  H16Y19434   4.583   3.940   8.469  0.5373  0.1191 -0.0296
  171SAPE  C31719435   4.524   3.857   8.654  0.5964 -0.6035 -0.3188
  171SAPE  H17X19436   4.537   3.753   8.618  2.6755 -1.1813  1.7971
  171SAPE  H17Y19437   4.430   3.866   8.713  0.1939  2.1774 -1.2338
  171SAPE  C31819438   4.640   3.898   8.746 -0.0793 -0.3349  0.0950
  171SAPE  H18X19439   4.622   3.845   8.841 -1.3204  0.9793  0.6370
  171SAPE  H18Y19440   4.635   4.005   8.777  0.1329 -0.2350 -0.2063
  171SAPE  H18Z19441   4.738   3.882   8.697 -0.1049  2.1508 -0.9378
  172SAPE     N19442   0.258   2.918   6.381 -0.9863  0.1995 -0.1372
  172SAPE   HN119443   0.355   2.927   6.418 -0.5436 -0.4137 -1.1061
  172SAPE   HN219444   0.223   2.822   6.365  1.4844 -0.5128 -1.8955
  172SAPE   HN319445   0.260   2.969   6.290  0.4978 -0.7634 -0.6846
  172SAPE   C1219446   0.175   3.015   6.459 -0.6084  0.5498  0.6527
  172SAPE  H12A19447   0.221   3.115   6.476 -2.2066  1.5713 -0.7157
  172SAPE  H12B19448   0.167   2.964   6.557  0.2218 -0.6268  0.1449
  172SAPE   C1119449   0.030   3.009   6.403  0.3652  0.2650 -0.0853
  172SAPE  H11A19450  -0.006   2.913   6.444  3.5483 -0.6341  0.8676
  172SAPE  H11B19451   0.028   3.002   6.292  2.5608 -0.1064 -0.1349
  172SAPE     P19452  -0.207   3.119   6.444 -0.0246 -0.4373  0.2911
  172SAPE   O1319453  -0.245   3.264   6.438 -0.2531 -0.1254  0.3430
  172SAPE   O1419454  -0.241   3.046   6.323  0.4321  0.1428  0.1758
  172SAPE   O1219455  -0.041   3.110   6.461  0.3611  0.1217 -0.7596
  172SAPE   O1119456  -0.272   3.052   6.576  0.1137  0.1161 -0.0813
  172SAPE    C119457  -0.191   2.979   6.671  0.2112  0.3552 -0.1155
  172SAPE    HA19458  -0.098   2.940   6.624  0.2480 -0.8806  0.9329
  172SAPE    HB19459  -0.174   3.051   6.754 -0.5548 -1.2331  1.4876
  172SAPE    C219460  -0.255   2.853   6.734 -0.5200 -0.0505 -0.4691
  172SAPE    HS19461  -0.176   2.779   6.759 -2.9618 -2.7682 -0.3568
  172SAPE   O2119462  -0.354   2.786   6.647 -0.8242  0.1880 -0.2605
  172SAPE   C2119463  -0.302   2.754   6.530 -0.0414 -0.3328 -0.5857
  172SAPE   O2219464  -0.186   2.754   6.494 -0.3569  0.6263  0.3490
  172SAPE   C2219465  -0.419   2.734   6.437 -0.7332  0.9168 -0.4619
  172SAPE   H2R19466  -0.511   2.746   6.498 -0.3975  0.4702  0.1532
  172SAPE   H2S19467  -0.419   2.814   6.360 -2.0633  0.0985 -1.3564
  172SAPE    C319468  -0.320   2.885   6.877 -0.2958 -0.4321  0.1439
  172SAPE    HX19469  -0.347   2.781   6.906  1.9073 -1.4394 -1.2137
  172SAPE    HY19470  -0.411   2.948   6.871  0.6840  1.0111  0.2003
  172SAPE   O3119471  -0.214   2.932   6.967  0.2603  0.2276  0.3404
  172SAPE   C3119472  -0.265   2.927   7.091 -0.2918 -0.1622 -0.0409
  172SAPE   O3219473  -0.374   2.884   7.123  0.2479  0.1852  0.0269
  172SAPE   C3219474  -0.162   2.990   7.187 -0.1716  0.0129  0.7404
  172SAPE   H2X19475  -0.072   3.001   7.123 -1.7703  2.2394 -1.2910
  172SAPE   H2Y19476  -0.144   2.922   7.273  0.6181 -2.1408 -1.0389
  172SAPE   C2319477  -0.414   2.597   6.372 -0.5043  0.3425  0.0298
  172SAPE   H3R19478  -0.327   2.587   6.304 -0.4750  2.2956 -0.2869
  172SAPE   H3S19479  -0.505   2.574   6.312  0.6974 -1.0104 -1.3716
  172SAPE   C2419480  -0.403   2.483   6.467  0.0083  0.4165 -0.6309
  172SAPE   H4R19481  -0.314   2.492   6.533 -0.1281  0.0835 -0.3985
  172SAPE   H4S19482  -0.383   2.393   6.405  0.3310 -0.5627  0.8600
  172SAPE   C2519483  -0.532   2.474   6.549 -0.5252  0.6804  0.2021
  172SAPE   H5R19484  -0.623   2.478   6.488  1.0030 -1.1163 -2.4312
  172SAPE   C2619485  -0.552   2.442   6.676  0.5093 -0.3307 -0.2257
  172SAPE   H6R19486  -0.657   2.438   6.711  0.0330  1.2745 -1.3617
  172SAPE   C2719487  -0.454   2.410   6.782  0.7146 -0.2239 -0.4017
  172SAPE   H7R19488  -0.363   2.361   6.741  0.9078  1.1534 -1.7160
  172SAPE   H7S19489  -0.488   2.328   6.848  0.3608 -0.4167 -0.8179
  172SAPE   C2819490  -0.418   2.516   6.878  0.8706  0.6586 -0.2300
  172SAPE   H8R19491  -0.483   2.604   6.891  1.1881  0.4639  4.3549
  172SAPE   C2919492  -0.313   2.508   6.961  0.3609  0.5024 -0.0108
  172SAPE   H9R19493  -0.311   2.577   7.046 -2.0104 -0.2086  0.7039
  172SAPE  C21019494  -0.217   2.395   6.962  0.2116 -0.0088  0.7242
  172SAPE  H10R19495  -0.198   2.357   6.859  0.2591  0.1529  0.6727
  172SAPE  H10S19496  -0.248   2.303   7.017  0.5776 -0.8669 -0.4594
  172SAPE  C21119497  -0.084   2.426   7.033  0.0305 -0.8529  0.0412
  172SAPE  H11R19498  -0.078   2.535   7.049  0.5053 -0.8724  0.0124
  172SAPE  C21219499   0.018   2.352   7.074  0.0208 -0.4792  0.2037
  172SAPE  H12R19500   0.107   2.403   7.114  0.6475 -2.0456  0.8969
  172SAPE  C21319501   0.024   2.201   7.054 -0.3632 -0.5456  0.5212
  172SAPE  H13R19502   0.039   2.191   6.945 -1.8276  0.0472  0.2430
  172SAPE  H13S19503  -0.074   2.151   7.071 -1.4732  1.0431 -0.8160
  172SAPE  C21419504   0.137   2.123   7.124  0.0559 -0.6610 -0.7617
  172SAPE  H14R19505   0.198   2.062   7.055  1.1861 -0.2892 -0.1188
  172SAPE  C21519506   0.172   2.120   7.251 -0.4532 -0.0512 -0.0584
  172SAPE  H15R19507   0.257   2.058   7.282 -0.8023 -0.3151  0.3947
  172SAPE  C21619508   0.110   2.197   7.363 -0.8296 -0.0664  1.0186
  172SAPE  H16R19509   0.108   2.307   7.345 -0.2276  0.3611  3.2766
  172SAPE  H16S19510   0.174   2.192   7.453 -0.4161 -0.2489  0.7176
  172SAPE  C21719511  -0.030   2.139   7.401 -0.2613 -0.1019 -0.7949
  172SAPE  H17R19512  -0.087   2.109   7.311 -0.2848 -3.6267  0.2454
  172SAPE  H17S19513  -0.075   2.221   7.461  0.6993 -1.7388  2.4310
  172SAPE  C21819514  -0.031   2.012   7.494  0.2013 -0.8951  0.0060
  172SAPE  H18R19515   0.036   1.932   7.454  0.0228 -0.7730 -0.5524
  172SAPE  H18S19516  -0.137   1.980   7.500 -0.1387  0.0971 -0.4654
  172SAPE  C21919517   0.024   2.045   7.631 -0.4752 -0.9983 -0.2158
  172SAPE  H19R19518  -0.026   2.128   7.686 -1.0614 -0.2494 -1.8253
  172SAPE  H19S19519   0.130   2.075   7.624 -0.8952  1.5813  2.2697
  172SAPE  C22019520   0.034   1.923   7.723 -0.1763  0.2141 -0.5383
  172SAPE  H20R19521  -0.070   1.892   7.744  0.1931 -0.0888  0.9271
  172SAPE  H20S19522   0.101   1.934   7.811  0.1087  0.6959 -0.8098
  172SAPE  H20T19523   0.080   1.846   7.657  2.2754  0.4433  0.7831
  172SAPE   C3319524  -0.222   3.129   7.223  0.6698 -0.0785  0.0561
  172SAPE   H3X19525  -0.323   3.119   7.268  0.6201  0.5858  0.0986
  172SAPE   H3Y19526  -0.232   3.179   7.124  0.9726 -0.4414 -0.1599
  172SAPE   C3419527  -0.126   3.214   7.299  0.0241 -0.6353 -0.3521
  172SAPE   H4X19528  -0.160   3.319   7.315 -1.5913 -1.2803  0.6378
  172SAPE   H4Y19529  -0.029   3.217   7.244  0.0677  1.1245 -0.2599
  172SAPE   C3519530  -0.097   3.156   7.438  0.7258  0.4924 -0.3712
  172SAPE   H5X19531  -0.019   3.222   7.484  0.9591  2.0749 -2.8389
  172SAPE   H5Y19532  -0.063   3.051   7.430  1.3521  0.4641  2.0605
  172SAPE   C3619533  -0.216   3.145   7.542  0.1344 -0.5417  0.5865
  172SAPE   H6X19534  -0.282   3.065   7.501  2.8197 -2.7692  0.2606
  172SAPE   H6Y19535  -0.274   3.239   7.545  0.0752 -0.5524  0.0328
  172SAPE   C3719536  -0.169   3.108   7.681 -0.1637 -0.9742  0.1354
  172SAPE   H7X19537  -0.093   3.182   7.712 -0.6862 -0.5160  0.3351
  172SAPE   H7Y19538  -0.109   3.014   7.686 -0.0860 -0.8470  2.4975
  172SAPE   C3819539  -0.285   3.114   7.784 -0.2234 -0.8619 -0.3265
  172SAPE   H8X19540  -0.359   3.037   7.755 -0.5696  0.5986 -3.7508
  172SAPE   H8Y19541  -0.329   3.215   7.772 -0.0025 -0.6044  0.8903
  172SAPE   C3919542  -0.226   3.093   7.923  0.1827  0.8353 -0.3238
  172SAPE   H9X19543  -0.178   3.190   7.949 -0.6205  0.5495  2.6333
  172SAPE   H9Y19544  -0.154   3.009   7.931  0.2269  0.9594  0.9072
  172SAPE  C31019545  -0.336   3.052   8.032 -0.7282 -0.2493 -0.0287
  172SAPE  H10X19546  -0.389   2.956   8.009 -1.1349 -0.3222  1.1695
  172SAPE  H10Y19547  -0.420   3.125   8.028  1.0955  1.9187 -2.3290
  172SAPE  C31119548  -0.294   3.047   8.184  1.1102  0.4257  0.8961
  172SAPE  H11X19549  -0.214   2.974   8.211 -1.7112 -2.6613  1.6054
  172SAPE  H11Y19550  -0.382   3.010   8.240 -0.0159  1.8677  0.1395
  172SAPE  C31219551  -0.247   3.177   8.241 -0.7455 -0.6115  0.5255
  172SAPE  H12X19552  -0.328   3.247   8.210 -1.7693 -2.6141 -1.6744
  172SAPE  H12Y19553  -0.156   3.206   8.185 -0.4613 -1.3883  0.5811
  172SAPE  C31319554  -0.208   3.172   8.386  0.2714 -0.0416 -0.3711
  172SAPE  H13X19555  -0.136   3.255   8.403  1.4956 -1.1580  0.0501
  172SAPE  H13Y19556  -0.168   3.074   8.419 -0.7195  0.2695  1.9924
  172SAPE  C31419557  -0.323   3.196   8.490  0.3528 -0.4497  0.3146
  172SAPE  H14X19558  -0.304   3.139   8.583 -0.1880 -1.8497 -0.3956
  172SAPE  H14Y19559  -0.417   3.152   8.448 -1.4881  3.2138  0.1568
  172SAPE  C31519560  -0.354   3.345   8.507  0.0352  0.1841 -0.5731
  172SAPE  H15X19561  -0.368   3.395   8.409  0.8247 -0.3478 -0.9603
  172SAPE  H15Y19562  -0.271   3.399   8.557 -0.4614  0.3171  0.1271
  172SAPE  C31619563  -0.491   3.366   8.578 -0.4624 -0.2732 -0.6613
  172SAPE  H16X19564  -0.499   3.472   8.610  0.3163 -0.2632 -0.5027
  172SAPE  H16Y19565  -0.485   3.315   8.676  0.9264  0.6931 -0.2210
  172SAPE  C31719566  -0.624   3.334   8.499  0.3544  0.3955  0.3394
  172SAPE  H17X19567  -0.636   3.223   8.497 -0.7588  0.5053  0.5595
  172SAPE  H17Y19568  -0.616   3.361   8.391 -1.0270 -2.4408 -0.5859
  172SAPE  C31819569  -0.746   3.399   8.572 -0.4180  0.5927 -0.3851
  172SAPE  H18X19570  -0.719   3.506   8.578 -0.5370  0.6344 -0.5990
  172SAPE  H18Y19571  -0.759   3.363   8.677  1.8423 -0.1301 -0.3108
  172SAPE  H18Z19572  -0.840   3.387   8.513 -0.0761  1.9510 -1.2345
  173SOPE     N19573   5.887   1.162  11.060  0.2433  0.0658  0.3391
  173SOPE   HN119574   5.792   1.200  11.038 -1.2292 -3.0193  0.8409
  173SOPE   HN219575   5.870   1.065  11.095 -0.5997  0.5112  1.2261
  173SOPE   HN319576   5.918   1.212  11.146  2.4099  1.4818 -1.1949
  173SOPE   C1219577   5.980   1.159  10.943  0.0980  0.1678 -0.0578
  173SOPE  H12A19578   6.026   1.258  10.922 -0.2051 -0.0862 -2.1381
  173SOPE  H12B19579   5.921   1.123  10.856 -0.9716 -0.5896  0.9553
  173SOPE   C1119580   6.088   1.049  10.963  1.1444 -0.2999 -0.5055
  173SOPE  H11A19581   6.160   1.069  11.046  1.1272  1.3265 -0.8492
  173SOPE  H11B19582   6.150   1.050  10.871  0.2356  2.2217 -1.1671
  173SOPE     P19583   6.084   0.780  11.027  0.1376  0.0825  0.0836
  173SOPE   O1319584   5.974   0.680  11.032 -0.1055 -0.0496  0.5119
  173SOPE   O1419585   6.160   0.804  11.151 -0.5462 -0.3152  0.5317
  173SOPE   O1219586   6.031   0.919  10.981 -0.1378 -0.1741 -0.1791
  173SOPE   O1119587   6.191   0.746  10.917  0.2427  0.8413 -0.6298
  173SOPE    C119588   6.152   0.763  10.776  0.1569 -0.1177 -0.7262
  173SOPE    HA19589   6.086   0.848  10.747  1.1714  0.7623 -0.5173
  173SOPE    HB19590   6.091   0.672  10.755 -0.6081  0.3165 -0.4561
  173SOPE    C219591   6.265   0.763  10.679 -0.4054 -0.0082  0.1237
  173SOPE    HS19592   6.229   0.767  10.574  0.1364  0.0281 -0.0606
  173SOPE   O2119593   6.357   0.655  10.697 -0.0908 -0.2721  0.1138
  173SOPE   C2119594   6.315   0.550  10.634  0.4277  0.1741  0.8148
  173SOPE   O2219595   6.217   0.540  10.560 -0.2874 -0.5049 -0.4197
  173SOPE   C2219596   6.430   0.437  10.646  0.0891 -0.6139  0.1735
  173SOPE   H2R19597   6.432   0.410  10.753 -1.3639  0.4675  0.4994
  173SOPE   H2S19598   6.531   0.478  10.622  1.0402 -1.7845  1.9943
  173SOPE    C319599   6.348   0.891  10.707  0.5679 -0.6087  0.0801
  173SOPE    HX19600   6.387   0.888  10.811 -0.5127  0.0708  0.5211
  173SOPE    HY19601   6.281   0.979  10.694  0.1937 -0.8917  0.0578
  173SOPE   O3119602   6.455   0.904  10.615  0.3058 -0.1762 -0.1332
  173SOPE   C3119603   6.542   0.997  10.660 -0.2002 -1.1424 -0.9943
  173SOPE   O3219604   6.521   1.076  10.753 -0.1057  0.0647 -0.0824
  173SOPE   C3219605   6.670   0.999  10.578  0.3275  0.2114  0.2450
  173SOPE   H2X19606   6.731   0.910  10.603  0.5277 -0.4318 -2.2454
  173SOPE   H2Y19607   6.718   1.095  10.607 -0.6586  0.6057  0.6249
  173SOPE   C2319608   6.408   0.311  10.557 -0.0114  0.8888  0.0269
  173SOPE   H3R19609   6.306   0.266  10.558  0.4510 -0.4293 -2.8423
  173SOPE   H3S19610   6.481   0.234  10.587 -1.6519 -0.0704  1.7657
  173SOPE   C2419611   6.419   0.339  10.405 -0.5104 -0.9939  0.1273
  173SOPE   H4R19612   6.414   0.253  10.334  1.9358 -0.5981 -0.6453
  173SOPE   H4S19613   6.328   0.396  10.378  0.0447 -0.2408 -0.2085
  173SOPE   C2519614   6.550   0.414  10.377 -0.4856 -0.6229  0.2467
  173SOPE   H5R19615   6.541   0.517  10.416 -0.2794  0.0136 -1.3377
  173SOPE   H5S19616   6.636   0.366  10.428  1.0704  1.3008 -0.4523
  173SOPE   C2619617   6.575   0.441  10.231 -0.3556 -0.2685 -0.1864
  173SOPE   H6R19618   6.656   0.517  10.223 -0.0277 -0.7400 -1.7849
  173SOPE   H6S19619   6.615   0.351  10.179 -1.7402 -1.2347  0.3777
  173SOPE   C2719620   6.461   0.507  10.158  0.1564  0.3727 -0.7345
  173SOPE   H7R19621   6.369   0.448  10.171  0.2168 -0.0192 -1.9359
  173SOPE   H7S19622   6.442   0.610  10.195 -0.3727  1.0703 -2.7799
  173SOPE   C2819623   6.487   0.510  10.002  0.3834  0.5879  0.0732
  173SOPE   H8R19624   6.490   0.409   9.956 -0.9179  0.0253  1.1538
  173SOPE   H8S19625   6.398   0.563   9.962 -2.0166 -1.8076  1.8555
  173SOPE   C2919626   6.598   0.598   9.976 -0.0172  0.1879  0.1802
  173SOPE   H9119627   6.624   0.675  10.050 -0.9440  2.3634 -1.6300
  173SOPE  C21019628   6.678   0.583   9.864  0.6021 -0.9603 -0.0893
  173SOPE  H10119629   6.758   0.658   9.862 -0.5033  0.3167  1.0960
  173SOPE  C21119630   6.668   0.484   9.753 -0.0486  0.0478  0.2305
  173SOPE  H11R19631   6.589   0.407   9.768 -1.0341  1.0929  0.5258
  173SOPE  H11S19632   6.761   0.424   9.740 -0.1094  0.1663 -0.9290
  173SOPE  C21219633   6.657   0.559   9.622  0.2445 -0.2663 -1.3932
  173SOPE  H12R19634   6.749   0.622   9.622  0.5995 -0.6680  1.0274
  173SOPE  H12S19635   6.565   0.622   9.621  1.0044  1.1222  1.6747
  173SOPE  C21319636   6.669   0.459   9.510 -0.0519  0.4502  0.1003
  173SOPE  H13R19637   6.620   0.361   9.530 -2.2555  2.0141  3.1677
  173SOPE  H13S19638   6.779   0.455   9.497 -0.0184  1.1628  0.1271
  173SOPE  C21419639   6.628   0.515   9.373  0.3356 -0.0814  0.2905
  173SOPE  H14R19640   6.653   0.623   9.370  1.7868 -0.3624  1.3936
  173SOPE  H14S19641   6.517   0.509   9.374  0.2182  1.4175 -0.7090
  173SOPE  C21519642   6.680   0.425   9.264  0.2505 -0.5164 -0.2096
  173SOPE  H15R19643   6.644   0.321   9.282  0.6955 -0.8007 -0.9024
  173SOPE  H15S19644   6.790   0.423   9.273  0.2309 -1.4351 -0.0848
  173SOPE  C21619645   6.659   0.483   9.121 -0.2703  0.8799 -0.3561
  173SOPE  H16R19646   6.703   0.584   9.109  3.2678 -0.4237  0.2486
  173SOPE  H16S19647   6.550   0.484   9.102  0.1461  0.3153 -3.4545
  173SOPE  C21719648   6.722   0.397   9.006  0.0554  0.0273  0.7238
  173SOPE  H17R19649   6.686   0.293   9.024 -2.1023  0.5150 -0.4762
  173SOPE  H17S19650   6.833   0.400   9.005  0.0309  1.6345  0.8528
  173SOPE  C21819651   6.687   0.439   8.866 -0.0123 -0.0956  0.4805
  173SOPE  H18R19652   6.753   0.379   8.800  0.6518 -0.2122  1.2313
  173SOPE  H18S19653   6.707   0.546   8.843 -0.3854 -0.3867 -1.2704
  173SOPE  H18T19654   6.582   0.414   8.840 -0.6214  4.4095 -2.7049
  173SOPE   C3319655   6.642   1.016  10.429 -0.1769  0.0260 -0.4555
  173SOPE   H3X19656   6.734   1.048  10.376  0.2377  2.7741  1.7145
  173SOPE   H3Y19657   6.568   1.097  10.412 -0.5416  0.4669  2.6300
  173SOPE   C3419658   6.594   0.888  10.351  0.1807  0.5980  0.0354
  173SOPE   H4X19659   6.501   0.842  10.391 -1.2334  1.1168 -2.4803
  173SOPE   H4Y19660   6.669   0.807  10.361 -0.7303 -0.1810  0.7898
  173SOPE   C3519661   6.571   0.926  10.203  0.7483  0.3750 -0.0517
  173SOPE   H5X19662   6.500   1.009  10.182 -0.9615 -1.0432 -0.1189
  173SOPE   H5Y19663   6.529   0.836  10.152  0.1011  0.3939  0.4278
  173SOPE   C3619664   6.698   0.956  10.111  0.1242  0.6021  0.6405
  173SOPE   H6X19665   6.759   0.863  10.109 -2.2786 -1.0990  1.2917
  173SOPE   H6Y19666   6.753   1.042  10.155 -0.8625  0.8417  1.4492
  173SOPE   C3719667   6.656   0.988   9.961 -0.6787  0.3132 -0.4898
  173SOPE   H7X19668   6.575   0.920   9.928 -2.2701  1.6565  0.4987
  173SOPE   H7Y19669   6.753   0.969   9.911  0.6882  1.7261  1.4509
  173SOPE   C3819670   6.608   1.130   9.943  0.2200  0.0101  0.4691
  173SOPE   H8X19671   6.686   1.200   9.982  0.8212  1.2440 -2.6454
  173SOPE   H8Y19672   6.514   1.148  10.000  1.1891  0.3661  2.0270
  173SOPE   C3919673   6.597   1.167   9.795  0.1732  0.2839 -0.4802
  173SOPE   H9X19674   6.580   1.277   9.789  4.6659  1.1123 -1.8254
  173SOPE   H9Y19675   6.505   1.123   9.752 -0.3453  2.3411 -1.6333
  173SOPE  C31019676   6.727   1.130   9.717  0.0142 -0.3221  0.1144
  173SOPE  H10X19677   6.715   1.022   9.696  0.4064 -0.1462 -1.1098
  173SOPE  H10Y19678   6.817   1.148   9.779 -0.7899 -1.9319  1.8617
  173SOPE  C31119679   6.740   1.204   9.585  0.6118  0.2430 -0.2525
  173SOPE  H11X19680   6.846   1.190   9.552  0.0646 -0.2251 -1.9009
  173SOPE  H11Y19681   6.709   1.308   9.608  4.1417  1.1153  1.3913
  173SOPE  C31219682   6.641   1.148   9.474 -0.5523 -0.0797  0.0595
  173SOPE  H12X19683   6.609   1.233   9.411  1.5391  1.5825  1.1367
  173SOPE  H12Y19684   6.551   1.106   9.525 -2.3740  3.1742 -0.2243
  173SOPE  C31319685   6.708   1.035   9.392  0.3170 -0.8976  0.6124
  173SOPE  H13X19686   6.627   0.972   9.350 -2.7956  0.9680  3.2613
  173SOPE  H13Y19687   6.770   0.977   9.464  4.1602  2.8745  0.7542
  173SOPE  C31419688   6.795   1.091   9.276  0.2987 -0.1861  0.2268
  173SOPE  H14X19689   6.903   1.086   9.300  0.5692 -0.8855 -1.0455
  173SOPE  H14Y19690   6.770   1.198   9.254 -0.4470 -0.3184  0.3915
  173SOPE  C31519691   6.765   1.013   9.141  0.1755 -0.4459 -0.6129
  173SOPE  H15X19692   6.656   1.022   9.122  0.2033 -0.1714 -0.6388
  173SOPE  H15Y19693   6.780   0.904   9.158  1.1998 -0.6089 -2.3157
  173SOPE  C31619694   6.847   1.064   9.029 -0.6090  0.6094  0.1067
  173SOPE  H16X19695   6.936   0.999   9.014 -1.0339 -0.0159  0.2424
  173SOPE  H16Y19696   6.896   1.160   9.056  0.5855 -0.3641  1.5448
  173SOPE  C31719697   6.768   1.059   8.900 -0.5344  0.1662  0.0002
  173SOPE  H17X19698   6.827   1.095   8.813 -2.2652  3.4600  0.0478
  173SOPE  H17Y19699   6.684   1.131   8.908 -1.0887 -0.0459 -2.8469
  173SOPE  C31819700   6.716   0.921   8.869  0.1826  1.0287 -0.5102
  173SOPE  H18X19701   6.654   0.938   8.778 -1.7659  0.1673  0.5860
  173SOPE  H18Y19702   6.653   0.881   8.951  1.0514 -0.2831 -0.4592
  173SOPE  H18Z19703   6.800   0.850   8.853  0.6451  2.1493 -3.9175
  174SOPE     N19704   0.317   6.528  10.896 -0.2426 -0.6483 -0.9589
  174SOPE   HN119705   0.277   6.594  10.827 -0.2294 -0.1669 -0.5117
  174SOPE   HN219706   0.415   6.556  10.918  0.1137 -0.9487 -2.1030
  174SOPE   HN319707   0.326   6.434  10.851  2.6360  0.7363 -3.6757
  174SOPE   C1219708   0.256   6.531  11.025 -0.9327 -1.0948 -0.5431
  174SOPE  H12A19709   0.246   6.633  11.066  2.9750 -0.7973 -0.0415
  174SOPE  H12B19710   0.330   6.494  11.098  0.5531  0.6208 -1.1215
  174SOPE   C1119711   0.118   6.461  11.022 -0.3389 -0.1124 -0.0058
  174SOPE  H11A19712   0.072   6.481  11.121 -1.4907  1.3255 -0.8051
  174SOPE  H11B19713   0.135   6.351  11.023  1.2624  0.0921 -0.7632
  174SOPE     P19714  -0.103   6.460  10.886 -0.0725 -0.0370  0.4096
  174SOPE   O1319715  -0.185   6.580  10.866  0.1570 -0.2858 -0.2434
  174SOPE   O1419716  -0.143   6.377  10.997  0.4710  0.1109 -0.2745
  174SOPE   O1219717   0.039   6.506  10.913 -0.2473  0.2977 -0.0476
  174SOPE   O1119718  -0.100   6.373  10.758  0.0619 -0.4361 -0.5012
  174SOPE    C119719  -0.002   6.367  10.658  0.0145  0.0855  0.4521
  174SOPE    HA19720  -0.023   6.273  10.602  0.8421 -0.2715  0.7119
  174SOPE    HB19721   0.097   6.356  10.706  0.8121  1.5636 -0.7470
  174SOPE    C219722   0.010   6.497  10.572  0.5938  0.2195 -0.2623
  174SOPE    HS19723   0.033   6.575  10.647  1.4920 -0.4470  0.1729
  174SOPE   O2119724  -0.116   6.530  10.497 -0.4738 -0.3879 -0.3024
  174SOPE   C2119725  -0.114   6.659  10.470 -0.7728  0.6226 -0.5003
  174SOPE   O2219726  -0.023   6.737  10.498  0.2693 -0.8033  0.2778
  174SOPE   C2219727  -0.252   6.696  10.407 -0.6411 -0.1365 -0.3182
  174SOPE   H2R19728  -0.300   6.772  10.473 -0.0759 -1.4428  1.7119
  174SOPE   H2S19729  -0.317   6.606  10.411 -3.3523  1.7359  1.0398
  174SOPE    C319730   0.129   6.493  10.476  0.0923 -0.6951 -0.5081
  174SOPE    HX19731   0.219   6.475  10.537 -1.2256 -1.2268  1.3527
  174SOPE    HY19732   0.147   6.587  10.420  1.6142  0.0128  1.1057
  174SOPE   O3119733   0.122   6.393  10.375 -0.5552 -0.6091  0.8275
  174SOPE   C3119734   0.074   6.412  10.260  0.1345 -0.2736 -0.5491
  174SOPE   O3219735   0.012   6.510  10.223  0.1961  0.4644  0.2722
  174SOPE   C3219736   0.076   6.280  10.177  0.0735 -0.0030 -0.3971
  174SOPE   H2X19737  -0.030   6.262  10.149 -0.7495  2.9361  0.5211
  174SOPE   H2Y19738   0.118   6.194  10.233  0.3237  1.6158  2.0388
  174SOPE   C2319739  -0.243   6.748  10.265  0.1979 -0.1399  0.7967
  174SOPE   H3R19740  -0.187   6.680  10.197  0.4745  1.1452 -0.3114
  174SOPE   H3S19741  -0.187   6.843  10.271  0.9078 -0.6289  2.4171
  174SOPE   C2419742  -0.379   6.760  10.204  0.3080 -0.3563 -0.3689
  174SOPE   H4R19743  -0.426   6.660  10.190 -0.2371  0.0869 -1.8968
  174SOPE   H4S19744  -0.453   6.814  10.266 -0.5830 -1.3310 -0.5488
  174SOPE   C2519745  -0.384   6.830  10.066  0.5520 -0.0932  0.0775
  174SOPE   H5R19746  -0.487   6.871  10.060  1.3030  1.8432 -0.2782
  174SOPE   H5S19747  -0.308   6.911  10.059  2.0309 -1.4679 -0.6533
  174SOPE   C2619748  -0.356   6.743   9.939 -0.0331 -0.5217  0.4926
  174SOPE   H6R19749  -0.273   6.674   9.968 -0.9609 -2.2120 -0.6836
  174SOPE   H6S19750  -0.438   6.668   9.929 -0.5970 -0.1581  2.0466
  174SOPE   C2719751  -0.323   6.814   9.811 -0.4339  0.1341  0.3535
  174SOPE   H7R19752  -0.228   6.868   9.832  0.4285 -1.2000 -0.0300
  174SOPE   H7S19753  -0.310   6.742   9.728  0.4081  0.8929 -0.1828
  174SOPE   C2819754  -0.431   6.914   9.764 -0.6960  0.5071  0.2022
  174SOPE   H8R19755  -0.522   6.855   9.743  0.8647 -2.2902  0.7171
  174SOPE   H8S19756  -0.468   6.987   9.839 -1.7775  0.8428 -0.6308
  174SOPE   C2919757  -0.401   6.987   9.638  0.1228  0.0205  0.2550
  174SOPE   H9119758  -0.352   7.084   9.656  4.3585 -1.7239 -0.6657
  174SOPE  C21019759  -0.443   6.957   9.517 -0.1504  0.2257  0.2283
  174SOPE  H10119760  -0.415   7.018   9.430  0.3503 -2.5690 -1.6992
  174SOPE  C21119761  -0.526   6.843   9.470  0.5372 -0.8393  0.0922
  174SOPE  H11R19762  -0.632   6.865   9.448  1.2852  1.5066 -1.6025
  174SOPE  H11S19763  -0.534   6.768   9.551  1.0736 -0.8488  0.1411
  174SOPE  C21219764  -0.457   6.785   9.341 -0.4695 -0.3457 -0.6841
  174SOPE  H12R19765  -0.519   6.696   9.316 -0.4223 -0.6984  0.4045
  174SOPE  H12S19766  -0.353   6.748   9.355  0.2568  1.9119  0.4444
  174SOPE  C21319767  -0.451   6.877   9.217 -0.0750 -0.9882  0.1349
  174SOPE  H13R19768  -0.395   6.969   9.244 -1.1641 -0.2466 -0.0555
  174SOPE  H13S19769  -0.550   6.909   9.176  1.0543 -1.3292 -3.1216
  174SOPE  C21419770  -0.370   6.816   9.100 -0.5013  0.0263  0.6652
  174SOPE  H14R19771  -0.415   6.715   9.085 -1.1938 -0.3280  4.2706
  174SOPE  H14S19772  -0.268   6.798   9.140  0.6283  2.1690 -1.0187
  174SOPE  C21519773  -0.353   6.906   8.982 -0.0533 -0.6114  0.4555
  174SOPE  H15R19774  -0.264   6.881   8.920  0.1540  5.1955 -2.2350
  174SOPE  H15S19775  -0.338   7.010   9.017 -2.6397 -0.5008  1.4811
  174SOPE  C21619776  -0.483   6.923   8.901  0.6469  0.4093 -0.1328
  174SOPE  H16R19777  -0.556   6.978   8.965 -0.2810 -0.0561 -0.7818
  174SOPE  H16S19778  -0.529   6.824   8.883  1.5105  0.1904 -1.1923
  174SOPE  C21719779  -0.465   6.994   8.768  0.4654 -0.0101  0.2370
  174SOPE  H17R19780  -0.407   7.087   8.785 -0.5530  0.1180  3.9707
  174SOPE  H17S19781  -0.563   7.033   8.733 -0.0227 -0.6566  0.8622
  174SOPE  C21819782  -0.398   6.894   8.666 -0.0648  0.2678  0.3609
  174SOPE  H18R19783  -0.468   6.811   8.644  1.5062 -0.9693 -0.1351
  174SOPE  H18S19784  -0.305   6.857   8.714  0.5655  0.9725 -0.3010
  174SOPE  H18T19785  -0.371   6.954   8.577 -0.6452  0.4984  0.3344
  174SOPE   C3319786   0.135   6.292  10.028 -0.0238 -0.3415 -0.6027
  174SOPE   H3X19787   0.237   6.335  10.030 -0.3264  0.5288 -2.2115
  174SOPE   H3Y19788   0.067   6.363   9.977  0.1288 -1.0994 -1.8935
  174SOPE   C3419789   0.128   6.162   9.952  0.0407 -0.3729 -0.0375
  174SOPE   H4X19790   0.039   6.165   9.886  0.4948  1.0379 -0.6155
  174SOPE   H4Y19791   0.114   6.083  10.029 -1.6801 -0.6627 -0.6039
  174SOPE   C3519792   0.261   6.134   9.876 -0.5258  0.4137 -0.0180
  174SOPE   H5X19793   0.260   6.025   9.855 -0.7342  0.5789 -0.8866
  174SOPE   H5Y19794   0.341   6.151   9.951 -0.1780  0.9013 -0.4925
  174SOPE   C3619795   0.281   6.219   9.746  0.4059  0.4137 -0.1955
  174SOPE   H6X19796   0.389   6.233   9.722  0.9149 -0.9934  1.1494
  174SOPE   H6Y19797   0.240   6.320   9.767 -0.6598 -0.2029  0.7691
  174SOPE   C3719798   0.197   6.174   9.626 -0.4312  0.8903  0.3668
  174SOPE   H7X19799   0.173   6.263   9.563 -0.6823  0.2148 -0.5097
  174SOPE   H7Y19800   0.105   6.124   9.663 -0.5412  0.1275 -0.8846
  174SOPE   C3819801   0.270   6.070   9.540  0.3419 -0.0984  1.1782
  174SOPE   H8X19802   0.307   5.990   9.607 -0.4781 -0.9950  0.5815
  174SOPE   H8Y19803   0.362   6.111   9.493  0.8521 -2.5061 -0.0769
  174SOPE   C3919804   0.174   6.008   9.440 -0.0066 -0.5205  0.1079
  174SOPE   H9X19805   0.075   5.986   9.485 -0.0358 -0.9861 -0.1812
  174SOPE   H9Y19806   0.212   5.909   9.406 -1.0861 -0.4704 -1.3642
  174SOPE  C31019807   0.168   6.092   9.315 -0.3725  0.3218  0.4164
  174SOPE  H10X19808   0.273   6.096   9.281 -0.0280 -1.3010  1.1676
  174SOPE  H10Y19809   0.142   6.198   9.336 -1.1967 -0.1526  2.0062
  174SOPE  C31119810   0.071   6.026   9.217 -0.6523  0.1423 -0.6934
  174SOPE  H11X19811  -0.019   5.996   9.274  0.0149 -1.1199 -0.2585
  174SOPE  H11Y19812   0.114   5.934   9.173 -0.0918 -0.0979  0.3183
  174SOPE  C31219813   0.029   6.112   9.103  0.2226 -0.0710  0.5526
  174SOPE  H12X19814   0.118   6.127   9.038 -1.3472  0.4264 -1.6116
  174SOPE  H12Y19815   0.015   6.217   9.137  3.2485  0.6632 -0.2091
  174SOPE  C31319816  -0.089   6.069   9.006 -0.1799  0.1064 -0.7017
  174SOPE  H13X19817  -0.075   6.115   8.906  1.2827  1.7489  0.2093
  174SOPE  H13Y19818  -0.177   6.113   9.058  0.0299 -0.9048  0.5533
  174SOPE  C31419819  -0.107   5.919   8.984 -0.1631 -0.0121 -0.0274
  174SOPE  H14X19820  -0.193   5.886   8.923 -0.1360 -0.4836  0.1830
  174SOPE  H14Y19821  -0.108   5.860   9.078 -0.3827  0.2246  0.1215
  174SOPE  C31519822   0.021   5.870   8.900 -0.4070  0.2752 -0.2477
  174SOPE  H15X19823   0.110   5.925   8.936 -0.7802  0.4891  0.3566
  174SOPE  H15Y19824   0.027   5.888   8.791  0.7438 -2.3705 -0.7019
  174SOPE  C31619825   0.044   5.727   8.933 -0.5411 -0.4537 -0.3691
  174SOPE  H16X19826   0.044   5.700   9.040  0.9251  1.3505  0.1231
  174SOPE  H16Y19827   0.144   5.688   8.904  0.4990  0.9654  1.1924
  174SOPE  C31719828  -0.065   5.649   8.861  0.2933 -0.3150 -0.2194
  174SOPE  H17X19829  -0.091   5.686   8.760  0.0028  2.7123  0.8695
  174SOPE  H17Y19830  -0.167   5.665   8.902 -0.2556  0.9669 -1.9724
  174SOPE  C31819831  -0.042   5.497   8.839 -0.1632  0.1856  0.9253
  174SOPE  H18X19832   0.060   5.494   8.795 -0.5746  0.6698 -0.0865
  174SOPE  H18Y19833  -0.117   5.457   8.768 -1.7946  2.7846  1.0625
  174SOPE  H18Z19834  -0.039   5.439   8.934 -1.3272 -0.1154  0.7943
  175SOPE     N19835   6.004   2.634  10.422 -0.2611 -0.3232 -0.3720
  175SOPE   HN119836   5.955   2.647  10.331 -0.7973 -1.0313 -0.1968
  175SOPE   HN219837   5.948   2.679  10.496  0.4831  1.3179 -0.7587
  175SOPE   HN319838   6.097   2.680  10.426 -1.0888  1.3673  0.0984
  175SOPE   C1219839   6.022   2.490  10.463  0.2393  0.0437 -0.5545
  175SOPE  H12A19840   6.082   2.484  10.556 -1.7208 -2.7803  0.6700
  175SOPE  H12B19841   6.080   2.433  10.388  0.5019 -1.3348  0.6528
  175SOPE   C1119842   5.887   2.423  10.479  0.3303  0.5297 -0.3506
  175SOPE  H11A19843   5.838   2.434  10.379  1.1761  1.5551 -0.6718
  175SOPE  H11B19844   5.824   2.486  10.546 -1.6367  0.2759 -1.8669
  175SOPE     P19845   5.839   2.222  10.644 -0.1124  0.4585 -0.0427
  175SOPE   O1319846   5.769   2.324  10.718 -0.1201 -0.6635 -0.5514
  175SOPE   O1419847   5.935   2.136  10.709  0.2955 -0.3604 -0.1901
  175SOPE   O1219848   5.902   2.287  10.515  0.3566 -0.3916  0.5963
  175SOPE   O1119849   5.736   2.122  10.588  0.1729  0.4718  0.0992
  175SOPE    C119850   5.624   2.166  10.507  0.2444  0.0466  0.2910
  175SOPE    HA19851   5.592   2.269  10.535 -2.9276 -1.0459  1.1515
  175SOPE    HB19852   5.537   2.096  10.512 -0.1256  0.5551  1.2880
  175SOPE    C219853   5.653   2.173  10.354  0.0497 -0.9152 -0.1942
  175SOPE    HS19854   5.728   2.253  10.340  0.4944 -1.3180 -0.1567
  175SOPE   O2119855   5.525   2.201  10.291 -0.1413  0.1238 -0.5730
  175SOPE   C2119856   5.533   2.244  10.166 -0.6532 -0.8890 -0.1133
  175SOPE   O2219857   5.635   2.288  10.112 -0.3931  0.7176 -0.0984
  175SOPE   C2219858   5.398   2.240  10.101  0.3100  0.0451 -0.2151
  175SOPE   H2R19859   5.371   2.342  10.067  2.0590  0.8455  0.6583
  175SOPE   H2S19860   5.320   2.220  10.178 -0.0322 -0.3872 -0.6635
  175SOPE    C319861   5.727   2.041  10.306 -0.3739 -0.3209 -0.2773
  175SOPE    HX19862   5.646   1.966  10.317 -2.0357  1.4861  0.3047
  175SOPE    HY19863   5.807   2.005  10.374 -1.6483 -1.0506  0.8685
  175SOPE   O3119864   5.768   2.055  10.169 -0.3309  0.6512  0.3982
  175SOPE   C3119865   5.899   2.100  10.144 -0.0598  0.1801  0.4258
  175SOPE   O3219866   5.986   2.105  10.230 -0.0454 -0.2257  0.1837
  175SOPE   C3219867   5.919   2.119   9.993  0.1799 -0.1648  0.2559
  175SOPE   H2X19868   6.023   2.154   9.978  1.0999 -0.8149  4.2263
  175SOPE   H2Y19869   5.849   2.191   9.945  0.7390  1.2106  1.4396
  175SOPE   C2319870   5.387   2.150   9.974  0.6303  0.0496  0.4516
  175SOPE   H3R19871   5.277   2.142   9.959  0.2639  2.8703  0.9614
  175SOPE   H3S19872   5.430   2.051   9.999  0.2646  0.2011  1.7632
  175SOPE   C2419873   5.456   2.195   9.850 -0.3070 -0.1188  0.1696
  175SOPE   H4R19874   5.418   2.293   9.814 -0.2922 -0.2011 -0.0777
  175SOPE   H4S19875   5.566   2.207   9.863 -0.3758 -0.5395  1.2228
  175SOPE   C2519876   5.440   2.100   9.733 -0.7241 -0.2668  0.5478
  175SOPE   H5R19877   5.493   2.003   9.748  0.0228  0.0425 -0.0069
  175SOPE   H5S19878   5.333   2.070   9.738 -0.4044 -1.4201  0.8744
  175SOPE   C2619879   5.489   2.149   9.594  0.2355 -0.1640  0.0753
  175SOPE   H6R19880   5.460   2.255   9.576 -1.1428 -0.6446 -0.7135
  175SOPE   H6S19881   5.600   2.146   9.590  0.2939  1.4195 -0.2158
  175SOPE   C2719882   5.428   2.067   9.482  0.1273 -0.5328 -0.1449
  175SOPE   H7R19883   5.449   1.962   9.510  2.1242  0.0942  0.9827
  175SOPE   H7S19884   5.319   2.083   9.474  0.4429  0.8314 -2.5691
  175SOPE   C2819885   5.488   2.090   9.339 -0.5499 -0.4659  0.4001
  175SOPE   H8R19886   5.488   2.198   9.314  1.0452 -0.5199  0.0681
  175SOPE   H8S19887   5.588   2.042   9.344 -0.1588  0.4027  1.5408
  175SOPE   C2919888   5.410   2.016   9.234  0.7025  0.0467 -0.2102
  175SOPE   H9119889   5.446   1.915   9.210  0.6403 -0.2330  0.8272
  175SOPE  C21019890   5.307   2.063   9.160 -0.3119  0.9586 -0.4384
  175SOPE  H10119891   5.279   1.995   9.079 -1.0023  0.2347  0.3882
  175SOPE  C21119892   5.260   2.207   9.163  0.1054  0.0407  0.2671
  175SOPE  H11R19893   5.333   2.274   9.113  1.4574 -1.0159  0.7764
  175SOPE  H11S19894   5.267   2.240   9.269 -0.8889 -2.2479  1.1067
  175SOPE  C21219895   5.118   2.230   9.131 -0.2075 -0.1175  0.2449
  175SOPE  H12R19896   5.104   2.338   9.151  2.8910  0.3608  0.3375
  175SOPE  H12S19897   5.044   2.175   9.193 -0.8521  0.1900 -0.2307
  175SOPE  C21319898   5.064   2.204   8.992  0.1853 -0.1269  0.0084
  175SOPE  H13R19899   5.054   2.096   8.966  0.5303 -0.2285  0.2929
  175SOPE  H13S19900   5.127   2.251   8.914  0.3211  3.1828  1.9247
  175SOPE  C21419901   4.919   2.262   8.978 -0.3067  0.0883  0.2266
  175SOPE  H14R19902   4.882   2.226   8.879 -0.5975 -0.8620  0.6698
  175SOPE  H14S19903   4.934   2.371   8.992 -1.8313  0.0695  2.5110
  175SOPE  C21519904   4.824   2.222   9.087 -0.1705 -1.0725 -0.0073
  175SOPE  H15R19905   4.813   2.302   9.163  0.3664 -1.8013  0.8548
  175SOPE  H15S19906   4.859   2.130   9.137 -1.5455 -0.6405  1.8499
  175SOPE  C21619907   4.691   2.177   9.029 -0.5631  0.3054 -0.3475
  175SOPE  H16R19908   4.706   2.104   8.947 -1.7133  0.0663 -0.3666
  175SOPE  H16S19909   4.637   2.263   8.984 -2.3599 -0.1918  0.7536
  175SOPE  C21719910   4.592   2.122   9.136 -0.5405 -1.0810 -0.0783
  175SOPE  H17R19911   4.597   2.195   9.220  1.7499  1.1307 -1.9784
  175SOPE  H17S19912   4.630   2.021   9.161 -1.8093 -2.1572 -2.2488
  175SOPE  C21819913   4.452   2.125   9.075  0.0665 -0.5349  0.0444
  175SOPE  H18R19914   4.441   2.044   8.999  1.3089 -0.6179 -0.0721
  175SOPE  H18S19915   4.425   2.222   9.028  0.6967 -0.4762 -0.2006
  175SOPE  H18T19916   4.375   2.085   9.144 -0.0183 -0.9035 -0.2615
  175SOPE   C3319917   5.917   1.978   9.931  0.1244 -0.1920  0.0378
  175SOPE   H3X19918   5.810   1.950   9.919  0.3561 -0.8072 -0.6466
  175SOPE   H3Y19919   5.964   1.904   9.999 -1.1896 -0.9141  0.2023
  175SOPE   C3419920   5.978   1.964   9.783 -0.7058 -0.6987 -0.4041
  175SOPE   H4X19921   5.979   1.860   9.744  1.4443 -0.9809  0.2937
  175SOPE   H4Y19922   6.085   1.995   9.782 -0.6532 -0.8861 -0.8713
  175SOPE   C3519923   5.909   2.061   9.681  0.2212 -0.6232  0.5654
  175SOPE   H5X19924   5.913   2.163   9.725 -0.8154 -0.9162  1.3765
  175SOPE   H5Y19925   5.804   2.026   9.671  0.3509 -0.9763  0.3913
  175SOPE   C3619926   5.976   2.062   9.544  0.1289 -0.7025  0.0498
  175SOPE   H6X19927   5.989   1.953   9.527 -0.3177 -0.9341  1.0825
  175SOPE   H6Y19928   6.073   2.113   9.561 -0.4267  0.7583 -0.9843
  175SOPE   C3719929   5.882   2.120   9.442 -0.1466 -0.2835 -0.4556
  175SOPE   H7X19930   5.873   2.224   9.479  0.8232 -0.1377 -0.5936
  175SOPE   H7Y19931   5.778   2.082   9.435 -1.2028  1.6348  2.8110
  175SOPE   C3819932   5.941   2.122   9.304 -0.4940  0.4882  0.2411
  175SOPE   H8X19933   5.983   2.020   9.290 -0.3187  0.3816  1.4670
  175SOPE   H8Y19934   6.029   2.190   9.301  0.1392 -0.3093  0.2540
  175SOPE   C3919935   5.851   2.170   9.191 -0.1051  0.4937 -0.3270
  175SOPE   H9X19936   5.823   2.276   9.210  2.2352  1.0193  0.5770
  175SOPE   H9Y19937   5.764   2.102   9.199  0.7318 -0.4791  1.0203
  175SOPE  C31019938   5.921   2.148   9.055 -0.7895 -0.0061  0.3455
  175SOPE  H10X19939   5.910   2.038   9.056  1.2141 -0.2872 -1.1937
  175SOPE  H10Y19940   6.030   2.168   9.062 -0.5551 -0.7283 -0.8934
  175SOPE  C31119941   5.858   2.205   8.928  0.7272  0.7226  0.5555
  175SOPE  H11X19942   5.897   2.145   8.843  1.3296  0.2983  1.1243
  175SOPE  H11Y19943   5.891   2.311   8.916  0.0048  1.1906  2.3496
  175SOPE  C31219944   5.700   2.205   8.933  0.4228 -0.3975  0.7940
  175SOPE  H12X19945   5.671   2.265   9.023  1.0373 -0.9488  1.3740
  175SOPE  H12Y19946   5.651   2.108   8.958  0.2268 -0.6055 -0.3575
  175SOPE  C31319947   5.643   2.270   8.801  0.0317  1.0965  0.2765
  175SOPE  H13X19948   5.702   2.224   8.719  1.1854  0.6048  1.3421
  175SOPE  H13Y19949   5.658   2.380   8.807 -1.6996  1.4159 -0.7518
  175SOPE  C31419950   5.494   2.246   8.789 -0.1872 -0.6212  0.8310
  175SOPE  H14X19951   5.433   2.319   8.847  0.3455  0.4455  0.0652
  175SOPE  H14Y19952   5.469   2.138   8.804  0.6783 -1.5685 -3.4218
  175SOPE  C31519953   5.445   2.302   8.649 -0.6197  0.6133  0.2333
  175SOPE  H15X19954   5.484   2.236   8.568  0.4138  2.6770 -1.0088
  175SOPE  H15Y19955   5.492   2.401   8.631 -3.1280  1.6753 -0.8562
  175SOPE  C31619956   5.289   2.296   8.644 -0.0043  0.1533 -0.0020
  175SOPE  H16X19957   5.261   2.326   8.541 -0.3909  1.0536  0.3501
  175SOPE  H16Y19958   5.259   2.370   8.722  2.2139  1.4751 -0.3186
  175SOPE  C31719959   5.220   2.158   8.670  0.2821  0.2024 -0.3785
  175SOPE  H17X19960   5.237   2.127   8.775  0.3582  2.8542  0.4630
  175SOPE  H17Y19961   5.261   2.079   8.604  0.4915  0.1222 -0.1530
  175SOPE  C31819962   5.067   2.159   8.648 -0.5209 -0.1027 -0.0100
  175SOPE  H18X19963   5.033   2.188   8.546 -1.6577  0.3654  0.4789
  175SOPE  H18Y19964   5.031   2.239   8.717  0.4441  1.0479 -0.8154
  175SOPE  H18Z19965   5.019   2.061   8.671 -3.1750  1.0604 -0.1516
  176SOPE     N19966   4.769   0.534  11.417 -0.1000  0.4385 -0.0355
  176SOPE   HN119967   4.814   0.441  11.407  2.2064  1.3958  0.7193
  176SOPE   HN219968   4.799   0.570  11.510  0.4514  0.9581 -0.4121
  176SOPE   HN319969   4.667   0.515  11.420 -0.0747  0.0732 -1.0981
  176SOPE   C1219970   4.804   0.636  11.310  0.6588  1.4782 -1.2611
  176SOPE  H12A19971   4.892   0.701  11.331  2.6809 -1.4207 -0.1051
  176SOPE  H12B19972   4.713   0.699  11.308  0.1196  0.7243 -3.6226
  176SOPE   C1119973   4.818   0.560  11.173 -1.1453  0.2471 -1.0297
  176SOPE  H11A19974   4.894   0.480  11.184 -1.0924  0.5518  1.5620
  176SOPE  H11B19975   4.862   0.629  11.099 -2.1383  1.8857 -0.1666
  176SOPE     P19976   4.591   0.566  11.049  0.0151  0.1655 -0.3100
  176SOPE   O1319977   4.606   0.714  11.073 -0.1435 -0.0487  0.5394
  176SOPE   O1419978   4.457   0.508  11.067 -0.1943  0.5535 -0.5129
  176SOPE   O1219979   4.695   0.495  11.142 -0.8082  0.1392  0.2587
  176SOPE   O1119980   4.643   0.548  10.902 -0.7242 -0.2438  0.6702
  176SOPE    C119981   4.721   0.431  10.874 -0.0756  0.1119 -0.2809
  176SOPE    HA19982   4.664   0.340  10.902 -0.6494 -0.1374 -2.0874
  176SOPE    HB19983   4.825   0.434  10.914  0.1132 -1.8870 -0.5575
  176SOPE    C219984   4.748   0.403  10.726 -0.6704 -0.7983 -0.4980
  176SOPE    HS19985   4.782   0.298  10.708 -0.6042 -0.8306 -0.1930
  176SOPE   O2119986   4.851   0.494  10.679  0.2253  0.3906  0.1381
  176SOPE   C2119987   4.974   0.440  10.695 -0.8354 -0.1124 -0.3863
  176SOPE   O2219988   4.999   0.341  10.766  0.7954  0.1510  0.1466
  176SOPE   C2219989   5.087   0.521  10.620  0.0854 -0.4736  0.6200
  176SOPE   H2R19990   5.070   0.627  10.646  2.1519  0.2696 -0.7328
  176SOPE   H2S19991   5.079   0.506  10.510  1.2465 -1.5652  0.6552
  176SOPE    C319992   4.621   0.407  10.647  0.2559 -0.2094 -0.8038
  176SOPE    HX19993   4.561   0.493  10.684 -1.1166 -1.2444 -0.5283
  176SOPE    HY19994   4.556   0.332  10.696 -0.2299  1.6912  1.6976
  176SOPE   O3119995   4.630   0.399  10.502 -0.1605  0.1243 -0.0195
  176SOPE   C3119996   4.648   0.506  10.430 -0.3819 -0.7773 -0.6046
  176SOPE   O3219997   4.682   0.613  10.474  0.4229 -0.4079 -0.2779
  176SOPE   C3219998   4.615   0.482  10.282  0.0694  0.3701 -0.1098
  176SOPE   H2X19999   4.586   0.375  10.267  2.8832 -0.3683 -1.0702
  176SOPE   H2Y20000   4.709   0.485  10.222 -0.1367  3.3722 -0.4226
  176SOPE   C2320001   5.227   0.478  10.656  0.4632  0.6901 -0.5815
  176SOPE   H3R20002   5.237   0.474  10.767 -1.9211 -1.2431 -0.3507
  176SOPE   H3S20003   5.308   0.549  10.626  1.8969 -0.3776  0.5843
  176SOPE   C2420004   5.270   0.337  10.598  0.3087  0.4910 -0.1589
  176SOPE   H4R20005   5.234   0.248  10.654 -0.5710 -0.0714 -1.5896
  176SOPE   H4S20006   5.225   0.330  10.497 -0.8841  0.4378  0.3631
  176SOPE   C2520007   5.420   0.332  10.562  0.0982  0.5239 -0.5059
  176SOPE   H5R20008   5.467   0.355  10.660  0.0251 -0.2410 -0.2808
  176SOPE   H5S20009   5.447   0.229  10.532  2.9694  1.2959 -0.8657
  176SOPE   C2620010   5.464   0.427  10.449  0.1972  0.6981  0.3918
  176SOPE   H6R20011   5.440   0.532  10.478 -1.3836  0.3680  0.3414
  176SOPE   H6S20012   5.572   0.407  10.431 -0.0106 -2.0284  1.6023
  176SOPE   C2720013   5.399   0.402  10.316  0.1644  0.5999 -0.5292
  176SOPE   H7R20014   5.423   0.296  10.292  1.1695  0.4480  1.0385
  176SOPE   H7S20015   5.288   0.413  10.316  0.1614  0.5575 -0.0735
  176SOPE   C2820016   5.448   0.499  10.212 -0.6355  0.7674  0.1571
  176SOPE   H8R20017   5.559   0.492  10.212 -0.7068 -0.7449  0.1077
  176SOPE   H8S20018   5.418   0.458  10.113  0.2823 -0.3677  0.3338
  176SOPE   C2920019   5.389   0.640  10.223 -0.4027  0.2824  0.2687
  176SOPE   H9120020   5.365   0.661  10.328  2.1507 -3.1452  1.7151
  176SOPE  C21020021   5.353   0.720  10.120 -0.4866  0.5440 -0.0245
  176SOPE  H10120022   5.319   0.822  10.139 -2.3796 -0.0831  0.2000
  176SOPE  C21120023   5.376   0.682   9.971  0.0953 -1.0517 -0.3922
  176SOPE  H11R20024   5.275   0.684   9.924  0.9836 -2.0920 -2.4733
  176SOPE  H11S20025   5.394   0.574   9.955  2.2223 -0.8379  0.2729
  176SOPE  C21220026   5.474   0.772   9.890  0.3708 -0.4540 -0.3818
  176SOPE  H12R20027   5.573   0.766   9.939  0.8560 -0.2320 -1.3108
  176SOPE  H12S20028   5.433   0.874   9.908 -1.0321 -1.1963  0.8460
  176SOPE  C21320029   5.489   0.724   9.747  0.1297 -0.3812 -0.8440
  176SOPE  H13R20030   5.526   0.620   9.758 -0.4026 -0.4699  0.2906
  176SOPE  H13S20031   5.573   0.780   9.700  2.3358 -2.5085  0.3259
  176SOPE  C21420032   5.368   0.738   9.654 -0.4895 -0.5670 -0.6754
  176SOPE  H14R20033   5.341   0.844   9.636  1.2700  0.2386  0.9858
  176SOPE  H14S20034   5.283   0.685   9.704  0.6283 -0.4179  1.5202
  176SOPE  C21520035   5.403   0.671   9.515  0.1778  0.0391 -0.5498
  176SOPE  H15R20036   5.310   0.669   9.454 -0.8281 -0.5331  0.9471
  176SOPE  H15S20037   5.443   0.572   9.544  2.4184  1.2678  0.7753
  176SOPE  C21620038   5.509   0.759   9.443 -0.1589 -0.9356  0.0318
  176SOPE  H16R20039   5.606   0.720   9.480 -0.1104 -0.3020  0.5725
  176SOPE  H16S20040   5.500   0.860   9.488  1.8262 -0.8621  0.3524
  176SOPE  C21720041   5.505   0.748   9.294 -0.2028 -0.4067 -0.0543
  176SOPE  H17R20042   5.420   0.808   9.253  0.0036  0.8162  1.2402
  176SOPE  H17S20043   5.509   0.641   9.265  1.0152 -0.4010  0.0654
  176SOPE  C21820044   5.636   0.819   9.240 -0.0533  0.2997 -0.6039
  176SOPE  H18R20045   5.645   0.926   9.269 -2.5143  0.2418  0.6261
  176SOPE  H18S20046   5.628   0.813   9.129  2.2413 -2.2153 -0.7149
  176SOPE  H18T20047   5.730   0.766   9.266 -1.2659 -0.5586  2.4771
  176SOPE   C3320048   4.521   0.593  10.225  0.8927 -0.6275 -0.7071
  176SOPE   H3X20049   4.571   0.692  10.226 -0.3324  0.0156 -0.6343
  176SOPE   H3Y20050   4.428   0.608  10.284  0.2808 -3.1852 -0.9195
  176SOPE   C3420051   4.476   0.566  10.080  0.1599 -0.4793 -0.1808
  176SOPE   H4X20052   4.558   0.567  10.005 -0.1381  2.9455 -0.6211
  176SOPE   H4Y20053   4.405   0.648  10.057 -0.1808 -0.4445  0.9172
  176SOPE   C3520054   4.387   0.437  10.067 -0.0373 -0.3382 -0.1567
  176SOPE   H5X20055   4.306   0.449  10.142  1.1915  1.9229  0.9167
  176SOPE   H5Y20056   4.446   0.348  10.099 -1.0073 -0.7036  0.6912
  176SOPE   C3620057   4.335   0.419   9.920 -0.1997 -0.1653 -0.2797
  176SOPE   H6X20058   4.302   0.520   9.888  0.2933 -0.8240 -3.0787
  176SOPE   H6Y20059   4.246   0.353   9.911  1.6388 -2.9257  0.4418
  176SOPE   C3720060   4.449   0.381   9.825 -0.1961 -0.6898  0.5444
  176SOPE   H7X20061   4.486   0.281   9.857 -1.2998 -1.1146  0.5436
  176SOPE   H7Y20062   4.536   0.448   9.839 -0.9833  0.3568  0.5901
  176SOPE   C3820063   4.408   0.394   9.675  0.4123  0.0019 -0.2247
  176SOPE   H8X20064   4.376   0.498   9.652 -0.3029 -0.0419  0.5428
  176SOPE   H8Y20065   4.329   0.320   9.650  0.1518 -0.2247  1.1771
  176SOPE   C3920066   4.536   0.357   9.599  0.5847  0.0972  0.0198
  176SOPE   H9X20067   4.576   0.257   9.630  1.6885  0.2857 -0.7279
  176SOPE   H9Y20068   4.605   0.436   9.636  0.2079 -0.4383  2.0225
  176SOPE  C31020069   4.527   0.365   9.440 -0.2845  0.0833  0.3598
  176SOPE  H10X20070   4.481   0.458   9.401  2.8185  0.6096 -2.3886
  176SOPE  H10Y20071   4.456   0.283   9.416  0.0845 -0.2445  0.3788
  176SOPE  C31120072   4.666   0.361   9.374  0.7116  0.4938 -0.5428
  176SOPE  H11X20073   4.750   0.425   9.409 -0.5756  1.5501  0.7296
  176SOPE  H11Y20074   4.642   0.392   9.270 -2.9831 -0.8335 -0.2101
  176SOPE  C31220075   4.721   0.218   9.373  0.0559  0.0306 -0.3790
  176SOPE  H12X20076   4.642   0.147   9.339 -0.4649 -0.1012  1.0251
  176SOPE  H12Y20077   4.733   0.183   9.478  0.6329  0.1494 -0.4015
  176SOPE  C31320078   4.853   0.199   9.298 -0.7441  0.6019  0.1734
  176SOPE  H13X20079   4.942   0.189   9.363  0.0121 -1.2193 -1.0250
  176SOPE  H13Y20080   4.863   0.295   9.243 -1.9792 -1.2361 -3.7013
  176SOPE  C31420081   4.855   0.084   9.190 -0.1383  0.0106  0.2334
  176SOPE  H14X20082   4.942   0.083   9.122 -0.4929 -0.3271 -0.2243
  176SOPE  H14Y20083   4.768   0.089   9.120  0.8923 -1.5337 -1.2127
  176SOPE  C31520084   4.846  -0.053   9.258  0.1124 -0.2249 -0.1562
  176SOPE  H15X20085   4.777  -0.052   9.345  1.3364 -1.0859  0.8617
  176SOPE  H15Y20086   4.944  -0.086   9.298  0.2746 -0.9579 -1.1114
  176SOPE  C31620087   4.790  -0.167   9.166 -0.4676  0.4635 -0.2920
  176SOPE  H16X20088   4.695  -0.126   9.126  0.2932  1.5785 -1.0223
  176SOPE  H16Y20089   4.763  -0.259   9.222 -0.4134  0.6266  0.0045
  176SOPE  C31720090   4.883  -0.204   9.052  0.7115  0.2673 -0.1437
  176SOPE  H17X20091   4.883  -0.125   8.974 -0.6511  1.8017  1.3215
  176SOPE  H17Y20092   4.845  -0.294   8.999  0.3441  0.7648 -0.7338
  176SOPE  C31820093   5.026  -0.236   9.094  0.1777 -0.3261  0.2433
  176SOPE  H18X20094   5.012  -0.304   9.181 -0.4395  2.7701  2.7642
  176SOPE  H18Y20095   5.068  -0.136   9.121  0.4576 -0.6989  1.2431
  176SOPE  H18Z20096   5.083  -0.288   9.015 -1.5739 -1.7464 -0.1388
  177SOPE     N20097   5.564   4.782  11.032  0.5287 -0.2114 -0.0973
  177SOPE   HN120098   5.492   4.708  11.046 -0.8995  1.3710  1.3453
  177SOPE   HN220099   5.538   4.874  11.073  3.2037  0.9822 -0.8048
  177SOPE   HN320100   5.579   4.804  10.931 -1.8848  3.6131  0.1829
  177SOPE   C1220101   5.692   4.734  11.087 -0.3000 -0.0566  0.1172
  177SOPE  H12A20102   5.691   4.746  11.197  0.2082 -2.6850  0.4836
  177SOPE  H12B20103   5.773   4.789  11.036  0.9297 -2.2827 -0.4856
  177SOPE   C1120104   5.719   4.588  11.047 -0.4892 -0.3314  0.4281
  177SOPE  H11A20105   5.692   4.568  10.941  0.5406 -1.8100  0.4063
  177SOPE  H11B20106   5.658   4.512  11.101  0.6963 -3.0443 -1.7594
  177SOPE     P20107   5.933   4.443  10.999  0.0017 -0.2883 -0.4145
  177SOPE   O1320108   5.894   4.326  11.069  0.0821  0.3740 -0.0882
  177SOPE   O1420109   6.076   4.471  10.999  0.0018  0.4956 -0.0673
  177SOPE   O1220110   5.859   4.564  11.065  0.7918  0.5031 -0.4036
  177SOPE   O1120111   5.881   4.442  10.851 -0.0815  0.2328  0.6905
  177SOPE    C120112   5.914   4.550  10.766  0.3433 -0.7624 -0.3630
  177SOPE    HA20113   5.986   4.623  10.808  0.5729 -0.9712 -0.3910
  177SOPE    HB20114   5.823   4.612  10.748  0.0287 -1.6166 -1.9281
  177SOPE    C220115   5.969   4.501  10.624 -0.6858 -0.5039 -0.2169
  177SOPE    HS20116   5.909   4.421  10.575 -1.7952  1.4539 -2.2122
  177SOPE   O2120117   6.104   4.447  10.631 -0.4832 -1.3401  0.6924
  177SOPE   C2120118   6.205   4.526  10.648  0.3435  0.7662 -0.4724
  177SOPE   O2220119   6.201   4.644  10.677 -0.4475  0.1890  0.6596
  177SOPE   C2220120   6.341   4.458  10.623 -0.1800  0.1300  0.4327
  177SOPE   H2R20121   6.336   4.347  10.615 -1.0230  0.2031 -0.2365
  177SOPE   H2S20122   6.403   4.485  10.711 -0.1584 -1.4541  0.9340
  177SOPE    C320123   5.953   4.621  10.534  0.0718  0.1812  0.9097
  177SOPE    HX20124   6.017   4.706  10.565  2.9359 -1.9317  1.2006
  177SOPE    HY20125   5.844   4.644  10.529  0.1241  0.2296 -0.2038
  177SOPE   O3120126   6.021   4.591  10.401 -0.0524  0.1385  0.0199
  177SOPE   C3120127   5.934   4.538  10.318  0.0261 -0.3623 -0.2954
  177SOPE   O3220128   5.816   4.518  10.338 -0.2468  0.2646  0.0341
  177SOPE   C3220129   6.003   4.496  10.186  0.4084 -0.7036  0.5018
  177SOPE   H2X20130   6.055   4.399  10.195 -0.0676 -0.9149  1.0717
  177SOPE   H2Y20131   6.075   4.578  10.163 -1.2800  0.5629 -0.5420
  177SOPE   C2320132   6.413   4.506  10.492 -0.0231 -0.4440  0.4975
  177SOPE   H3R20133   6.522   4.512  10.510 -0.0470 -0.6598  0.7090
  177SOPE   H3S20134   6.389   4.611  10.465  2.5918  0.4936  1.5627
  177SOPE   C2420135   6.382   4.424  10.367  0.1025  0.0646 -0.3118
  177SOPE   H4R20136   6.427   4.323  10.378  0.1267  0.2423  1.4758
  177SOPE   H4S20137   6.273   4.401  10.368 -0.7034  2.8219  4.8299
  177SOPE   C2520138   6.423   4.505  10.239  0.0888  0.0544  0.6806
  177SOPE   H5R20139   6.385   4.609  10.233  0.0092 -0.0273 -0.4162
  177SOPE   H5S20140   6.532   4.522  10.242  0.4895 -1.5349 -1.7646
  177SOPE   C2620141   6.395   4.439  10.102  0.5160 -0.0690 -0.2042
  177SOPE   H6R20142   6.483   4.375  10.081 -0.5073 -1.4197 -0.4838
  177SOPE   H6S20143   6.309   4.371  10.118  1.9286 -2.0587 -0.7484
  177SOPE   C2720144   6.374   4.546   9.991  0.5962  0.4610  0.9510
  177SOPE   H7R20145   6.271   4.585  10.009  0.6127  1.5042 -0.9380
  177SOPE   H7S20146   6.446   4.628  10.012  0.5571  0.6079  0.5321
  177SOPE   C2820147   6.396   4.487   9.849  0.6594 -0.5246  0.2565
  177SOPE   H8R20148   6.505   4.481   9.826  0.6781  0.0277  0.1760
  177SOPE   H8S20149   6.340   4.392   9.865  0.2985  0.1071  3.2774
  177SOPE   C2920150   6.321   4.561   9.743  0.1251 -0.0037  0.8035
  177SOPE   H9120151   6.219   4.596   9.766 -0.4004 -2.7998  3.3062
  177SOPE  C21020152   6.354   4.541   9.612  0.2237  0.1364  0.0899
  177SOPE  H10120153   6.290   4.595   9.540 -2.1795 -2.2116  0.3044
  177SOPE  C21120154   6.465   4.466   9.545 -0.1677 -0.1711  0.6020
  177SOPE  H11R20155   6.512   4.390   9.611  1.2480  0.1373 -0.0170
  177SOPE  H11S20156   6.549   4.537   9.534  2.0520 -2.4211  1.8608
  177SOPE  C21220157   6.440   4.400   9.409  0.0229 -0.4554 -0.0571
  177SOPE  H12R20158   6.367   4.318   9.423  0.7381 -0.9754  0.7288
  177SOPE  H12S20159   6.533   4.355   9.368  0.4323  0.5393 -0.2600
  177SOPE  C21320160   6.388   4.490   9.302 -0.1674  0.2626 -0.1178
  177SOPE  H13R20161   6.291   4.542   9.312  0.7477  2.0233  0.0765
  177SOPE  H13S20162   6.383   4.435   9.205 -1.5623  0.3693 -0.1189
  177SOPE  C21420163   6.485   4.605   9.259 -0.4017  0.1795  0.1793
  177SOPE  H14R20164   6.584   4.554   9.265  0.4172  1.8516  1.5844
  177SOPE  H14S20165   6.500   4.697   9.320  3.2058 -0.1641  0.0694
  177SOPE  C21520166   6.464   4.655   9.116 -1.2948  0.0117 -0.7041
  177SOPE  H15R20167   6.424   4.575   9.050 -0.7155 -0.8923  0.0184
  177SOPE  H15S20168   6.563   4.692   9.080 -2.0527  1.6716 -1.1575
  177SOPE  C21620169   6.373   4.779   9.105 -0.4844 -0.2430  0.2757
  177SOPE  H16R20170   6.410   4.864   9.166 -0.3152 -1.2727  1.6655
  177SOPE  H16S20171   6.271   4.759   9.145 -0.7646  1.7210  0.6168
  177SOPE  C21720172   6.355   4.813   8.963  0.5061 -0.1891 -0.3826
  177SOPE  H17R20173   6.404   4.740   8.895 -0.0989 -0.4575 -0.5422
  177SOPE  H17S20174   6.401   4.910   8.936 -0.9141  0.4248 -0.6713
  177SOPE  C21820175   6.211   4.841   8.932  0.1789  0.3393  0.7162
  177SOPE  H18R20176   6.153   4.753   8.897  0.6831  0.7743 -1.4027
  177SOPE  H18S20177   6.197   4.921   8.856 -2.3514  2.6358  3.4158
  177SOPE  H18T20178   6.161   4.893   9.015  0.0530 -0.1575  0.9556
  177SOPE   C3320179   5.903   4.489  10.062 -0.7696  0.2367 -0.3053
  177SOPE   H3X20180   5.838   4.579  10.056 -2.0261 -0.7240 -1.7513
  177SOPE   H3Y20181   5.836   4.401  10.073  0.2308 -0.3896  0.9877
  177SOPE   C3420182   5.966   4.472   9.928  0.5709 -0.0335 -0.6368
  177SOPE   H4X20183   6.013   4.373   9.913  2.2121  0.1079  2.5248
  177SOPE   H4Y20184   6.058   4.535   9.925 -0.5898  1.7977  0.4364
  177SOPE   C3520185   5.876   4.517   9.811 -0.3999 -0.1206 -0.8979
  177SOPE   H5X20186   5.838   4.619   9.830 -1.0688 -0.5600  0.2221
  177SOPE   H5Y20187   5.793   4.444   9.796 -1.4453  1.0538 -1.0043
  177SOPE   C3620188   5.955   4.518   9.677  0.0638  0.3744  0.0437
  177SOPE   H6X20189   5.991   4.414   9.659 -0.0512  0.2316  0.6191
  177SOPE   H6Y20190   6.037   4.593   9.687 -1.1104  1.3535  3.6225
  177SOPE   C3720191   5.859   4.549   9.565  0.2749 -0.0249  0.7097
  177SOPE   H7X20192   5.786   4.626   9.597 -1.5421 -1.6537  0.6700
  177SOPE   H7Y20193   5.802   4.459   9.531 -1.5695  1.1215  0.6334
  177SOPE   C3820194   5.946   4.603   9.446 -0.0227  0.2165 -0.5533
  177SOPE   H8X20195   6.021   4.530   9.410 -1.2069 -1.5073  0.3222
  177SOPE   H8Y20196   5.991   4.697   9.484  1.4549 -1.3435  1.7975
  177SOPE   C3920197   5.846   4.636   9.333  0.9654  0.5349 -0.4474
  177SOPE   H9X20198   5.774   4.710   9.375 -3.0256 -2.2726 -1.7549
  177SOPE   H9Y20199   5.791   4.548   9.293  0.1471  1.3305 -1.1358
  177SOPE  C31020200   5.915   4.702   9.216  0.0258  0.1716 -0.3486
  177SOPE  H10X20201   6.002   4.643   9.181 -0.4370  0.4826 -2.1026
  177SOPE  H10Y20202   5.954   4.802   9.248  1.1357 -0.2164 -0.4368
  177SOPE  C31120203   5.827   4.737   9.094  0.6193  0.1278  0.0345
  177SOPE  H11X20204   5.874   4.817   9.033 -0.6626  0.3512 -0.6914
  177SOPE  H11Y20205   5.734   4.788   9.126  0.9922  1.5068 -0.9900
  177SOPE  C31220206   5.788   4.624   9.000  0.1494  0.8847 -0.1601
  177SOPE  H12X20207   5.701   4.652   8.937  0.7502 -1.7402 -2.3538
  177SOPE  H12Y20208   5.755   4.529   9.048  1.2503  0.5007 -0.1249
  177SOPE  C31320209   5.880   4.587   8.878 -0.2332  1.0836  0.1713
  177SOPE  H13X20210   5.970   4.529   8.907 -0.0020 -0.6262 -3.4064
  177SOPE  H13Y20211   5.903   4.686   8.832 -0.9389  1.7111  1.1280
  177SOPE  C31420212   5.809   4.498   8.769  0.5730 -0.2137  0.5135
  177SOPE  H14X20213   5.743   4.575   8.724 -1.3868 -0.1307  3.2999
  177SOPE  H14Y20214   5.742   4.413   8.794 -0.3254  0.0047 -1.0123
  177SOPE  C31520215   5.914   4.455   8.665 -0.3224 -0.4146  0.3541
  177SOPE  H15X20216   5.978   4.380   8.717  1.4345  0.7547 -0.0300
  177SOPE  H15Y20217   5.973   4.544   8.633  1.4216 -2.0971 -1.4340
  177SOPE  C31620218   5.850   4.378   8.547 -0.1926 -0.6016  1.2480
  177SOPE  H16X20219   5.918   4.372   8.459 -3.0696  1.4500 -1.3356
  177SOPE  H16Y20220   5.765   4.435   8.504  0.2564 -0.2667  0.7923
  177SOPE  C31720221   5.794   4.240   8.582  0.0093 -0.5273  0.0741
  177SOPE  H17X20222   5.721   4.246   8.665  0.0064  2.2661 -0.0510
  177SOPE  H17Y20223   5.866   4.163   8.617 -0.7815 -1.0100  0.6658
  177SOPE  C31820224   5.710   4.167   8.472 -1.0281  0.1744 -0.1904
  177SOPE  H18X20225   5.676   4.065   8.498 -0.7003 -0.5643 -2.4140
  177SOPE  H18Y20226   5.782   4.147   8.390 -1.8259 -2.4281 -0.3497
  177SOPE  H18Z20227   5.627   4.230   8.434 -1.4670 -1.1683 -1.5604
  178SOPE     N20228   3.134   3.371  11.002 -0.1480 -0.0703  0.6615
  178SOPE   HN120229   3.107   3.471  11.012  0.4434  0.2252 -0.5169
  178SOPE   HN220230   3.193   3.352  11.085 -0.8114  0.3864  1.2474
  178SOPE   HN320231   3.185   3.360  10.912 -0.5390 -2.4514  0.6526
  178SOPE   C1220232   3.013   3.277  10.985 -0.3212  0.2121  0.4420
  178SOPE  H12A20233   2.929   3.337  10.943 -0.3213 -1.5943 -2.3828
  178SOPE  H12B20234   2.991   3.248  11.090 -0.1593  0.4333  0.5389
  178SOPE   C1120235   3.036   3.151  10.900 -0.0278 -0.1869 -0.7315
  178SOPE  H11A20236   2.944   3.089  10.911  1.4364 -3.0422 -3.2398
  178SOPE  H11B20237   3.111   3.082  10.943  3.4979  2.9205 -1.3641
  178SOPE     P20238   3.209   3.183  10.711  0.2050 -0.3433  0.1535
  178SOPE   O1320239   3.276   3.059  10.744  0.0618  0.5761  0.3393
  178SOPE   O1420240   3.269   3.304  10.768  0.3686 -0.5414 -0.5700
  178SOPE   O1220241   3.059   3.173  10.760 -0.0491  0.8101 -0.0650
  178SOPE   O1120242   3.201   3.193  10.559 -0.5073  0.5237 -0.1424
  178SOPE    C120243   3.199   3.089  10.461  0.5614 -0.0104  0.3695
  178SOPE    HA20244   3.118   3.013  10.474  0.6135 -1.0998 -3.9135
  178SOPE    HB20245   3.292   3.028  10.460 -0.2779 -1.3452  0.0408
  178SOPE    C220246   3.186   3.151  10.315  0.1829  0.5832  0.3511
  178SOPE    HS20247   3.168   3.072  10.239 -0.7359  1.4630 -0.3850
  178SOPE   O2120248   3.295   3.232  10.273  0.0347 -0.0467  0.0246
  178SOPE   C2120249   3.402   3.161  10.244  0.8923 -0.7503  0.4839
  178SOPE   O2220250   3.410   3.043  10.251  0.1348 -0.7373 -0.3580
  178SOPE   C2220251   3.508   3.259  10.189 -0.9208 -0.6404  0.5481
  178SOPE   H2R20252   3.608   3.213  10.207 -0.5802  0.1916  0.8288
  178SOPE   H2S20253   3.502   3.352  10.249 -1.4121  0.1305 -0.6589
  178SOPE    C320254   3.059   3.235  10.311  0.8927  0.5265 -0.0980
  178SOPE    HX20255   3.054   3.311  10.392 -1.4342 -0.2126  0.5306
  178SOPE    HY20256   2.981   3.169  10.355  0.1489  1.4258 -0.0185
  178SOPE   O3120257   3.019   3.267  10.178 -0.0122  0.2122 -0.1211
  178SOPE   C3120258   3.051   3.392  10.140  0.2274 -0.1505 -0.1638
  178SOPE   O3220259   3.114   3.476  10.204 -0.2447  0.4056  0.5700
  178SOPE   C3220260   3.019   3.397   9.990  0.2967 -0.8633 -0.1052
  178SOPE   H2X20261   2.920   3.349   9.972 -0.3718 -0.4098  2.0030
  178SOPE   H2Y20262   3.104   3.337   9.950  0.6813  0.0498 -0.6803
  178SOPE   C2320263   3.492   3.288  10.041  0.1531 -0.3535  0.3787
  178SOPE   H3R20264   3.551   3.379  10.014 -0.6932 -0.2953 -1.4682
  178SOPE   H3S20265   3.384   3.315  10.037  0.1342 -0.3663  0.7937
  178SOPE   C2420266   3.500   3.165   9.952  0.3781  0.8102 -0.1356
  178SOPE   H4R20267   3.597   3.115   9.970 -0.6671 -0.9158  0.9702
  178SOPE   H4S20268   3.418   3.091   9.963  1.1134  0.2037  1.6249
  178SOPE   C2520269   3.506   3.202   9.799  0.6288 -0.2963  0.0964
  178SOPE   H5R20270   3.567   3.294   9.785 -0.9175  1.0830  1.8334
  178SOPE   H5S20271   3.553   3.115   9.748  1.7083  0.7167 -0.6868
  178SOPE   C2620272   3.369   3.230   9.750  0.2794 -0.0576  0.5655
  178SOPE   H6R20273   3.300   3.145   9.772 -1.5183  0.9844 -0.7907
  178SOPE   H6S20274   3.321   3.321   9.791 -2.8248 -1.7391  0.9680
  178SOPE   C2720275   3.365   3.244   9.598 -0.2623  0.1340 -0.1880
  178SOPE   H7R20276   3.261   3.262   9.564  0.4715  4.1249 -0.8480
  178SOPE   H7S20277   3.429   3.329   9.566 -0.2250 -0.8024 -2.8302
  178SOPE   C2820278   3.419   3.114   9.518 -0.0535 -0.5669 -0.6809
  178SOPE   H8R20279   3.431   3.167   9.421  0.4206  0.9989  0.2098
  178SOPE   H8S20280   3.520   3.074   9.544  0.2917  0.9991  0.5138
  178SOPE   C2920281   3.315   3.002   9.528 -0.1113 -0.7696  0.9489
  178SOPE   H9120282   3.285   2.979   9.631  1.6904 -0.3861  1.5950
  178SOPE  C21020283   3.273   2.940   9.416 -0.1022  0.5259  0.3402
  178SOPE  H10120284   3.210   2.852   9.437 -0.3471  1.0222  1.8265
  178SOPE  C21120285   3.317   2.962   9.273  0.1147  0.1147  0.2259
  178SOPE  H11R20286   3.400   2.889   9.269  2.4451  2.4063  2.1906
  178SOPE  H11S20287   3.360   3.064   9.260 -2.4763  1.3706  0.6133
  178SOPE  C21220288   3.211   2.929   9.169 -1.0416 -0.1951 -0.9125
  178SOPE  H12R20289   3.235   2.978   9.072 -1.0561 -0.7292 -1.1897
  178SOPE  H12S20290   3.109   2.965   9.192 -1.7192 -2.5015 -0.0811
  178SOPE  C21320291   3.190   2.779   9.143  0.2289 -0.2265 -0.2780
  178SOPE  H13R20292   3.174   2.733   9.242  2.0404  0.1152  0.2042
  178SOPE  H13S20293   3.285   2.741   9.099  1.3119  0.4413  1.3990
  178SOPE  C21420294   3.063   2.737   9.066 -0.1123 -0.1180  0.3731
  178SOPE  H14R20295   2.975   2.770   9.124  0.1338  1.5598 -0.1601
  178SOPE  H14S20296   3.065   2.627   9.048  2.8745  0.0307 -0.7517
  178SOPE  C21520297   3.053   2.801   8.922 -0.0604 -0.1366 -0.0937
  178SOPE  H15R20298   3.078   2.909   8.923  0.6843 -0.2989 -0.2952
  178SOPE  H15S20299   2.952   2.807   8.876  0.9535  1.8647 -2.2682
  178SOPE  C21620300   3.144   2.727   8.814  0.3313 -0.1562 -0.3789
  178SOPE  H16R20301   3.105   2.624   8.799  0.8586 -0.9359  2.9381
  178SOPE  H16S20302   3.249   2.718   8.849  0.5526 -0.0524 -0.9976
  178SOPE  C21720303   3.126   2.792   8.675  0.3031 -0.5597  0.6664
  178SOPE  H17R20304   3.138   2.900   8.697 -1.9953 -0.1862  0.3596
  178SOPE  H17S20305   3.024   2.768   8.639 -0.3820 -2.4716  3.5389
  178SOPE  C21820306   3.219   2.754   8.568  0.5608 -0.4333 -0.2055
  178SOPE  H18R20307   3.202   2.796   8.466 -0.3417 -1.0395 -0.3205
  178SOPE  H18S20308   3.227   2.643   8.560 -0.2218 -0.4423 -1.0686
  178SOPE  H18T20309   3.317   2.787   8.608  0.5698 -0.3350 -0.3094
  178SOPE   C3320310   3.026   3.537   9.933  0.4346  0.2308 -0.1051
  178SOPE   H3X20311   3.113   3.590   9.978  0.6221 -1.3481  1.5036
  178SOPE   H3Y20312   2.934   3.597   9.952  0.9277  1.2423 -0.8004
  178SOPE   C3420313   3.047   3.532   9.776  0.3095 -0.2045  0.2655
  178SOPE   H4X20314   3.151   3.495   9.764  0.8034  1.8670 -3.3980
  178SOPE   H4Y20315   3.049   3.638   9.743 -1.7921 -0.0419  0.5391
  178SOPE   C3520316   2.938   3.459   9.706 -0.4855  0.7712 -0.1570
  178SOPE   H5X20317   2.836   3.489   9.740 -2.6227 -2.1469 -3.3732
  178SOPE   H5Y20318   2.938   3.350   9.728 -0.2073  0.9059  0.5416
  178SOPE   C3620319   2.942   3.479   9.556 -0.4579  0.1292 -0.2891
  178SOPE   H6X20320   3.023   3.552   9.534  0.6244 -0.6043  1.0570
  178SOPE   H6Y20321   2.857   3.534   9.511  0.5640  1.1144 -1.0613
  178SOPE   C3720322   2.967   3.350   9.487  0.2524  0.6834 -0.3001
  178SOPE   H7X20323   2.884   3.283   9.518  1.5527 -0.3977  1.0090
  178SOPE   H7Y20324   3.070   3.316   9.512  1.0023  1.6995 -1.8661
  178SOPE   C3820325   2.971   3.368   9.330  0.1239 -0.5498  0.5956
  178SOPE   H8X20326   3.049   3.439   9.295  0.1651  0.0237  1.7937
  178SOPE   H8Y20327   2.875   3.422   9.316 -0.2419 -1.1371  0.8027
  178SOPE   C3920328   2.962   3.238   9.242  0.8402 -0.3195 -0.9757
  178SOPE   H9X20329   2.879   3.169   9.268  0.9382 -0.6342 -1.4794
  178SOPE   H9Y20330   3.055   3.189   9.278  0.7501  1.8230  2.6826
  178SOPE  C31020331   2.965   3.257   9.087  0.5399  0.2408 -0.0706
  178SOPE  H10X20332   2.967   3.156   9.040 -2.8724 -0.1996  0.4151
  178SOPE  H10Y20333   3.062   3.308   9.070  0.8848 -0.5550 -0.5751
  178SOPE  C31120334   2.848   3.341   9.027 -0.5079  0.1112 -0.3854
  178SOPE  H11X20335   2.834   3.426   9.097 -1.8682 -1.1838  1.0062
  178SOPE  H11Y20336   2.753   3.289   9.054  0.5600 -1.1452  1.1846
  178SOPE  C31220337   2.856   3.376   8.881 -0.6243  0.8229  0.0685
  178SOPE  H12X20338   2.876   3.279   8.832  0.5135  0.6535  0.8474
  178SOPE  H12Y20339   2.938   3.450   8.876 -0.0646  0.1986 -0.0360
  178SOPE  C31320340   2.735   3.438   8.823  0.2213 -0.1637 -0.2551
  178SOPE  H13X20341   2.727   3.540   8.867  1.8311 -0.1394  0.0331
  178SOPE  H13Y20342   2.647   3.374   8.842  1.3237 -1.5621  0.3104
  178SOPE  C31420343   2.744   3.471   8.675 -0.4208  0.0783 -0.2283
  178SOPE  H14X20344   2.749   3.376   8.617  0.4820 -0.0956  0.1183
  178SOPE  H14Y20345   2.831   3.534   8.643  1.3684 -2.0071  0.2646
  178SOPE  C31520346   2.623   3.545   8.613 -0.4966  0.3936  0.0613
  178SOPE  H15X20347   2.629   3.541   8.502  2.6551  0.4718  0.1386
  178SOPE  H15Y20348   2.633   3.651   8.645 -3.2534  0.8782 -0.4408
  178SOPE  C31620349   2.488   3.486   8.652 -0.5410  0.4092 -0.0754
  178SOPE  H16X20350   2.474   3.499   8.761 -2.0626  0.2592 -0.2338
  178SOPE  H16Y20351   2.494   3.377   8.636  0.6786  0.5434 -0.6880
  178SOPE  C31720352   2.367   3.546   8.577  0.3286 -0.0614 -0.2999
  178SOPE  H17X20353   2.387   3.577   8.472  1.2247  3.1193  0.7085
  178SOPE  H17Y20354   2.369   3.647   8.624 -1.1889  0.0480 -0.4056
  178SOPE  C31820355   2.241   3.459   8.588  0.5083  0.0091 -0.3123
  178SOPE  H18X20356   2.202   3.441   8.690 -0.8362  2.0210 -0.4153
  178SOPE  H18Y20357   2.264   3.366   8.531  1.9407 -0.4630  0.9488
  178SOPE  H18Z20358   2.163   3.512   8.530  0.4145 -1.3012 -1.4411
  179SOPE     N20359   0.942   5.431   6.494  0.1445  0.6590 -0.4254
  179SOPE   HN120360   0.843   5.436   6.527 -0.3740 -0.8536 -1.6148
  179SOPE   HN220361   0.982   5.526   6.502 -0.7195  0.8443  4.5873
  179SOPE   HN320362   0.940   5.396   6.396 -0.4026  0.6390 -0.4108
  179SOPE   C1220363   1.023   5.344   6.580  0.3011  0.7752  0.3163
  179SOPE  H12A20364   1.018   5.365   6.689  0.2692 -0.6694  0.6040
  179SOPE  H12B20365   1.128   5.371   6.554 -0.9488  3.7650 -2.3188
  179SOPE   C1120366   0.998   5.198   6.542  0.0557  0.4572 -0.2936
  179SOPE  H11A20367   1.035   5.184   6.438  0.6982 -1.4806  0.1709
  179SOPE  H11B20368   0.889   5.181   6.550 -0.0436  1.5662  1.0281
  179SOPE     P20369   1.054   4.951   6.625  0.0920 -0.1591  0.1466
  179SOPE   O1320370   1.123   4.896   6.742 -0.4531  0.7737  0.7503
  179SOPE   O1420371   1.068   4.882   6.495 -0.4704 -0.0151 -0.5212
  179SOPE   O1220372   1.071   5.109   6.627  0.1025  0.1356 -0.2059
  179SOPE   O1120373   0.896   4.944   6.661  0.5486 -0.2881  0.0999
  179SOPE    C120374   0.844   4.938   6.798  0.9480 -0.5526 -0.1158
  179SOPE    HA20375   0.920   4.890   6.863  2.1859 -1.1166 -1.8911
  179SOPE    HB20376   0.755   4.872   6.799  0.4905  0.0631  0.1541
  179SOPE    C220377   0.805   5.085   6.849  0.1618  0.7110  0.0526
  179SOPE    HS20378   0.895   5.148   6.827 -0.5773  1.7749 -0.0051
  179SOPE   O2120379   0.766   5.087   6.991 -0.3259 -0.3947  0.2124
  179SOPE   C2120380   0.874   5.081   7.073 -0.7267 -0.3032  0.3656
  179SOPE   O2220381   0.991   5.061   7.036  0.5022 -0.2350  0.0622
  179SOPE   C2220382   0.831   5.087   7.212 -0.2386  0.2252 -0.2922
  179SOPE   H2R20383   0.766   4.999   7.227  0.1715 -0.7408 -3.3953
  179SOPE   H2S20384   0.790   5.185   7.244  0.5941  0.1810  1.0043
  179SOPE    C320385   0.686   5.136   6.775 -0.8953 -0.3420 -0.0921
  179SOPE    HX20386   0.614   5.051   6.771 -0.6411 -0.5309 -0.8690
  179SOPE    HY20387   0.722   5.149   6.671  0.3947  0.9076  0.4824
  179SOPE   O3120388   0.630   5.252   6.833  0.0651 -0.0570 -0.0180
  179SOPE   C3120389   0.644   5.367   6.753  0.1842  0.4008  0.8721
  179SOPE   O3220390   0.710   5.367   6.649  0.1838  0.9800  0.1992
  179SOPE   C3220391   0.579   5.487   6.815  0.2568 -0.0188  0.1699
  179SOPE   H2X20392   0.548   5.444   6.912 -0.5676 -1.2455 -0.6175
  179SOPE   H2Y20393   0.486   5.512   6.761  0.5685 -0.3965 -0.5593
  179SOPE   C2320394   0.945   5.050   7.314  0.0304 -0.8313 -0.3126
  179SOPE   H3R20395   0.996   4.956   7.284  2.1090 -0.1338  0.8770
  179SOPE   H3S20396   0.898   5.029   7.412 -2.2494  0.8393 -0.9543
  179SOPE   C2420397   1.055   5.161   7.312  0.3967  0.1965  0.7709
  179SOPE   H4R20398   1.129   5.140   7.233 -0.0432  1.5806 -0.0295
  179SOPE   H4S20399   1.014   5.263   7.296 -0.8303 -0.3985 -0.1244
  179SOPE   C2520400   1.116   5.156   7.452  0.0422 -1.0751 -0.7391
  179SOPE   H5R20401   1.036   5.187   7.523  2.2544 -2.1496  2.4073
  179SOPE   H5S20402   1.160   5.058   7.479  0.5490 -0.3312  1.2714
  179SOPE   C2620403   1.231   5.250   7.465 -0.0843  0.2376 -0.1137
  179SOPE   H6R20404   1.313   5.237   7.392 -0.1536  0.4722 -0.2354
  179SOPE   H6S20405   1.190   5.349   7.436 -1.0392 -0.3589 -0.8607
  179SOPE   C2720406   1.287   5.255   7.604 -0.9913  0.5094  0.3033
  179SOPE   H7R20407   1.341   5.347   7.634 -1.4086  0.7743  0.2510
  179SOPE   H7S20408   1.205   5.236   7.677  0.2956 -0.4175  1.5563
  179SOPE   C2820409   1.379   5.128   7.620  0.3689 -0.0854  0.1861
  179SOPE   H8R20410   1.311   5.044   7.646 -1.2534  1.5304  1.4397
  179SOPE   H8S20411   1.423   5.094   7.524 -1.6138 -0.1710 -0.7344
  179SOPE   C2920412   1.494   5.137   7.719  0.1022 -0.1618 -0.0346
  179SOPE   H9120413   1.596   5.158   7.683  0.2986 -0.8278  0.1036
  179SOPE  C21020414   1.479   5.148   7.854 -0.5085  0.3870  0.3119
  179SOPE  H10120415   1.570   5.158   7.914  0.5765  1.4342 -1.4102
  179SOPE  C21120416   1.357   5.145   7.933 -0.1097  0.4957  0.1441
  179SOPE  H11R20417   1.261   5.134   7.878 -0.7127 -1.3105  1.4561
  179SOPE  H11S20418   1.353   5.249   7.973  2.9814  1.0146 -0.6131
  179SOPE  C21220419   1.353   5.038   8.054  0.4918  0.0364  1.0182
  179SOPE  H12R20420   1.391   4.945   8.006 -1.8336 -0.1196 -0.6886
  179SOPE  H12S20421   1.247   5.030   8.086 -0.0089  0.1509 -0.5067
  179SOPE  C21320422   1.442   5.076   8.174 -0.0331  0.1895 -0.0855
  179SOPE  H13R20423   1.416   5.180   8.202 -0.9006  0.1121 -0.5694
  179SOPE  H13S20424   1.551   5.081   8.155  0.0310  0.4592  0.3231
  179SOPE  C21420425   1.411   4.986   8.297  0.7912  0.5239 -0.1661
  179SOPE  H14R20426   1.301   4.974   8.306  0.7829  1.3995  1.3876
  179SOPE  H14S20427   1.447   5.042   8.387  1.3686 -0.0629 -0.0240
  179SOPE  C21520428   1.464   4.840   8.296  0.3018  0.2796 -0.1692
  179SOPE  H15R20429   1.573   4.849   8.317  0.3283 -0.1787 -0.1123
  179SOPE  H15S20430   1.447   4.798   8.195  2.7383  0.7121 -0.8407
  179SOPE  C21620431   1.396   4.749   8.396  0.0810  0.3416  0.2548
  179SOPE  H16R20432   1.409   4.640   8.377  1.1289  0.2642  1.2684
  179SOPE  H16S20433   1.285   4.760   8.399  0.0357 -0.0935  0.2996
  179SOPE  C21720434   1.436   4.764   8.540 -0.2951 -0.5750 -0.8157
  179SOPE  H17R20435   1.350   4.715   8.592 -0.0894 -0.6399 -0.5372
  179SOPE  H17S20436   1.440   4.872   8.568  3.6469 -0.6809 -0.4708
  179SOPE  C21820437   1.558   4.689   8.587 -0.6677  0.5871  0.0535
  179SOPE  H18R20438   1.650   4.706   8.527  1.4287 -1.1324  2.6018
  179SOPE  H18S20439   1.529   4.583   8.598 -0.1934  0.4899  0.3844
  179SOPE  H18T20440   1.591   4.708   8.691 -0.0874  1.9466 -0.3531
  179SOPE   C3320441   0.676   5.607   6.854  0.1623  0.0304  0.6109
  179SOPE   H3X20442   0.604   5.685   6.885 -0.9326  0.0374 -1.7148
  179SOPE   H3Y20443   0.732   5.651   6.769  1.3499 -1.5657  0.5194
  179SOPE   C3420444   0.782   5.572   6.960  0.3333 -0.3329  0.5912
  179SOPE   H4X20445   0.807   5.672   7.002 -3.2000  1.3546 -0.9192
  179SOPE   H4Y20446   0.876   5.522   6.927 -1.0161 -1.4882 -1.7795
  179SOPE   C3520447   0.728   5.486   7.079  0.6273 -0.3192  0.5810
  179SOPE   H5X20448   0.714   5.378   7.055  1.9765 -0.1850 -1.0047
  179SOPE   H5Y20449   0.632   5.534   7.107  2.0798  1.6748  2.4749
  179SOPE   C3620450   0.818   5.504   7.201 -0.1845  0.5873 -0.2706
  179SOPE   H6X20451   0.921   5.502   7.159 -0.0352  2.3848 -0.0906
  179SOPE   H6Y20452   0.798   5.415   7.263  1.2736 -0.7134 -1.5808
  179SOPE   C3720453   0.794   5.614   7.305  0.3125 -0.1372 -0.5315
  179SOPE   H7X20454   0.695   5.582   7.342  0.3146 -0.6031 -0.9206
  179SOPE   H7Y20455   0.790   5.713   7.253  2.1991 -0.9756 -2.4365
  179SOPE   C3820456   0.887   5.633   7.421 -0.3301  0.0130  0.2187
  179SOPE   H8X20457   0.851   5.721   7.479  0.5865 -1.4236  3.2083
  179SOPE   H8Y20458   0.995   5.650   7.399 -1.1525  1.6575 -3.0855
  179SOPE   C3920459   0.883   5.526   7.532 -0.2433 -1.0351 -0.1844
  179SOPE   H9X20460   0.906   5.425   7.491  1.4614 -0.9716  0.5340
  179SOPE   H9Y20461   0.777   5.520   7.563 -0.0121 -1.8592  0.4785
  179SOPE  C31020462   0.987   5.544   7.646  0.7500 -0.4022 -0.0720
  179SOPE  H10X20463   0.960   5.646   7.680 -1.3127 -0.5478 -1.1058
  179SOPE  H10Y20464   1.089   5.547   7.602  0.1557  1.9372 -1.4436
  179SOPE  C31120465   0.977   5.433   7.757 -0.3655 -0.5551  0.3722
  179SOPE  H11X20466   1.015   5.344   7.703 -1.9603 -1.4674  0.7006
  179SOPE  H11Y20467   0.869   5.421   7.779 -0.2583 -0.9812  0.6845
  179SOPE  C31220468   1.045   5.463   7.893  0.6215 -0.0506  0.8856
  179SOPE  H12X20469   1.037   5.570   7.921  2.4105  0.4799 -0.4045
  179SOPE  H12Y20470   1.155   5.448   7.893  0.8136  0.9624 -1.4115
  179SOPE  C31320471   0.972   5.389   8.011  0.2348 -0.2416 -0.1650
  179SOPE  H13X20472   0.969   5.281   7.985 -3.2757 -0.3281  0.1704
  179SOPE  H13Y20473   0.867   5.423   8.017 -0.6242 -2.9492  3.8189
  179SOPE  C31420474   1.049   5.421   8.146  0.2497  0.3134  0.1166
  179SOPE  H14X20475   1.107   5.509   8.110  0.0692  0.3385 -0.1175
  179SOPE  H14Y20476   1.129   5.349   8.172  1.5035  1.6622  0.1487
  179SOPE  C31520477   0.963   5.468   8.257  0.2771  0.0635  0.1125
  179SOPE  H15X20478   0.885   5.395   8.288 -1.2333  0.2660 -2.8701
  179SOPE  H15Y20479   0.903   5.557   8.229  0.5069  1.2277  2.9852
  179SOPE  C31620480   1.046   5.502   8.385  0.7558  0.5684 -0.0551
  179SOPE  H16X20481   1.119   5.583   8.360  1.3785  0.1263  0.3076
  179SOPE  H16Y20482   1.108   5.416   8.419 -1.2674 -0.1942  1.9860
  179SOPE  C31720483   0.956   5.552   8.499 -0.6768  0.0325 -0.1367
  179SOPE  H17X20484   0.913   5.455   8.532  1.4302 -0.3794  1.6480
  179SOPE  H17Y20485   0.880   5.621   8.455 -1.6567  1.1409  2.9700
  179SOPE  C31820486   1.037   5.631   8.611  0.5507  0.3854 -0.5347
  179SOPE  H18X20487   1.111   5.559   8.650 -1.0156 -2.0448 -1.8156
  179SOPE  H18Y20488   0.975   5.664   8.697 -0.3487 -1.1654 -0.5473
  179SOPE  H18Z20489   1.098   5.716   8.573 -0.7433  1.9835  0.7925
  180SOPE     N20490   5.858   4.074   6.425  0.1616 -0.8849  0.0140
  180SOPE   HN120491   5.840   3.978   6.459  1.9318 -1.0857  0.4628
  180SOPE   HN220492   5.830   4.089   6.326 -0.0576 -1.0565  0.0508
  180SOPE   HN320493   5.959   4.098   6.426  0.0939 -0.6011  0.5054
  180SOPE   C1220494   5.766   4.172   6.496  0.1700  0.0243  0.0551
  180SOPE  H12A20495   5.769   4.135   6.600  0.4968  0.3665  0.1686
  180SOPE  H12B20496   5.668   4.159   6.445  0.1894  3.6914 -1.2011
  180SOPE   C1120497   5.810   4.316   6.483 -0.3849 -0.2409 -0.2264
  180SOPE  H11A20498   5.905   4.324   6.541 -0.7289  0.5711  0.2413
  180SOPE  H11B20499   5.745   4.379   6.548 -0.2903 -2.1919  1.8997
  180SOPE     P20500   5.932   4.448   6.297 -0.0384  0.0918 -0.0160
  180SOPE   O1320501   5.887   4.499   6.167 -0.9360  0.2823  0.2989
  180SOPE   O1420502   6.063   4.379   6.306  0.5658 -0.3229  0.2059
  180SOPE   O1220503   5.817   4.356   6.345 -0.4469 -1.0501  0.3566
  180SOPE   O1120504   5.923   4.558   6.409 -0.1297 -0.1094 -0.0345
  180SOPE    C120505   6.045   4.620   6.453  0.4162 -0.2143  0.0163
  180SOPE    HA20506   6.036   4.731   6.451 -0.4223 -0.2457 -2.9792
  180SOPE    HB20507   6.129   4.598   6.384 -0.3780  1.0775 -1.4427
  180SOPE    C220508   6.090   4.577   6.596 -0.4305  0.4364  0.1138
  180SOPE    HS20509   6.073   4.467   6.598 -1.6751  0.4595 -3.1134
  180SOPE   O2120510   6.004   4.643   6.688  0.1496 -0.8718  0.1917
  180SOPE   C2120511   5.983   4.582   6.803  0.6112 -0.4093 -0.1927
  180SOPE   O2220512   6.029   4.477   6.834  0.4026  0.0398  0.0437
  180SOPE   C2220513   5.873   4.650   6.895 -0.3221 -0.1880 -0.0372
  180SOPE   H2R20514   5.870   4.596   6.993  3.5312  1.2774  1.0822
  180SOPE   H2S20515   5.773   4.647   6.848 -1.9565 -1.3955  3.1891
  180SOPE    C320516   6.245   4.597   6.607 -0.2222 -0.4104  0.4276
  180SOPE    HX20517   6.280   4.684   6.548 -0.2267  0.9328  2.3099
  180SOPE    HY20518   6.301   4.506   6.575 -0.7879 -0.4995 -0.3278
  180SOPE   O3120519   6.276   4.619   6.751 -0.4944  0.5708  0.2938
  180SOPE   C3120520   6.318   4.515   6.823 -0.0754  0.1894 -0.2995
  180SOPE   O3220521   6.350   4.405   6.778 -0.0693 -0.4961 -0.6706
  180SOPE   C3220522   6.319   4.543   6.970 -0.7246  0.2439  0.8668
  180SOPE   H2X20523   6.273   4.456   7.021  0.7825 -0.9410  0.2624
  180SOPE   H2Y20524   6.264   4.634   7.003 -0.5958  0.0934  1.5095
  180SOPE   C2320525   5.917   4.797   6.924 -1.0807 -0.2100  0.5749
  180SOPE   H3R20526   5.831   4.853   6.967  0.7608  2.5249  0.9190
  180SOPE   H3S20527   5.945   4.844   6.828  2.1678 -3.3675 -0.2442
  180SOPE   C2420528   6.035   4.803   7.026  0.2652 -0.0521  0.3130
  180SOPE   H4R20529   6.119   4.747   6.980 -0.2006 -0.6769  0.2134
  180SOPE   H4S20530   6.066   4.908   7.047  1.4041  0.0154 -1.5375
  180SOPE   C2520531   6.016   4.729   7.157 -0.0291 -0.3323  0.6596
  180SOPE   H5R20532   6.014   4.621   7.132 -0.7191 -0.6069  1.8119
  180SOPE   H5S20533   6.106   4.745   7.221  0.7201 -1.3197 -0.1096
  180SOPE   C2620534   5.890   4.764   7.233  0.2862  0.6251 -0.2000
  180SOPE   H6R20535   5.915   4.868   7.262  0.3189  1.1237 -1.9071
  180SOPE   H6S20536   5.803   4.776   7.164 -1.6515  2.8786  2.3775
  180SOPE   C2720537   5.856   4.676   7.352 -0.2953  0.0619 -0.1736
  180SOPE   H7R20538   5.747   4.680   7.372 -0.0127 -0.4961  1.6753
  180SOPE   H7S20539   5.879   4.570   7.326 -1.4260 -1.3656  3.8633
  180SOPE   C2820540   5.930   4.695   7.485  0.1304  0.6608  0.2479
  180SOPE   H8R20541   6.039   4.688   7.465 -0.0865  1.7246 -1.4485
  180SOPE   H8S20542   5.921   4.804   7.504 -2.9935  0.6005 -0.3093
  180SOPE   C2920543   5.894   4.612   7.607  0.0373 -0.9908  0.4900
  180SOPE   H9120544   5.855   4.514   7.577 -0.7626  0.1816 -2.7169
  180SOPE  C21020545   5.892   4.646   7.734 -0.3097 -0.8180  0.4003
  180SOPE  H10120546   5.853   4.568   7.801  2.4743 -1.9518  0.8225
  180SOPE  C21120547   5.929   4.776   7.807  0.1659  0.6993  0.4342
  180SOPE  H11R20548   5.972   4.852   7.737 -0.8977  0.7326 -0.2026
  180SOPE  H11S20549   5.997   4.748   7.890  0.0172  1.2743  0.7511
  180SOPE  C21220550   5.799   4.842   7.865  0.5330 -0.2131 -0.3093
  180SOPE  H12R20551   5.729   4.847   7.779 -3.0518 -2.1181  2.2511
  180SOPE  H12S20552   5.823   4.948   7.884 -0.4002  0.0244 -0.4161
  180SOPE  C21320553   5.728   4.767   7.982 -0.3494 -0.1384  0.3589
  180SOPE  H13R20554   5.726   4.657   7.973  1.5567 -0.4242  2.5777
  180SOPE  H13S20555   5.622   4.801   7.982 -0.9893 -2.0028 -0.5910
  180SOPE  C21420556   5.787   4.805   8.117  0.4336  0.1612  0.0033
  180SOPE  H14R20557   5.769   4.913   8.135 -2.4244 -0.2464  0.0870
  180SOPE  H14S20558   5.897   4.795   8.119  0.5910  1.7298  0.5336
  180SOPE  C21520559   5.719   4.728   8.229  0.6539  0.4041 -0.1435
  180SOPE  H15R20560   5.774   4.631   8.233 -0.2863 -0.1956 -1.1387
  180SOPE  H15S20561   5.612   4.708   8.210  0.1494  0.6130  2.2075
  180SOPE  C21620562   5.732   4.787   8.369  0.2627  0.1714 -0.3337
  180SOPE  H16R20563   5.658   4.737   8.436  0.1707  1.2870  0.4323
  180SOPE  H16S20564   5.692   4.890   8.357  2.3551  0.8376 -2.3315
  180SOPE  C21720565   5.877   4.772   8.417  0.2094 -0.1751 -0.4829
  180SOPE  H17R20566   5.949   4.803   8.338 -0.4396 -0.8916 -1.3838
  180SOPE  H17S20567   5.894   4.664   8.435 -0.4112 -0.4057 -1.1830
  180SOPE  C21820568   5.901   4.857   8.543 -0.1643 -0.0685 -0.1686
  180SOPE  H18R20569   5.816   4.832   8.610 -0.0605  1.6542  0.6692
  180SOPE  H18S20570   5.907   4.965   8.515 -0.9010 -0.0681 -0.3493
  180SOPE  H18T20571   5.996   4.826   8.590 -0.0818  0.4457  0.0088
  180SOPE   C3320572   6.460   4.546   7.032 -0.3124  0.2436  0.7896
  180SOPE   H3X20573   6.528   4.608   6.971  0.3374 -0.1010  1.1478
  180SOPE   H3Y20574   6.512   4.450   7.011 -0.0309  0.8234 -1.3896
  180SOPE   C3420575   6.463   4.585   7.177  0.6590 -0.2440  0.2344
  180SOPE   H4X20576   6.567   4.584   7.215  0.9168 -2.4825 -0.3771
  180SOPE   H4Y20577   6.403   4.509   7.232 -0.1612 -0.9852 -1.6047
  180SOPE   C3520578   6.412   4.726   7.202  0.3541 -0.1767  0.2860
  180SOPE   H5X20579   6.334   4.764   7.132  1.9052  0.3975 -1.2014
  180SOPE   H5Y20580   6.502   4.789   7.189  1.4061 -1.8870 -1.3320
  180SOPE   C3620581   6.356   4.734   7.344 -0.2427 -0.4548 -0.3144
  180SOPE   H6X20582   6.265   4.670   7.353  0.1457 -0.9632  0.0771
  180SOPE   H6Y20583   6.334   4.841   7.365  1.8195  0.2079 -1.2702
  180SOPE   C3720584   6.451   4.679   7.451  0.3878 -0.2376 -0.0398
  180SOPE   H7X20585   6.552   4.716   7.424 -0.3612  1.3020 -0.8268
  180SOPE   H7Y20586   6.455   4.568   7.456  0.0383 -0.3041 -1.0391
  180SOPE   C3820587   6.423   4.723   7.596 -0.0191  0.2171  0.2329
  180SOPE   H8X20588   6.490   4.680   7.673  0.5376  1.9832  0.7702
  180SOPE   H8Y20589   6.316   4.693   7.608  0.6020 -2.0402  0.6259
  180SOPE   C3920590   6.434   4.871   7.616  0.2826 -0.7952  0.0494
  180SOPE   H9X20591   6.356   4.921   7.554 -0.0292 -1.3084  0.0212
  180SOPE   H9Y20592   6.537   4.903   7.590  1.4953 -2.3531  2.5957
  180SOPE  C31020593   6.407   4.914   7.759  1.2585  0.5322 -0.4961
  180SOPE  H10X20594   6.478   4.874   7.835 -1.3218 -1.7834  0.8627
  180SOPE  H10Y20595   6.308   4.870   7.784  1.8711 -1.2002 -0.9668
  180SOPE  C31120596   6.416   5.067   7.770  0.0986  0.4019 -0.1783
  180SOPE  H11X20597   6.359   5.121   7.692  1.3863  1.1379 -0.6556
  180SOPE  H11Y20598   6.524   5.083   7.747 -0.1512  2.7231  0.0449
  180SOPE  C31220599   6.389   5.120   7.904 -0.1808 -0.3772 -0.1513
  180SOPE  H12X20600   6.286   5.098   7.941 -0.5468 -0.2954 -1.0795
  180SOPE  H12Y20601   6.401   5.230   7.900 -0.3283 -0.3602 -0.1627
  180SOPE  C31320602   6.483   5.071   8.013  0.4080  0.5517 -0.3795
  180SOPE  H13X20603   6.591   5.063   7.990  0.2638  1.8405 -1.5776
  180SOPE  H13Y20604   6.455   4.968   8.045  2.2729  0.1581  0.0657
  180SOPE  C31420605   6.471   5.166   8.139 -0.7624  0.1315  0.2660
  180SOPE  H14X20606   6.507   5.265   8.105 -2.2386  0.9585  1.0080
  180SOPE  H14Y20607   6.542   5.131   8.217 -1.0346 -1.3926 -0.1357
  180SOPE  C31520608   6.333   5.187   8.196 -0.4573  0.4852 -0.4460
  180SOPE  H15X20609   6.256   5.223   8.125  0.2964 -0.1228 -1.6050
  180SOPE  H15Y20610   6.341   5.260   8.279 -2.5197  1.5465 -1.1127
  180SOPE  C31620611   6.278   5.060   8.275  1.2387 -0.6848 -0.5986
  180SOPE  H16X20612   6.349   5.013   8.346  1.3675  2.0914  1.2692
  180SOPE  H16Y20613   6.247   4.987   8.197  0.6423 -0.9130 -0.1518
  180SOPE  C31720614   6.149   5.103   8.353  0.8058 -0.1587 -0.7310
  180SOPE  H17X20615   6.168   5.167   8.442 -0.9017 -1.9295  1.0043
  180SOPE  H17Y20616   6.108   5.006   8.390  0.1714 -0.7868 -2.9071
  180SOPE  C31820617   6.037   5.155   8.261 -0.0828  0.4940 -0.4711
  180SOPE  H18X20618   6.054   5.262   8.235  0.9909  1.1200  2.4688
  180SOPE  H18Y20619   5.944   5.147   8.322  1.0556  1.5032  1.4812
  180SOPE  H18Z20620   6.028   5.093   8.169  0.8646 -1.5156  0.7378
  181SOPE     N20621   1.480   3.629   6.174  0.2973  0.1530 -0.0638
  181SOPE   HN120622   1.584   3.630   6.180  0.3113  1.0900 -0.2758
  181SOPE   HN220623   1.478   3.612   6.071  0.6485  3.3243 -0.7021
  181SOPE   HN320624   1.444   3.726   6.184 -0.9931 -0.1749 -1.2613
  181SOPE   C1220625   1.395   3.542   6.263  0.3909  0.2696 -0.4657
  181SOPE  H12A20626   1.290   3.565   6.236 -0.1921  0.4861  1.7466
  181SOPE  H12B20627   1.420   3.594   6.358  0.6710 -0.4305 -0.1454
  181SOPE   C1120628   1.446   3.398   6.254 -0.3291  0.0006  0.6009
  181SOPE  H11A20629   1.424   3.360   6.152 -2.0243 -0.6438  1.1628
  181SOPE  H11B20630   1.368   3.338   6.306 -0.7236  0.6316  0.7553
  181SOPE     P20631   1.638   3.260   6.380  0.5601  0.0638 -0.4961
  181SOPE   O1320632   1.767   3.298   6.440 -0.1856 -0.1959  0.0885
  181SOPE   O1420633   1.631   3.138   6.298  0.4541  0.6012 -0.6690
  181SOPE   O1220634   1.582   3.389   6.299 -0.1701  0.9308 -0.6412
  181SOPE   O1120635   1.542   3.243   6.502 -0.4818 -0.1814 -0.3404
  181SOPE    C120636   1.487   3.348   6.586  0.5675 -0.1450  0.1465
  181SOPE    HA20637   1.382   3.359   6.550  0.9129 -0.5256 -1.0176
  181SOPE    HB20638   1.532   3.447   6.565 -1.4083  0.5871 -0.9418
  181SOPE    C220639   1.474   3.316   6.738  0.3264  0.9931 -0.5839
  181SOPE    HS20640   1.480   3.412   6.793  2.1621  0.0477  1.0324
  181SOPE   O2120641   1.580   3.226   6.773  0.1802  0.8459  0.1366
  181SOPE   C2120642   1.695   3.277   6.796  0.1564  1.3933  1.0978
  181SOPE   O2220643   1.721   3.398   6.792 -0.4975  0.2855 -0.0815
  181SOPE   C2220644   1.799   3.168   6.821  0.0961  0.4311 -0.2319
  181SOPE   H2R20645   1.843   3.139   6.724 -0.0239 -0.6815  0.0380
  181SOPE   H2S20646   1.747   3.083   6.869  1.1983 -1.7066 -2.6085
  181SOPE    C320647   1.346   3.241   6.780 -0.0019  0.6505  0.5001
  181SOPE    HX20648   1.353   3.146   6.724  2.0161  1.0293  0.0205
  181SOPE    HY20649   1.262   3.298   6.733  2.3236  1.2328 -3.4291
  181SOPE   O3120650   1.331   3.224   6.923 -0.2181 -0.9410  0.2134
  181SOPE   C3120651   1.386   3.116   6.967  0.0498 -0.7964 -0.7700
  181SOPE   O3220652   1.452   3.031   6.909  0.0933 -0.0679  0.5063
  181SOPE   C3220653   1.358   3.107   7.115  0.2036 -0.0531  0.9431
  181SOPE   H2X20654   1.272   3.038   7.129  1.1490 -2.3708 -3.0551
  181SOPE   H2Y20655   1.341   3.211   7.149  2.4595  0.1562  1.6064
  181SOPE   C2320656   1.916   3.221   6.912  0.3453 -0.3384  0.1972
  181SOPE   H3R20657   1.951   3.315   6.866 -0.7569  0.4044  0.8266
  181SOPE   H3S20658   2.002   3.150   6.915  0.0234 -0.6928  2.2393
  181SOPE   C2420659   1.870   3.240   7.054 -0.4514 -0.3072  0.3886
  181SOPE   H4R20660   1.789   3.317   7.060  0.7795  1.1031 -0.3887
  181SOPE   H4S20661   1.817   3.147   7.084 -3.3401  1.4419  1.1236
  181SOPE   C2520662   1.983   3.258   7.145  0.2427 -0.0603 -0.7412
  181SOPE   H5R20663   2.009   3.159   7.190 -1.7364 -1.5060 -2.5897
  181SOPE   H5S20664   2.077   3.285   7.092  1.3565 -1.1725  0.5768
  181SOPE   C2620665   1.961   3.337   7.271 -0.1624 -0.8239 -0.3303
  181SOPE   H6R20666   2.051   3.356   7.332 -1.0788 -1.0706  1.1424
  181SOPE   H6S20667   1.912   3.436   7.252 -0.9660 -0.2893  3.6649
  181SOPE   C2720668   1.861   3.267   7.366  0.3119  0.6913  0.2472
  181SOPE   H7R20669   1.754   3.294   7.351  0.0895 -0.8593 -1.3143
  181SOPE   H7S20670   1.870   3.159   7.339 -0.0648  0.9580 -1.0119
  181SOPE   C2820671   1.903   3.271   7.520 -0.7917 -0.4259 -0.0080
  181SOPE   H8R20672   1.832   3.212   7.582 -0.1307 -1.4755 -0.2253
  181SOPE   H8S20673   2.006   3.230   7.525 -0.6400 -0.2993 -1.6435
  181SOPE   C2920674   1.891   3.413   7.567  0.1929 -0.2246 -0.0337
  181SOPE   H9120675   1.942   3.484   7.500  0.0421 -1.0454 -1.0381
  181SOPE  C21020676   1.818   3.462   7.674  0.5109 -0.2036 -0.1915
  181SOPE  H10120677   1.805   3.567   7.702  0.3063 -0.9660  2.9696
  181SOPE  C21120678   1.744   3.369   7.765  0.3880 -0.0450  0.0701
  181SOPE  H11R20679   1.807   3.280   7.785 -0.2547 -0.0824  2.1937
  181SOPE  H11S20680   1.648   3.338   7.717  2.2006 -1.2349 -3.0738
  181SOPE  C21220681   1.720   3.437   7.903  0.4210 -0.4630  0.0018
  181SOPE  H12R20682   1.641   3.385   7.962 -0.8938 -0.2791 -1.5570
  181SOPE  H12S20683   1.679   3.539   7.890 -0.3479 -0.7777 -0.0631
  181SOPE  C21320684   1.852   3.470   7.981  0.6528  0.1066 -0.7265
  181SOPE  H13R20685   1.928   3.512   7.912  2.4276  1.0614  1.6704
  181SOPE  H13S20686   1.898   3.373   8.007 -1.4822 -0.4068  1.5371
  181SOPE  C21420687   1.837   3.563   8.104 -0.2030  0.2249 -0.0052
  181SOPE  H14R20688   1.791   3.658   8.072  0.5742  0.1660 -1.4184
  181SOPE  H14S20689   1.936   3.600   8.138  1.8464 -2.3559 -2.5609
  181SOPE  C21520690   1.763   3.511   8.223 -0.2708  0.4886  0.6370
  181SOPE  H15R20691   1.697   3.428   8.189 -0.9246  1.3217 -0.1533
  181SOPE  H15S20692   1.694   3.585   8.268 -2.4713  0.1405 -1.9398
  181SOPE  C21620693   1.860   3.460   8.328  0.3262  0.3832  0.5002
  181SOPE  H16R20694   1.928   3.542   8.360 -2.1441  3.4504 -1.5570
  181SOPE  H16S20695   1.925   3.383   8.279  1.1826  1.1651  0.3710
  181SOPE  C21720696   1.791   3.390   8.446 -0.4738 -0.9368  0.0490
  181SOPE  H17R20697   1.733   3.309   8.398 -2.4795  0.3786  0.1321
  181SOPE  H17S20698   1.724   3.457   8.503  0.5470 -0.6718  0.9732
  181SOPE  C21820699   1.895   3.338   8.541  0.4700 -0.4578  0.9175
  181SOPE  H18R20700   1.954   3.421   8.587  1.0077  0.5163 -1.3838
  181SOPE  H18S20701   1.968   3.269   8.494 -0.1564 -1.3602  1.2295
  181SOPE  H18T20702   1.842   3.282   8.621  0.9851 -1.6490  0.4473
  181SOPE   C3320703   1.485   3.064   7.188  0.1073  0.0322  0.2924
  181SOPE   H3X20704   1.546   3.157   7.193 -1.2925  0.8951  2.2480
  181SOPE   H3Y20705   1.541   2.982   7.139 -1.5030  0.4388 -2.4320
  181SOPE   C3420706   1.458   3.025   7.338  0.1181 -0.2936  0.3854
  181SOPE   H4X20707   1.549   2.964   7.354  1.0029 -0.3994 -3.8881
  181SOPE   H4Y20708   1.364   2.965   7.340 -1.1575  1.5359 -1.2445
  181SOPE   C3520709   1.450   3.153   7.423  0.0825  0.4936 -0.5569
  181SOPE   H5X20710   1.376   3.224   7.380 -1.0468  0.0634  0.6182
  181SOPE   H5Y20711   1.549   3.203   7.413 -0.1195  0.7552 -1.3126
  181SOPE   C3620712   1.416   3.118   7.573  0.1340 -0.5178 -0.1923
  181SOPE   H6X20713   1.313   3.080   7.586 -0.2157  0.6114  0.4525
  181SOPE   H6Y20714   1.421   3.205   7.641  0.4287 -0.0439 -0.8131
  181SOPE   C3720715   1.514   3.022   7.629 -0.4067 -0.6353 -0.1932
  181SOPE   H7X20716   1.613   3.042   7.584  1.2042 -0.0457  3.2819
  181SOPE   H7Y20717   1.494   2.914   7.608 -0.7981 -0.7020  0.4783
  181SOPE   C3820718   1.550   3.033   7.783 -0.3496  0.0415 -0.2148
  181SOPE   H8X20719   1.563   3.140   7.811  0.5530  0.3431 -1.6766
  181SOPE   H8Y20720   1.637   2.967   7.801 -1.0047 -0.2335  2.3198
  181SOPE   C3920721   1.437   2.972   7.881 -0.0455 -0.8970  0.6134
  181SOPE   H9X20722   1.431   2.864   7.856 -0.3073 -0.5490 -0.9205
  181SOPE   H9Y20723   1.338   3.017   7.859  0.2241 -1.4524 -2.0813
  181SOPE  C31020724   1.464   2.997   8.032 -0.2580  0.5182  0.0279
  181SOPE  H10X20725   1.571   3.023   8.045 -0.1338  1.0194 -1.7292
  181SOPE  H10Y20726   1.442   2.901   8.083 -0.6303  0.9549  0.7139
  181SOPE  C31120727   1.396   3.124   8.093 -1.0816  0.3317  1.1465
  181SOPE  H11X20728   1.287   3.099   8.090 -1.1470  0.7031 -0.3722
  181SOPE  H11Y20729   1.420   3.214   8.032  1.5241 -0.7516  0.4847
  181SOPE  C31220730   1.455   3.150   8.229 -0.3985  0.5713  0.3069
  181SOPE  H12X20731   1.548   3.211   8.219 -2.3437  3.8269  0.4942
  181SOPE  H12Y20732   1.483   3.052   8.272 -1.7497 -0.2852 -0.7226
  181SOPE  C31320733   1.358   3.209   8.329  0.6793  0.2547 -0.1567
  181SOPE  H13X20734   1.411   3.223   8.426 -1.2856  1.2200  0.8209
  181SOPE  H13Y20735   1.271   3.141   8.344  1.2886 -1.0164 -1.9833
  181SOPE  C31420736   1.305   3.341   8.277 -0.1849  0.2919 -0.4975
  181SOPE  H14X20737   1.237   3.320   8.191 -0.8434  1.3930 -0.2723
  181SOPE  H14Y20738   1.393   3.400   8.245  0.4036 -0.8807 -1.0647
  181SOPE  C31520739   1.231   3.421   8.383  0.2801  0.2048 -0.2694
  181SOPE  H15X20740   1.303   3.455   8.460 -3.3097  2.3962  2.4343
  181SOPE  H15Y20741   1.154   3.351   8.420 -2.1397  3.6783  1.9370
  181SOPE  C31620742   1.159   3.544   8.330 -0.6863  0.4599 -0.0267
  181SOPE  H16X20743   1.088   3.520   8.248  1.2159  1.0643 -1.9437
  181SOPE  H16Y20744   1.231   3.605   8.272  0.6915 -0.3597  0.7864
  181SOPE  C31720745   1.102   3.626   8.451  0.2620  0.6183  0.4013
  181SOPE  H17X20746   1.040   3.567   8.522 -2.9741  1.0320 -1.8736
  181SOPE  H17Y20747   1.026   3.688   8.398  0.4060 -1.2127 -2.0796
  181SOPE  C31820748   1.210   3.710   8.526  0.0030 -0.2512 -0.3531
  181SOPE  H18X20749   1.264   3.777   8.456  1.1712 -0.9641 -0.1686
  181SOPE  H18Y20750   1.287   3.636   8.557  0.6452  0.2438 -0.7593
  181SOPE  H18Z20751   1.166   3.762   8.614 -1.0970 -2.5895  0.5979
  182SOPE     N20752   6.314   4.326   6.193 -0.3749  0.3594 -0.0356
  182SOPE   HN120753   6.301   4.404   6.125  0.5017  0.8096  0.3003
  182SOPE   HN220754   6.313   4.238   6.138  1.3427  1.4604 -1.9682
  182SOPE   HN320755   6.229   4.329   6.252 -0.7238  0.1627 -0.5214
  182SOPE   C1220756   6.435   4.352   6.279  0.6125  0.1585  0.4178
  182SOPE  H12A20757   6.520   4.332   6.211 -0.5575  1.7471 -1.6119
  182SOPE  H12B20758   6.445   4.276   6.359 -1.5010 -2.7044 -1.8285
  182SOPE   C1120759   6.440   4.499   6.334 -0.7971  0.2067  0.2674
  182SOPE  H11A20760   6.519   4.491   6.411 -2.2327 -0.6910  1.7081
  182SOPE  H11B20761   6.338   4.518   6.375  0.4547 -0.8683  4.3036
  182SOPE     P20762   6.444   4.742   6.254  0.1865  0.1825  0.4026
  182SOPE   O1320763   6.299   4.747   6.220  0.6073 -0.6559 -0.0785
  182SOPE   O1420764   6.532   4.829   6.177 -0.0760  0.0584  0.0979
  182SOPE   O1220765   6.483   4.591   6.233  0.1963  0.4042 -0.1033
  182SOPE   O1120766   6.454   4.762   6.412 -0.0983  0.1203 -0.3083
  182SOPE    C120767   6.578   4.813   6.457 -0.2632  0.3497  0.2373
  182SOPE    HA20768   6.575   4.922   6.437 -1.2995  0.1608 -0.7227
  182SOPE    HB20769   6.663   4.768   6.401 -0.0649  0.0490  0.7700
  182SOPE    C220770   6.614   4.796   6.607 -0.4747 -0.0237 -0.3986
  182SOPE    HS20771   6.641   4.690   6.626 -0.6474  0.0890  0.5198
  182SOPE   O2120772   6.504   4.827   6.692  0.0403  0.5520 -0.0180
  182SOPE   C2120773   6.450   4.950   6.690 -0.0065  0.5788  0.3361
  182SOPE   O2220774   6.493   5.049   6.637  0.5632 -0.6053 -0.2463
  182SOPE   C2220775   6.312   4.951   6.767 -0.0084  0.9379 -0.2269
  182SOPE   H2R20776   6.329   4.884   6.854 -1.5409  1.5915  0.6200
  182SOPE   H2S20777   6.238   4.901   6.700  0.5780  2.4522 -2.0907
  182SOPE    C320778   6.743   4.880   6.644 -0.2018  0.0647 -0.7182
  182SOPE    HX20779   6.745   4.989   6.621  1.9621  0.0762 -0.7438
  182SOPE    HY20780   6.822   4.838   6.578  0.2333 -0.5774  0.1807
  182SOPE   O3120781   6.780   4.850   6.785 -0.2847 -0.7913  0.5026
  182SOPE   C3120782   6.755   4.942   6.876  0.3569 -0.6742  0.3318
  182SOPE   O3220783   6.720   5.053   6.862  0.3462 -0.9607 -0.4360
  182SOPE   C3220784   6.778   4.868   7.013 -0.4881  0.3800  0.2419
  182SOPE   H2X20785   6.883   4.833   7.015 -0.5586  0.1593  0.0801
  182SOPE   H2Y20786   6.720   4.773   7.016  1.2209 -0.7096  0.2386
  182SOPE   C2320787   6.262   5.081   6.823 -0.6927 -1.0455 -0.6895
  182SOPE   H3R20788   6.152   5.095   6.829 -0.3261  1.9359  0.9423
  182SOPE   H3S20789   6.310   5.158   6.759  0.4723 -0.3575  0.9352
  182SOPE   C2420790   6.323   5.090   6.953 -0.3216  0.2125  0.0417
  182SOPE   H4R20791   6.290   5.002   7.013  0.5639 -1.3855 -1.7213
  182SOPE   H4S20792   6.433   5.093   6.938  0.1065 -0.2009  2.6357
  182SOPE   C2520793   6.281   5.214   7.028  0.7405 -1.0623 -0.5538
  182SOPE   H5R20794   6.299   5.314   6.984  0.6181 -1.0585 -0.5951
  182SOPE   H5S20795   6.170   5.211   7.039  0.7087 -2.8729 -0.9533
  182SOPE   C2620796   6.336   5.205   7.173 -0.5593  0.3156 -0.0109
  182SOPE   H6R20797   6.283   5.130   7.235  0.4489 -0.4056  0.0196
  182SOPE   H6S20798   6.443   5.174   7.166 -0.0612  1.8804  0.2603
  182SOPE   C2720799   6.338   5.341   7.245 -0.1175  0.0573 -0.0340
  182SOPE   H7R20800   6.401   5.420   7.198 -1.3736  0.6467 -0.8094
  182SOPE   H7S20801   6.236   5.386   7.239  0.6084  2.4177  2.8073
  182SOPE   C2820802   6.367   5.336   7.395 -0.0001  0.3986  0.1833
  182SOPE   H8R20803   6.312   5.250   7.440 -1.1613  0.0739 -1.7746
  182SOPE   H8S20804   6.474   5.305   7.402  0.2533  1.5413  2.1058
  182SOPE   C2920805   6.357   5.471   7.461  0.1489  0.4035 -0.6572
  182SOPE   H9120806   6.299   5.547   7.405 -1.5930 -1.8848 -2.1497
  182SOPE  C21020807   6.425   5.517   7.570 -0.2867  0.5331 -0.4229
  182SOPE  H10120808   6.396   5.617   7.607  1.1145  1.2349 -1.1586
  182SOPE  C21120809   6.518   5.428   7.646 -0.9020  0.1750  0.0337
  182SOPE  H11R20810   6.561   5.351   7.579 -1.1582  0.1354 -0.0868
  182SOPE  H11S20811   6.482   5.394   7.745 -0.8459 -0.4642 -0.1634
  182SOPE  C21220812   6.631   5.533   7.689 -0.3423 -0.5764  0.8236
  182SOPE  H12R20813   6.574   5.611   7.745 -0.2314  1.0436 -1.2129
  182SOPE  H12S20814   6.665   5.579   7.594 -2.6101 -0.5347 -0.0444
  182SOPE  C21320815   6.749   5.486   7.771 -0.0503 -0.2997 -0.1667
  182SOPE  H13R20816   6.825   5.567   7.768  0.4331 -0.6426  1.7101
  182SOPE  H13S20817   6.806   5.408   7.715 -1.5423 -1.7394  0.2551
  182SOPE  C21420818   6.704   5.437   7.911  0.0827  0.2741  0.0076
  182SOPE  H14R20819   6.681   5.329   7.900  2.0077 -0.1470 -0.3025
  182SOPE  H14S20820   6.622   5.498   7.955  0.7838  0.0291  1.7090
  182SOPE  C21520821   6.823   5.438   8.009 -0.2266  0.4597  0.1960
  182SOPE  H15R20822   6.884   5.528   7.985 -0.4243  0.3355 -0.8114
  182SOPE  H15S20823   6.885   5.352   7.978  2.0140  2.1447 -0.2209
  182SOPE  C21620824   6.800   5.438   8.161 -0.0510 -0.0366 -0.1501
  182SOPE  H16R20825   6.763   5.337   8.188  3.3937 -0.6319  3.0377
  182SOPE  H16S20826   6.715   5.509   8.172  0.3152  0.3435  0.2698
  182SOPE  C21720827   6.927   5.464   8.242  0.0234 -0.4421  0.3416
  182SOPE  H17R20828   6.957   5.565   8.204  0.1219 -0.9154 -0.8752
  182SOPE  H17S20829   7.011   5.403   8.202  0.7277  2.0585 -2.4056
  182SOPE  C21820830   6.919   5.478   8.393 -0.3826 -0.1454  0.8816
  182SOPE  H18R20831   6.998   5.542   8.436 -0.9904 -0.1116  1.9848
  182SOPE  H18S20832   6.921   5.378   8.441  2.8524 -2.1832 -2.9129
  182SOPE  H18T20833   6.815   5.513   8.414 -1.0898 -1.9834  0.6779
  182SOPE   C3320834   6.741   4.956   7.131 -0.2352 -0.3358  0.5994
  182SOPE   H3X20835   6.634   4.984   7.126 -0.4194 -1.0755  0.2104
  182SOPE   H3Y20836   6.794   5.054   7.122 -0.2847 -0.3370  0.2702
  182SOPE   C3420837   6.793   4.892   7.260 -0.3413  0.0352  0.4794
  182SOPE   H4X20838   6.893   4.846   7.242 -0.5488  0.1259 -1.0043
  182SOPE   H4Y20839   6.731   4.804   7.288  0.7777 -0.5025  1.3712
  182SOPE   C3520840   6.801   4.987   7.374 -0.0373  0.6809 -0.2741
  182SOPE   H5X20841   6.710   5.047   7.393  0.6562  0.5991  4.7599
  182SOPE   H5Y20842   6.875   5.070   7.366  0.2123  0.8735  2.8109
  182SOPE   C3620843   6.836   4.912   7.503  0.4511  0.4299  0.5959
  182SOPE   H6X20844   6.934   4.860   7.495  0.1126 -0.4761  2.0335
  182SOPE   H6Y20845   6.750   4.847   7.528 -1.5206  1.9670 -1.7484
  182SOPE   C3720846   6.850   5.016   7.617  0.2008  0.2474  0.6765
  182SOPE   H7X20847   6.754   5.072   7.612 -1.6854 -2.8266 -3.3053
  182SOPE   H7Y20848   6.936   5.077   7.583 -1.3689  1.9776 -0.3717
  182SOPE   C3820849   6.867   4.947   7.750  0.0580  0.1056  0.1628
  182SOPE   H8X20850   6.950   4.873   7.747 -1.4082 -1.6179 -2.1177
  182SOPE   H8Y20851   6.777   4.884   7.766 -0.6922  1.1101 -0.0148
  182SOPE   C3920852   6.890   5.040   7.867 -0.5595 -0.1091  0.0871
  182SOPE   H9X20853   6.805   5.109   7.886  0.4926  1.9408 -2.0216
  182SOPE   H9Y20854   6.977   5.100   7.831 -0.6282 -0.9921 -1.6624
  182SOPE  C31020855   6.947   4.972   7.994  0.5752  0.3992  0.6699
  182SOPE  H10X20856   7.021   4.894   7.967 -0.6392 -0.3531 -0.6524
  182SOPE  H10Y20857   6.863   4.920   8.044  0.3721  0.2216  0.1517
  182SOPE  C31120858   7.011   5.066   8.094  0.0206 -0.8479 -0.7027
  182SOPE  H11X20859   6.936   5.144   8.118  0.1899 -1.7576  3.3845
  182SOPE  H11Y20860   7.106   5.100   8.046 -1.4790 -0.1330 -3.3688
  182SOPE  C31220861   7.049   4.996   8.226 -0.0323 -0.1676 -0.9631
  182SOPE  H12X20862   6.963   4.933   8.257  1.5725 -2.2243 -0.4810
  182SOPE  H12Y20863   7.075   5.072   8.304 -0.9389 -0.4575 -0.3595
  182SOPE  C31320864   7.167   4.898   8.221 -0.4262 -0.1460 -0.0280
  182SOPE  H13X20865   7.245   4.967   8.183  0.8745 -0.2057  2.3685
  182SOPE  H13Y20866   7.140   4.809   8.160  0.9125 -0.9805  0.5578
  182SOPE  C31420867   7.216   4.849   8.366 -0.0475  0.0087  0.3346
  182SOPE  H14X20868   7.254   4.939   8.418  0.7918  0.3268 -0.7898
  182SOPE  H14Y20869   7.309   4.788   8.354  1.7315  2.7870 -1.1114
  182SOPE  C31520870   7.110   4.777   8.442 -0.4184  0.6875  0.0891
  182SOPE  H15X20871   7.053   4.698   8.388 -0.7018  1.1087 -0.2388
  182SOPE  H15Y20872   7.029   4.845   8.478 -2.1500 -2.7696  3.4405
  182SOPE  C31620873   7.168   4.701   8.559  0.3816 -0.2480 -1.6382
  182SOPE  H16X20874   7.231   4.774   8.615 -0.3079 -1.3005  0.6053
  182SOPE  H16Y20875   7.239   4.623   8.523  0.9183 -0.0022 -1.1396
  182SOPE  C31720876   7.057   4.640   8.649  0.2348 -0.0810 -0.0455
  182SOPE  H17X20877   6.997   4.571   8.587 -1.1860 -0.9291  2.1765
  182SOPE  H17Y20878   7.000   4.729   8.682 -1.3861 -1.6432  1.5569
  182SOPE  C31820879   7.124   4.567   8.772 -0.0328  0.0083 -0.7852
  182SOPE  H18X20880   7.165   4.473   8.729 -2.4547 -2.0677  1.0855
  182SOPE  H18Y20881   7.034   4.537   8.831 -0.7977  0.9075 -1.4681
  182SOPE  H18Z20882   7.196   4.619   8.838  1.2798 -0.4174 -1.8430
  183SOPE     N20883   1.677   0.889   6.072 -0.1861 -0.1334  0.3775
  183SOPE   HN120884   1.778   0.866   6.065 -0.4161 -1.5076  1.0267
  183SOPE   HN220885   1.629   0.799   6.053 -0.3219 -0.0741  0.4386
  183SOPE   HN320886   1.643   0.955   5.999 -1.9004 -1.5209 -0.1445
  183SOPE   C1220887   1.647   0.924   6.217 -0.2548  0.3743  0.1605
  183SOPE  H12A20888   1.692   0.836   6.268 -1.4704 -0.2491  0.2045
  183SOPE  H12B20889   1.537   0.920   6.236 -0.4049  0.7588 -0.5746
  183SOPE   C1120890   1.706   1.063   6.239 -0.0422 -0.5507 -0.1768
  183SOPE  H11A20891   1.690   1.077   6.349 -1.6249 -1.2462 -0.2861
  183SOPE  H11B20892   1.639   1.138   6.192  0.0574 -1.3433 -1.6286
  183SOPE     P20893   1.911   1.210   6.263 -0.1869 -0.0444  0.2424
  183SOPE   O1320894   1.831   1.314   6.198  0.7127  0.3365  0.2213
  183SOPE   O1420895   2.053   1.208   6.218  0.3196  0.4697  0.0454
  183SOPE   O1220896   1.846   1.079   6.211  0.5731 -0.5051  0.0798
  183SOPE   O1120897   1.887   1.217   6.422 -0.8421  0.1524  0.2115
  183SOPE    C120898   1.968   1.141   6.509  0.0175  0.8583 -0.1208
  183SOPE    HA20899   2.060   1.100   6.463  2.0361  1.7016  2.9272
  183SOPE    HB20900   1.912   1.054   6.551  2.3196  0.4009  2.2489
  183SOPE    C220901   2.038   1.230   6.609 -0.8851  0.2708 -0.7209
  183SOPE    HS20902   2.103   1.165   6.672  0.8637  1.6982 -0.9637
  183SOPE   O2120903   1.938   1.296   6.685  0.0072 -0.5791 -0.1664
  183SOPE   C2120904   1.960   1.322   6.814 -0.3180  0.1063 -0.4733
  183SOPE   O2220905   2.053   1.271   6.880 -0.5413  0.7679 -0.1867
  183SOPE   C2220906   1.847   1.408   6.874 -0.0037 -0.4708 -0.4181
  183SOPE   H2R20907   1.755   1.349   6.852 -0.8039  1.4265 -2.5228
  183SOPE   H2S20908   1.846   1.506   6.822 -1.3075  0.3791  1.0950
  183SOPE    C320909   2.136   1.323   6.542 -0.2937 -0.0983  0.0689
  183SOPE    HX20910   2.075   1.406   6.499  0.2014  0.5883  0.6581
  183SOPE    HY20911   2.187   1.287   6.450 -2.3044  2.3610 -2.2257
  183SOPE   O3120912   2.229   1.380   6.647 -0.0353 -0.3841  0.1659
  183SOPE   C3120913   2.325   1.303   6.668 -0.0742  0.0093  0.6921
  183SOPE   O3220914   2.329   1.186   6.627 -0.5737  0.0768  0.2823
  183SOPE   C3220915   2.424   1.363   6.765  0.0480 -0.6123  0.6078
  183SOPE   H2X20916   2.493   1.428   6.707 -1.0210  0.5244  0.5493
  183SOPE   H2Y20917   2.484   1.275   6.796  1.5810 -0.1992 -1.0579
  183SOPE   C2320918   1.847   1.415   7.028 -0.2903 -0.9300  0.2157
  183SOPE   H3R20919   1.904   1.332   7.074  1.1875  0.0631  0.2689
  183SOPE   H3S20920   1.749   1.416   7.080  0.7226  0.8637  2.3077
  183SOPE   C2420921   1.914   1.545   7.071  0.8154  0.1886  0.1996
  183SOPE   H4R20922   2.006   1.538   7.008 -1.2280  0.3601 -3.0320
  183SOPE   H4S20923   1.858   1.638   7.049  1.1385 -0.0583 -1.8189
  183SOPE   C2520924   1.962   1.546   7.222  0.0558 -0.5257 -0.1650
  183SOPE   H5R20925   1.999   1.445   7.249  3.7816  0.8538  0.6063
  183SOPE   H5S20926   2.049   1.616   7.223  1.4496 -2.0588  3.0525
  183SOPE   C2620927   1.868   1.596   7.329 -0.4919 -0.2931 -0.2649
  183SOPE   H6R20928   1.815   1.689   7.303 -0.1720 -0.1758 -0.5140
  183SOPE   H6S20929   1.783   1.526   7.342 -1.8868  1.3798 -0.0519
  183SOPE   C2720930   1.930   1.608   7.464 -0.5456  0.3568  0.5264
  183SOPE   H7R20931   2.001   1.523   7.470 -0.4868  0.1924 -1.6548
  183SOPE   H7S20932   2.007   1.689   7.467 -0.0725  0.1078 -2.0570
  183SOPE   C2820933   1.830   1.611   7.581  0.0324  0.0579 -0.3456
  183SOPE   H8R20934   1.759   1.529   7.560 -0.7396  0.7315 -0.4371
  183SOPE   H8S20935   1.885   1.571   7.669 -1.6614 -1.4775  0.0595
  183SOPE   C2920936   1.774   1.751   7.605  0.0145  0.0788 -0.6166
  183SOPE   H9120937   1.721   1.799   7.521 -0.4750  1.5496  0.5001
  183SOPE  C21020938   1.766   1.808   7.727 -0.0498  0.0088  0.0600
  183SOPE  H10120939   1.717   1.905   7.745  1.0346  0.5839 -0.0190
  183SOPE  C21120940   1.819   1.751   7.860  0.3505 -0.0110 -0.0771
  183SOPE  H11R20941   1.900   1.819   7.895  0.5122  0.6498 -1.6476
  183SOPE  H11S20942   1.867   1.652   7.845 -0.0935  0.0202 -2.0228
  183SOPE  C21220943   1.702   1.739   7.962  0.4587  0.4782  0.3067
  183SOPE  H12R20944   1.606   1.744   7.908  1.6033  2.9952 -1.7494
  183SOPE  H12S20945   1.698   1.823   8.035 -0.4301  0.2922  0.4723
  183SOPE  C21320946   1.712   1.617   8.048  0.5791  0.6065 -0.3532
  183SOPE  H13R20947   1.814   1.598   8.089  0.0447 -1.2153  0.2098
  183SOPE  H13S20948   1.696   1.531   7.980  0.7678  1.0101 -0.9198
  183SOPE  C21420949   1.619   1.616   8.173 -0.0831 -0.1600 -0.7046
  183SOPE  H14R20950   1.514   1.592   8.143 -0.1579 -1.7517  0.6713
  183SOPE  H14S20951   1.608   1.720   8.210 -2.9166 -1.4133  2.4689
  183SOPE  C21520952   1.667   1.527   8.290 -0.2403  0.2045  0.0822
  183SOPE  H15R20953   1.776   1.539   8.304  0.0352  0.3619 -1.9252
  183SOPE  H15S20954   1.660   1.426   8.244  0.5368  0.9066 -1.6373
  183SOPE  C21620955   1.592   1.538   8.423  0.2216 -0.2793 -0.5890
  183SOPE  H16R20956   1.590   1.640   8.468 -3.6583  0.6665 -2.4621
  183SOPE  H16S20957   1.627   1.468   8.502 -1.9602 -1.6920 -0.7948
  183SOPE  C21720958   1.447   1.503   8.398 -0.1580 -0.4499 -0.2758
  183SOPE  H17R20959   1.446   1.401   8.355  0.7496  0.5653 -2.8971
  183SOPE  H17S20960   1.393   1.575   8.333 -0.3208  0.6579  1.0372
  183SOPE  C21820961   1.372   1.509   8.532  0.5023  0.4163 -0.3163
  183SOPE  H18R20962   1.272   1.463   8.516  0.3641  0.6140 -0.0385
  183SOPE  H18S20963   1.364   1.613   8.570  1.8206  0.6598 -0.6477
  183SOPE  H18T20964   1.435   1.451   8.603 -0.8555 -0.2220  0.4078
  183SOPE   C3320965   2.353   1.424   6.888  0.3699 -0.0963  0.1795
  183SOPE   H3X20966   2.301   1.342   6.941 -0.0144  0.0922  0.0937
  183SOPE   H3Y20967   2.278   1.501   6.862 -1.7299 -2.0901  0.0068
  183SOPE   C3420968   2.440   1.485   6.996 -0.2400 -0.4641 -0.8452
  183SOPE   H4X20969   2.493   1.571   6.951 -1.2835 -0.4882 -2.1881
  183SOPE   H4Y20970   2.518   1.411   7.022  0.2224  0.1855 -0.3543
  183SOPE   C3520971   2.360   1.530   7.124 -0.2036  0.5539  0.3153
  183SOPE   H5X20972   2.278   1.456   7.135 -0.2037  0.7800  1.9838
  183SOPE   H5Y20973   2.310   1.629   7.112 -1.1584  0.0520  0.1006
  183SOPE   C3620974   2.441   1.545   7.254 -0.5617 -0.4182  0.1573
  183SOPE   H6X20975   2.501   1.638   7.245  0.4067 -0.4619  4.1245
  183SOPE   H6Y20976   2.509   1.458   7.268  0.0681 -0.3629 -2.0679
  183SOPE   C3720977   2.343   1.563   7.364  0.6496 -0.2729  0.1948
  183SOPE   H7X20978   2.283   1.469   7.360  2.3477 -1.3876 -0.3660
  183SOPE   H7Y20979   2.278   1.649   7.338 -0.4771 -1.1023  0.1411
  183SOPE   C3820980   2.396   1.597   7.505  0.5297  0.6554  0.8548
  183SOPE   H8X20981   2.466   1.682   7.513 -0.3001  1.2813  1.5789
  183SOPE   H8Y20982   2.439   1.501   7.542 -3.0448 -1.6269 -0.2983
  183SOPE   C3920983   2.283   1.632   7.598  0.1070  0.1468 -0.1897
  183SOPE   H9X20984   2.214   1.546   7.587  0.9934 -0.3268 -2.7517
  183SOPE   H9Y20985   2.239   1.730   7.567  0.9945  1.4081  2.2371
  183SOPE  C31020986   2.335   1.655   7.747 -0.6048 -0.1829  0.6789
  183SOPE  H10X20987   2.412   1.735   7.754 -1.2616  0.9882 -3.2202
  183SOPE  H10Y20988   2.377   1.558   7.780 -1.3773 -0.3079  1.3218
  183SOPE  C31120989   2.225   1.714   7.839 -1.1784  0.2950 -1.2039
  183SOPE  H11X20990   2.141   1.642   7.849 -1.6781  1.0690  0.6269
  183SOPE  H11Y20991   2.169   1.801   7.798 -0.2397  1.5225  0.0386
  183SOPE  C31220992   2.282   1.745   7.982  0.5831  0.0617  0.2588
  183SOPE  H12X20993   2.327   1.847   7.981 -1.6427  1.1104  0.8015
  183SOPE  H12Y20994   2.360   1.669   8.004  1.4817  0.6998 -0.5990
  183SOPE  C31320995   2.184   1.741   8.097 -0.1709  0.3119 -0.0485
  183SOPE  H13X20996   2.151   1.636   8.115  1.2605 -0.4904 -1.8187
  183SOPE  H13Y20997   2.110   1.819   8.071  1.2735  2.3967  1.7392
  183SOPE  C31420998   2.239   1.776   8.240 -0.6316  0.2795  0.4395
  183SOPE  H14X20999   2.304   1.865   8.231 -1.2080  0.8429  1.6394
  183SOPE  H14Y21000   2.307   1.692   8.267 -2.2137 -0.4928  2.2902
  183SOPE  C31521001   2.126   1.812   8.337 -0.2780  0.1560  0.3859
  183SOPE  H15X21002   2.067   1.900   8.304 -0.4774 -0.4791 -0.9995
  183SOPE  H15Y21003   2.172   1.842   8.434  1.5640 -1.7503  0.1850
  183SOPE  C31621004   2.024   1.703   8.358  0.1586  0.0092 -0.0916
  183SOPE  H16X21005   2.071   1.604   8.375 -1.4910 -0.6588  0.7656
  183SOPE  H16Y21006   1.971   1.683   8.262 -1.3183 -1.4970  0.9838
  183SOPE  C31721007   1.932   1.727   8.484 -0.0660  0.5696  0.4847
  183SOPE  H17X21008   2.005   1.760   8.561  0.3875  1.2144 -0.2091
  183SOPE  H17Y21009   1.901   1.631   8.532  1.5818 -0.5895 -0.6481
  183SOPE  C31821010   1.822   1.831   8.460 -0.3938 -0.3567  0.2286
  183SOPE  H18X21011   1.880   1.922   8.433 -1.9939  0.1142 -1.8987
  183SOPE  H18Y21012   1.747   1.853   8.539  0.0664  0.2995  0.4946
  183SOPE  H18Z21013   1.763   1.796   8.372  0.0035  0.4049 -0.3493
  184SOPE     N21014   3.626   2.412   6.188  0.2023 -0.2864 -0.0512
  184SOPE   HN121015   3.687   2.344   6.139 -1.1569 -2.3020  0.9164
  184SOPE   HN221016   3.531   2.369   6.184  1.5136 -3.4637 -3.8405
  184SOPE   HN321017   3.623   2.507   6.146  0.8172 -0.1668  0.1564
  184SOPE   C1221018   3.656   2.445   6.332  0.4002  0.3303 -1.5743
  184SOPE  H12A21019   3.761   2.478   6.338 -0.0803  1.7312 -0.2669
  184SOPE  H12B21020   3.636   2.352   6.390 -0.2156  1.0374 -0.6288
  184SOPE   C1121021   3.574   2.564   6.381  0.3282 -0.0224 -0.0886
  184SOPE  H11A21022   3.629   2.660   6.370 -0.3794  0.4028 -0.0027
  184SOPE  H11B21023   3.577   2.552   6.492 -0.6106 -3.0044 -0.3063
  184SOPE     P21024   3.328   2.464   6.365 -0.1478 -0.2468  0.2180
  184SOPE   O1321025   3.366   2.336   6.290  0.2739  0.2727 -1.0509
  184SOPE   O1421026   3.196   2.513   6.329 -0.5092  0.1426 -0.1043
  184SOPE   O1221027   3.441   2.584   6.332  0.1270 -0.3320  0.1416
  184SOPE   O1121028   3.342   2.454   6.518 -0.1248  0.2556 -0.2711
  184SOPE    C121029   3.305   2.345   6.593 -0.1671  0.5400  0.8803
  184SOPE    HA21030   3.367   2.256   6.572 -2.8759 -2.2200  3.5825
  184SOPE    HB21031   3.203   2.315   6.560  0.4487 -0.2217 -0.3999
  184SOPE    C221032   3.277   2.389   6.742 -0.2943  0.3050  0.2389
  184SOPE    HS21033   3.365   2.435   6.791 -1.0559  0.0097  1.9574
  184SOPE   O2121034   3.247   2.266   6.816  0.0391 -0.0486  0.6152
  184SOPE   C2121035   3.350   2.213   6.880  0.6817  0.1611  0.2665
  184SOPE   O2221036   3.469   2.231   6.865 -0.6361  0.1168  0.3525
  184SOPE   C2221037   3.290   2.113   6.986 -0.0773  0.4971 -0.1391
  184SOPE   H2R21038   3.220   2.046   6.933  0.4638  1.7131 -2.5314
  184SOPE   H2S21039   3.224   2.171   7.054 -1.1952 -1.5601  0.6187
  184SOPE    C321040   3.177   2.505   6.762  0.4998  0.8551  0.6341
  184SOPE    HX21041   3.086   2.480   6.702  1.5241  0.1175 -0.6681
  184SOPE    HY21042   3.212   2.593   6.705  0.1832  1.6763  1.6772
  184SOPE   O3121043   3.149   2.535   6.901 -0.4709  0.2336  0.2758
  184SOPE   C3121044   3.225   2.630   6.960 -0.4222 -0.0683  0.5987
  184SOPE   O3221045   3.316   2.681   6.895  0.2961 -0.9548  0.0107
  184SOPE   C3221046   3.195   2.650   7.103  0.4963 -0.1195  0.4259
  184SOPE   H2X21047   3.094   2.694   7.111  1.2824  1.6029  1.4060
  184SOPE   H2Y21048   3.266   2.721   7.150  1.7443 -1.1357  0.1394
  184SOPE   C2321049   3.400   2.027   7.055  0.8683  0.1763 -0.3937
  184SOPE   H3R21050   3.483   2.095   7.083  1.0889 -0.9038  1.7888
  184SOPE   H3S21051   3.418   1.950   6.977 -2.1956 -0.9228 -0.1889
  184SOPE   C2421052   3.345   1.974   7.182 -0.1815  0.0940  0.4095
  184SOPE   H4R21053   3.337   2.054   7.260  0.6241 -0.0260  0.6227
  184SOPE   H4S21054   3.245   1.936   7.154 -0.2955  0.7879 -0.1593
  184SOPE   C2521055   3.436   1.857   7.226  0.3592  0.3894 -0.5484
  184SOPE   H5R21056   3.437   1.789   7.138 -0.9510 -0.3431 -0.0238
  184SOPE   H5S21057   3.537   1.893   7.256  0.8987 -1.2218 -0.3160
  184SOPE   C2621058   3.390   1.785   7.352 -0.0213  0.3643 -0.5752
  184SOPE   H6R21059   3.296   1.727   7.354  0.2301 -0.0526  1.3427
  184SOPE   H6S21060   3.473   1.715   7.373  0.8730  1.5435 -0.0302
  184SOPE   C2721061   3.370   1.871   7.480 -0.4513 -0.1866 -0.1475
  184SOPE   H7R21062   3.458   1.938   7.492 -0.3649 -0.7417  3.1638
  184SOPE   H7S21063   3.278   1.933   7.477 -1.1347 -1.1238  0.9514
  184SOPE   C2821064   3.350   1.796   7.614  0.0467  0.4403 -0.1088
  184SOPE   H8R21065   3.262   1.728   7.602  0.0314  0.4229  0.0971
  184SOPE   H8S21066   3.440   1.733   7.633  2.0985  3.3007  0.2674
  184SOPE   C2921067   3.327   1.888   7.726 -0.6597 -0.0343 -0.6870
  184SOPE   H9121068   3.252   1.968   7.717 -0.7465  0.1445  1.2210
  184SOPE  C21021069   3.394   1.885   7.841 -0.5308  0.2485  0.5956
  184SOPE  H10121070   3.358   1.951   7.922 -0.0570  1.0007  0.1970
  184SOPE  C21121071   3.502   1.796   7.894 -0.1779 -0.3062  0.1463
  184SOPE  H11R21072   3.601   1.844   7.879  0.7721 -1.3578  2.5334
  184SOPE  H11S21073   3.507   1.707   7.828 -1.2028  0.0179 -0.3849
  184SOPE  C21221074   3.488   1.740   8.039 -0.0159 -0.3165 -0.1841
  184SOPE  H12R21075   3.403   1.670   8.057  0.8077 -1.2039  0.3653
  184SOPE  H12S21076   3.465   1.827   8.103 -1.9688  0.4448 -1.8294
  184SOPE  C21321077   3.608   1.674   8.089  0.0761  0.1704  0.1842
  184SOPE  H13R21078   3.689   1.750   8.096  1.0375 -0.9690  3.9334
  184SOPE  H13S21079   3.649   1.596   8.022 -0.1898  1.4900 -1.5982
  184SOPE  C21421080   3.588   1.610   8.225 -0.4370 -0.6239  0.3550
  184SOPE  H14R21081   3.684   1.560   8.247  1.8532  2.3291 -2.0076
  184SOPE  H14S21082   3.509   1.533   8.212  0.7754 -1.7035 -0.9138
  184SOPE  C21521083   3.566   1.712   8.337 -0.4370  0.5791  0.0014
  184SOPE  H15R21084   3.466   1.760   8.326 -0.3746  0.6870 -0.0893
  184SOPE  H15S21085   3.652   1.780   8.352  0.5088  0.1195 -2.7502
  184SOPE  C21621086   3.527   1.633   8.475 -0.2953 -0.2498  0.1409
  184SOPE  H16R21087   3.606   1.562   8.507  0.8563  0.4062 -1.1254
  184SOPE  H16S21088   3.444   1.564   8.448 -1.0894 -0.8021  3.5481
  184SOPE  C21721089   3.472   1.726   8.591  0.2378 -0.2217 -0.0473
  184SOPE  H17R21090   3.393   1.785   8.541  1.5999  1.9325  0.1956
  184SOPE  H17S21091   3.548   1.799   8.628  0.2673 -0.8087  1.1161
  184SOPE  C21821092   3.418   1.653   8.714  0.2306  0.0162  0.3181
  184SOPE  H18R21093   3.336   1.581   8.693  0.8239 -1.5631  2.9598
  184SOPE  H18S21094   3.377   1.725   8.788 -1.5925  1.5889 -2.0611
  184SOPE  H18T21095   3.494   1.584   8.755 -1.3217 -2.4665 -0.7791
  184SOPE   C3321096   3.213   2.524   7.192  0.1163 -0.2216  0.1816
  184SOPE   H3X21097   3.126   2.456   7.177 -0.7003  0.6035  1.0268
  184SOPE   H3Y21098   3.198   2.559   7.296 -1.1255  0.6914 -0.2697
  184SOPE   C3421099   3.350   2.451   7.183  0.2855  0.1968  0.2465
  184SOPE   H4X21100   3.431   2.526   7.196 -0.3322  0.7409  0.9902
  184SOPE   H4Y21101   3.375   2.411   7.082 -0.6517  0.9434 -0.3057
  184SOPE   C3521102   3.356   2.338   7.289  0.0689 -0.2348 -0.2852
  184SOPE   H5X21103   3.458   2.294   7.281  1.5479  3.0070 -1.0928
  184SOPE   H5Y21104   3.273   2.265   7.278  0.0039 -0.6923  2.4913
  184SOPE   C3621105   3.356   2.390   7.435 -0.3417 -0.4077  0.7063
  184SOPE   H6X21106   3.272   2.456   7.462  2.0056  3.9697 -1.5331
  184SOPE   H6Y21107   3.446   2.455   7.438 -0.2284 -0.3039 -2.0377
  184SOPE   C3721108   3.367   2.279   7.546  1.9654  0.2042 -0.6302
  184SOPE   H7X21109   3.458   2.216   7.548 -0.1943 -3.3445 -2.7184
  184SOPE   H7Y21110   3.275   2.216   7.542  2.1348  0.0041 -1.6615
  184SOPE   C3821111   3.341   2.338   7.686  0.4899  0.9995  0.5979
  184SOPE   H8X21112   3.236   2.374   7.694  1.1513  4.0760 -2.2003
  184SOPE   H8Y21113   3.402   2.430   7.702 -0.2089  1.4455  0.7860
  184SOPE   C3921114   3.380   2.251   7.804  0.1701 -0.1013  0.3215
  184SOPE   H9X21115   3.491   2.240   7.804  0.3283  1.2187 -0.4724
  184SOPE   H9Y21116   3.325   2.154   7.803 -1.2992  0.6916  1.1393
  184SOPE  C31021117   3.356   2.322   7.941  0.5328 -0.0741 -0.3347
  184SOPE  H10X21118   3.247   2.336   7.962 -0.0333 -4.3523  0.5681
  184SOPE  H10Y21119   3.425   2.409   7.937  1.9594 -1.0939  1.0942
  184SOPE  C31121120   3.398   2.238   8.064  0.0031 -0.3480  0.2684
  184SOPE  H11X21121   3.508   2.229   8.072  0.0237  1.0360  2.5573
  184SOPE  H11Y21122   3.353   2.138   8.049 -1.9567  0.6960 -1.2060
  184SOPE  C31221123   3.355   2.308   8.195 -0.7892 -0.5484 -0.2617
  184SOPE  H12X21124   3.253   2.282   8.231  0.4783 -1.1779  3.2717
  184SOPE  H12Y21125   3.359   2.419   8.194  1.6456 -0.5139  2.1160
  184SOPE  C31321126   3.452   2.278   8.314 -0.0514 -0.2618  0.1562
  184SOPE  H13X21127   3.411   2.315   8.410 -1.7406 -1.8315  0.1045
  184SOPE  H13Y21128   3.551   2.325   8.298  1.4011 -2.5110  1.9321
  184SOPE  C31421129   3.474   2.128   8.344 -0.3702 -0.3895  0.8019
  184SOPE  H14X21130   3.497   2.071   8.251 -1.3762 -0.0916  0.3582
  184SOPE  H14Y21131   3.375   2.090   8.376  0.8911 -3.2682  1.5604
  184SOPE  C31521132   3.579   2.102   8.458  0.3486 -0.0891  0.6391
  184SOPE  H15X21133   3.576   1.992   8.474 -3.0883 -0.0388  1.0761
  184SOPE  H15Y21134   3.541   2.139   8.556 -2.0886  0.7731 -0.5515
  184SOPE  C31621135   3.713   2.154   8.417  0.2277 -0.3398  0.5075
  184SOPE  H16X21136   3.729   2.263   8.434  1.7766 -0.3199 -0.8136
  184SOPE  H16Y21137   3.717   2.132   8.308  1.1428  0.4268  0.3717
  184SOPE  C31721138   3.838   2.075   8.475 -0.2505  0.4870  0.9010
  184SOPE  H17X21139   3.926   2.132   8.440 -0.5494  0.1080 -0.5238
  184SOPE  H17Y21140   3.850   1.971   8.437 -2.6440  0.5451 -0.2217
  184SOPE  C31821141   3.835   2.084   8.627 -0.6775  0.1171  0.4036
  184SOPE  H18X21142   3.931   2.053   8.674 -1.3133  0.9150  2.2892
  184SOPE  H18Y21143   3.759   2.016   8.671  0.0124 -1.1577 -0.3180
  184SOPE  H18Z21144   3.813   2.191   8.649  2.3825  0.8827  0.1405
  185SAPI   C1221145   0.373   4.976  11.218  0.5071  0.2744  0.4551
  185SAPI    H221146   0.381   4.876  11.170  1.8523  0.5436  0.0670
  185SAPI    O221147   0.236   4.979  11.261  0.5555  0.1106  0.1865
  185SAPI   HO221148   0.184   4.949  11.186  0.0299 -0.7747  0.8961
  185SAPI   C1321149   0.465   4.975  11.332  0.9279  0.1010 -0.3705
  185SAPI    H321150   0.569   4.945  11.304  0.5472 -0.3576 -1.3141
  185SAPI    O321151   0.412   4.876  11.424 -0.1267  0.0783  0.3675
  185SAPI   HO321152   0.322   4.857  11.396 -0.2414  2.7395 -1.4439
  185SAPI   C1421153   0.465   5.106  11.405  0.4599 -0.4484  0.3298
  185SAPI    H421154   0.359   5.123  11.434 -0.1244  0.0021 -1.9195
  185SAPI    O421155   0.546   5.108  11.527  0.3398 -0.7192  0.2218
  185SAPI   HO421156   0.638   5.103  11.501  0.4276 -0.8356  0.5573
  185SAPI   C1521157   0.504   5.218  11.312 -0.3036  0.2703 -0.0162
  185SAPI    H521158   0.609   5.197  11.281 -0.3258  0.5755 -0.3098
  185SAPI    O521159   0.502   5.344  11.373 -0.2529 -0.3337 -0.0353
  185SAPI   HO521160   0.414   5.381  11.380  0.5518  1.9990 -1.1717
  185SAPI   C1621161   0.417   5.229  11.188  0.4776  0.3470  0.0189
  185SAPI    H621162   0.312   5.252  11.215  0.6845  0.0451  1.1510
  185SAPI    O621163   0.455   5.326  11.098 -0.3932  0.4651 -0.1434
  185SAPI   HO621164   0.549   5.345  11.104 -0.6360  1.4082  0.6979
  185SAPI   C1121165   0.414   5.089  11.124  0.1653  0.8417  0.2850
  185SAPI    H121166   0.516   5.064  11.088 -1.5921 -2.1113 -3.3281
  185SAPI     P21167   0.351   4.985  10.877  0.0448  0.0252 -0.1883
  185SAPI   O1321168   0.231   5.011  10.797  0.3666 -0.2155 -0.1265
  185SAPI   O1421169   0.376   4.849  10.918 -0.1333 -0.1220 -0.3843
  185SAPI   O1221170   0.328   5.080  11.012  1.2166 -0.0604  0.0398
  185SAPI   O1121171   0.474   5.036  10.792 -0.7506  0.3202 -0.7347
  185SAPI    C121172   0.524   5.167  10.800  0.4477 -0.0243  0.0862
  185SAPI    HA21173   0.546   5.182  10.907  2.1613 -2.8817  0.2227
  185SAPI    HB21174   0.614   5.181  10.737  0.2221  2.0441  0.1633
  185SAPI    C221175   0.418   5.266  10.752  0.8117  0.4158  0.3036
  185SAPI    HS21176   0.327   5.278  10.815  0.4455  0.6092 -0.2545
  185SAPI   O2121177   0.379   5.231  10.615  0.5883 -0.4267 -0.4005
  185SAPI   C2121178   0.272   5.297  10.571  0.5903  0.1031  0.8375
  185SAPI   O2221179   0.199   5.362  10.647 -0.7908  0.0171  0.6241
  185SAPI   C2221180   0.252   5.259  10.421 -0.3850  0.9411 -0.2047
  185SAPI   H2R21181   0.327   5.187  10.383 -0.4268  1.1024 -0.5987
  185SAPI   H2S21182   0.157   5.201  10.423  0.9161 -1.3027 -0.2390
  185SAPI    C321183   0.476   5.411  10.751 -0.8129  1.5088  0.6624
  185SAPI    HX21184   0.523   5.420  10.851  0.6445 -1.8334  0.3908
  185SAPI    HY21185   0.395   5.487  10.747 -1.4417  0.7866 -1.7854
  185SAPI   O3121186   0.583   5.431  10.655 -0.2367 -0.0410  0.9329
  185SAPI   C3121187   0.545   5.485  10.539 -0.5260  0.5725 -0.0712
  185SAPI   O3221188   0.439   5.525  10.500  0.1542 -0.3194 -0.5849
  185SAPI   C3221189   0.674   5.475  10.455 -0.0705  0.0427 -0.3556
  185SAPI   H2X21190   0.698   5.368  10.438 -0.9950  0.1014 -2.4414
  185SAPI   H2Y21191   0.760   5.519  10.509 -0.3158 -0.7908  0.7377
  185SAPI   C2321192   0.258   5.375  10.321  0.1637  0.0520 -0.9424
  185SAPI   H3R21193   0.366   5.401  10.319 -0.3388  2.5387  0.4347
  185SAPI   H3S21194   0.201   5.465  10.354  1.5088 -0.0106  1.8689
  185SAPI   C2421195   0.233   5.327  10.179  0.5843  0.7194 -0.0555
  185SAPI   H4R21196   0.290   5.233  10.163  2.7111  1.9955 -0.5037
  185SAPI   H4S21197   0.268   5.406  10.108 -1.0039 -0.3979 -2.1969
  185SAPI   C2521198   0.091   5.306  10.140 -0.4650  0.6836  0.4572
  185SAPI   H5R21199   0.021   5.351  10.212  1.0060  1.0325  1.7399
  185SAPI   C2621200   0.056   5.241  10.029 -0.0651  0.3387  0.3037
  185SAPI   H6R21201  -0.051   5.245  10.004  0.1562  0.4354 -0.6877
  185SAPI   C2721202   0.155   5.180   9.930  0.8743  0.2014  0.7911
  185SAPI   H7R21203   0.115   5.086   9.887  2.2221 -0.3282  0.6208
  185SAPI   H7S21204   0.249   5.150   9.983  0.3722 -1.4807  0.7964
  185SAPI   C2821205   0.193   5.275   9.818  0.1649  0.0618  0.0874
  185SAPI   H8R21206   0.252   5.364   9.846  1.7911  0.5122 -4.0335
  185SAPI   C2921207   0.155   5.278   9.692  0.2491  0.4392  0.3341
  185SAPI   H9R21208   0.203   5.348   9.623 -2.9598  0.0893 -2.4976
  185SAPI  C21021209   0.066   5.179   9.624  0.1864 -0.5400 -0.4041
  185SAPI  H10R21210   0.007   5.221   9.539  0.4595 -2.1922 -1.4559
  185SAPI  H10S21211  -0.008   5.141   9.698  0.5787  0.8180  0.7408
  185SAPI  C21121212   0.128   5.054   9.565 -0.2234 -0.7398  0.0650
  185SAPI  H11R21213   0.183   4.995   9.639  0.8763 -2.0763 -1.7388
  185SAPI  C21221214   0.127   5.008   9.435 -0.6226  0.3250  0.8514
  185SAPI  H12R21215   0.203   4.931   9.412  0.4464  0.9177  2.2659
  185SAPI  C21321216   0.063   5.075   9.313 -0.1361 -0.9712 -0.1157
  185SAPI  H13R21217   0.145   5.109   9.247 -0.6952 -0.1301 -0.4003
  185SAPI  H13S21218   0.018   5.168   9.354 -2.0747 -0.6201 -2.7458
  185SAPI  C21421219  -0.038   4.997   9.225 -0.2419 -0.3751 -0.2867
  185SAPI  H14R21220  -0.075   4.905   9.273  0.9565  0.2996  2.1172
  185SAPI  C21521221  -0.085   5.039   9.104 -0.4753  0.4163 -0.1269
  185SAPI  H15R21222  -0.153   4.970   9.051  0.7148 -0.6648 -0.3186
  185SAPI  C21621223  -0.036   5.160   9.026  0.2377  0.0335 -0.4732
  185SAPI  H16R21224   0.073   5.177   9.037 -0.1834  2.2440  0.8511
  185SAPI  H16S21225  -0.087   5.254   9.055 -0.1788 -0.4542  0.4256
  185SAPI  C21721226  -0.049   5.153   8.875  0.0416  0.5991  0.3570
  185SAPI  H17R21227  -0.035   5.251   8.824  0.0305 -0.5313 -1.9325
  185SAPI  H17S21228  -0.155   5.129   8.855  0.2958  0.7691 -1.2965
  185SAPI  C21821229   0.025   5.032   8.806  0.0451  0.2640 -0.4256
  185SAPI  H18R21230  -0.021   5.003   8.709  3.8021 -0.4193 -2.1991
  185SAPI  H18S21231   0.024   4.945   8.876  0.1824  1.7610  1.5218
  185SAPI  C21921232   0.168   5.069   8.772  0.0328  0.4967 -0.2621
  185SAPI  H19R21233   0.236   4.982   8.777 -0.7453 -0.1255 -0.1745
  185SAPI  H19S21234   0.200   5.133   8.856  1.4354 -1.1321  0.5030
  185SAPI  C22021235   0.183   5.131   8.633 -0.6670  0.3751 -0.2760
  185SAPI  H20R21236   0.289   5.163   8.621 -0.6344  0.0997 -0.7559
  185SAPI  H20S21237   0.118   5.221   8.626  1.0310  1.6713 -0.1193
  185SAPI  H20T21238   0.155   5.058   8.554  1.0818 -1.6051  0.8138
  185SAPI   C3321239   0.662   5.533  10.312  0.5149 -0.3276  0.0923
  185SAPI   H3X21240   0.609   5.630  10.310 -0.8214 -0.9978  1.2746
  185SAPI   H3Y21241   0.588   5.480  10.248 -0.1046 -0.5953  1.0271
  185SAPI   C3421242   0.793   5.553  10.226 -0.0051  0.2923 -0.2502
  185SAPI   H4X21243   0.855   5.624  10.284  0.5407  0.0138 -0.4931
  185SAPI   H4Y21244   0.771   5.602  10.129  1.8538 -2.1582 -2.0151
  185SAPI   C3521245   0.871   5.421  10.193 -0.6947  0.0658 -0.0214
  185SAPI   H5X21246   0.827   5.373  10.103  1.2194 -0.1747 -0.8576
  185SAPI   H5Y21247   0.843   5.344  10.269 -1.0274 -1.7535 -1.8850
  185SAPI   C3621248   1.024   5.451  10.177  0.0311  0.4159  0.1159
  185SAPI   H6X21249   1.083   5.357  10.182  0.4398  0.6923  0.5177
  185SAPI   H6Y21250   1.060   5.516  10.259  0.3602  0.7497 -0.2865
  185SAPI   C3721251   1.047   5.517  10.040 -0.3432 -0.4602  0.4255
  185SAPI   H7X21252   1.154   5.541  10.022 -1.3046  1.5858 -3.7220
  185SAPI   H7Y21253   0.990   5.612  10.032 -0.3103 -0.4364  0.4774
  185SAPI   C3821254   1.017   5.437   9.912 -1.0983  0.6328 -0.0933
  185SAPI   H8X21255   0.907   5.425   9.903 -0.9746  0.0420 -0.9682
  185SAPI   H8Y21256   1.065   5.338   9.923 -0.5471  1.0391  1.3418
  185SAPI   C3921257   1.065   5.521   9.798  0.0782 -0.2187  0.3933
  185SAPI   H9X21258   1.175   5.529   9.810 -0.1094  2.4033  0.9850
  185SAPI   H9Y21259   1.028   5.626   9.806 -1.0037 -0.6004  0.5257
  185SAPI  C31021260   1.029   5.470   9.652 -0.0678 -0.2890 -0.8541
  185SAPI  H10X21261   1.089   5.377   9.649 -1.6994 -1.5082  1.1259
  185SAPI  H10Y21262   1.058   5.541   9.572  1.3505  1.5043  1.1524
  185SAPI  C31121263   0.882   5.428   9.646 -0.4692  0.8048 -0.4386
  185SAPI  H11X21264   0.824   5.501   9.707  1.2259  1.9771 -0.1767
  185SAPI  H11Y21265   0.872   5.326   9.688  0.7937  1.4260  1.4745
  185SAPI  C31221266   0.831   5.428   9.502  0.5554  0.2768  0.3009
  185SAPI  H12X21267   0.841   5.535   9.475  0.5649  0.4841  1.1123
  185SAPI  H12Y21268   0.724   5.399   9.500  0.4897  0.5081 -1.5643
  185SAPI  C31321269   0.919   5.348   9.407 -0.0855 -0.2527  0.5908
  185SAPI  H13X21270   0.887   5.242   9.400  0.0619 -0.3409  1.2249
  185SAPI  H13Y21271   1.025   5.342   9.439  0.9834  1.6134 -2.2040
  185SAPI  C31421272   0.934   5.418   9.273  0.2447 -0.2567  0.4944
  185SAPI  H14X21273   1.002   5.506   9.283  0.5876 -0.3181 -1.0474
  185SAPI  H14Y21274   0.830   5.425   9.235  0.3789 -1.7242 -0.2302
  185SAPI  C31521275   1.003   5.317   9.172  0.5655 -0.0006  0.0314
  185SAPI  H15X21276   0.930   5.237   9.149  0.4484  0.0194  0.3243
  185SAPI  H15Y21277   1.079   5.261   9.230  0.8046  2.0548  1.8266
  185SAPI  C31621278   1.075   5.377   9.056 -0.0158  0.0211 -0.1134
  185SAPI  H16X21279   1.150   5.301   9.025 -0.9581 -0.0552 -2.4061
  185SAPI  H16Y21280   1.139   5.461   9.091  1.9209 -1.5423  0.2911
  185SAPI  C31721281   0.979   5.427   8.944 -0.0551 -0.7308 -0.2203
  185SAPI  H17X21282   0.903   5.349   8.924  0.5593 -0.9664 -1.7550
  185SAPI  H17Y21283   1.033   5.421   8.848 -1.2451  0.6023 -1.0126
  185SAPI  C31821284   0.920   5.572   8.965 -0.3668  1.0703  0.0333
  185SAPI  H18X21285   0.852   5.562   9.052  1.4813 -0.1365  1.4115
  185SAPI  H18Y21286   0.862   5.603   8.875 -0.6179 -0.3438 -0.3269
  185SAPI  H18Z21287   1.005   5.640   8.986  1.4628 -1.0023 -0.2614
  186SAPI   C1221288   6.534   3.383  11.195 -0.6219 -0.8726 -0.5212
  186SAPI    H221289   6.572   3.299  11.133  1.7152 -0.4302  0.2203
  186SAPI    O221290   6.465   3.323  11.306  0.3137  0.4109 -0.1995
  186SAPI   HO221291   6.475   3.227  11.303  1.7035  0.5007  0.5970
  186SAPI   C1321292   6.657   3.460  11.247 -0.3927 -0.0328  0.2619
  186SAPI    H321293   6.702   3.500  11.154  0.2226 -0.7924  0.2242
  186SAPI    O321294   6.741   3.378  11.327  0.1484  0.2705 -0.4950
  186SAPI   HO321295   6.769   3.299  11.280  0.6496  0.9135 -1.3006
  186SAPI   C1421296   6.619   3.583  11.321 -0.1936 -1.3100 -0.6655
  186SAPI    H421297   6.572   3.548  11.415 -0.8676  1.4773  0.1406
  186SAPI    O421298   6.731   3.664  11.365 -0.8070  0.7157 -0.3396
  186SAPI   HO421299   6.690   3.712  11.437  1.7014  1.8470  0.4252
  186SAPI   C1521300   6.513   3.667  11.242 -0.3896 -0.2313  0.4776
  186SAPI    H521301   6.560   3.712  11.152 -2.4720 -1.1495 -1.1416
  186SAPI    O521302   6.459   3.773  11.325  0.0398 -0.6923 -0.5399
  186SAPI   HO521303   6.472   3.859  11.285  2.3301 -0.7480 -0.0344
  186SAPI   C1621304   6.396   3.587  11.192  0.1952  0.0143 -0.1664
  186SAPI    H621305   6.334   3.554  11.278 -1.4670  1.2487 -0.8394
  186SAPI    O621306   6.314   3.667  11.110  0.2138 -0.1044 -0.2789
  186SAPI   HO621307   6.366   3.711  11.042 -2.1738 -0.5273 -2.5113
  186SAPI   C1121308   6.443   3.468  11.109 -1.4666  0.3675 -0.3532
  186SAPI    H121309   6.501   3.514  11.027  2.3628 -0.1296  1.8170
  186SAPI     P21310   6.364   3.309  10.909  0.2967 -0.0437  0.0773
  186SAPI   O1321311   6.328   3.172  10.947  0.3203 -0.5840  0.4253
  186SAPI   O1421312   6.502   3.329  10.852 -0.5580  0.2323  0.1813
  186SAPI   O1221313   6.337   3.391  11.053 -0.4301  0.3864  0.2435
  186SAPI   O1121314   6.250   3.359  10.811 -0.2536  0.2260  0.4585
  186SAPI    C121315   6.224   3.498  10.800 -0.2378 -0.2763 -0.1109
  186SAPI    HA21316   6.117   3.524  10.808 -0.3953  0.3302 -3.0808
  186SAPI    HB21317   6.285   3.555  10.873  0.2709 -1.2766  0.2792
  186SAPI    C221318   6.262   3.545  10.656 -0.6253  0.0940  0.3242
  186SAPI    HS21319   6.210   3.469  10.595  0.6894  0.9531 -2.0432
  186SAPI   O2121320   6.404   3.534  10.656  0.5358  0.5522 -0.3172
  186SAPI   C2121321   6.456   3.479  10.543 -0.1910 -0.4104 -0.0686
  186SAPI   O2221322   6.396   3.466  10.438 -0.3657 -0.0117 -0.1261
  186SAPI   C2221323   6.607   3.449  10.571 -0.3276 -0.0305 -0.0775
  186SAPI   H2R21324   6.641   3.526  10.644 -0.1989 -0.2898  0.1369
  186SAPI   H2S21325   6.609   3.348  10.617 -0.0519  0.7756  1.7731
  186SAPI    C321326   6.221   3.692  10.624  0.1721  0.4284 -0.6895
  186SAPI    HX21327   6.275   3.765  10.689  0.2277  2.4865 -2.9318
  186SAPI    HY21328   6.119   3.705  10.667  0.6396  0.8305  0.3465
  186SAPI   O3121329   6.226   3.730  10.483 -0.3391  0.3249 -0.2652
  186SAPI   C3121330   6.114   3.693  10.414 -0.2248 -0.5130 -0.0033
  186SAPI   O3221331   6.011   3.642  10.457  0.2874  0.1860 -0.2337
  186SAPI   C3221332   6.140   3.722  10.263  0.1807 -0.0063 -0.6810
  186SAPI   H2X21333   6.235   3.776  10.242 -1.0213  2.9779  0.8976
  186SAPI   H2Y21334   6.058   3.792  10.235  0.0664  0.1758  0.0802
  186SAPI   C2321335   6.692   3.439  10.450  0.2741  0.0352  0.8032
  186SAPI   H3R21336   6.664   3.512  10.371  0.2072  2.5092  2.9669
  186SAPI   H3S21337   6.674   3.340  10.404  1.3220  1.1399 -2.2281
  186SAPI   C2421338   6.841   3.443  10.484  0.5851  0.1850  0.5236
  186SAPI   H4R21339   6.902   3.387  10.410  1.2947  1.6561 -0.0486
  186SAPI   H4S21340   6.857   3.391  10.581  2.0851  1.5876  1.0902
  186SAPI   C2521341   6.901   3.582  10.502 -0.0188 -0.1441 -0.3364
  186SAPI   H5R21342   6.884   3.639  10.595  1.2464  1.1771 -0.8634
  186SAPI   C2621343   6.970   3.644  10.408 -0.0002 -0.7178  0.1853
  186SAPI   H6R21344   6.994   3.750  10.420 -0.6071 -0.5817  0.2048
  186SAPI   C2721345   6.991   3.593  10.264 -0.1682  0.5818 -0.0336
  186SAPI   H7R21346   6.989   3.679  10.194  1.8100  0.7413  0.0573
  186SAPI   H7S21347   6.895   3.543  10.241  0.2322 -0.1557 -0.1279
  186SAPI   C2821348   7.115   3.500  10.249 -0.4434  0.0671  0.1904
  186SAPI   H8R21349   7.171   3.474  10.339 -1.3268 -0.0464  0.7191
  186SAPI   C2921350   7.159   3.457  10.128  0.0511 -0.4292 -0.0380
  186SAPI   H9R21351   7.244   3.388  10.126  0.0216 -0.4536 -0.4510
  186SAPI  C21021352   7.095   3.488   9.995  0.5855 -0.0788 -0.0369
  186SAPI  H10R21353   7.167   3.556   9.945  0.9852  0.5115  1.3056
  186SAPI  H10S21354   7.004   3.550  10.002  1.5605  1.5691 -1.1568
  186SAPI  C21121355   7.073   3.368   9.905 -0.4106  0.6109 -0.5450
  186SAPI  H11R21356   7.113   3.277   9.951  0.2300  1.9908  1.7774
  186SAPI  C21221357   7.000   3.356   9.790  0.1422  0.4839  0.1334
  186SAPI  H12R21358   6.972   3.260   9.745 -2.0075  1.9058 -1.8582
  186SAPI  C21321359   6.933   3.477   9.725  0.4151  0.0885 -0.4931
  186SAPI  H13R21360   6.873   3.525   9.805 -0.5962 -2.9747  0.7495
  186SAPI  H13S21361   6.863   3.425   9.657 -1.2315  1.4430  0.1050
  186SAPI  C21421362   7.035   3.557   9.645  0.2405 -0.2464 -0.1961
  186SAPI  H14R21363   7.138   3.532   9.672  0.1537 -0.5314 -0.1276
  186SAPI  C21521364   7.005   3.641   9.540 -0.6034 -0.1134 -0.6589
  186SAPI  H15R21365   7.081   3.704   9.490 -1.5755  2.8045  1.2180
  186SAPI  C21621366   6.868   3.680   9.502 -0.2779 -0.1644 -0.0867
  186SAPI  H16R21367   6.857   3.785   9.535 -0.8896  0.1252 -1.1564
  186SAPI  H16S21368   6.797   3.616   9.559 -0.1566 -0.9279 -0.7613
  186SAPI  C21721369   6.828   3.669   9.360 -0.1059 -0.1449  0.2280
  186SAPI  H17R21370   6.719   3.692   9.365  0.3141  1.8316  1.1275
  186SAPI  H17S21371   6.841   3.563   9.329 -2.4773 -1.2345  2.5523
  186SAPI  C21821372   6.888   3.762   9.248  0.0281  0.4973 -0.3424
  186SAPI  H18R21373   6.998   3.746   9.246 -0.0303 -0.1625  0.7074
  186SAPI  H18S21374   6.865   3.866   9.282 -1.8891 -0.7604  2.6597
  186SAPI  C21921375   6.838   3.728   9.110  0.5366 -0.3906 -0.0184
  186SAPI  H19R21376   6.730   3.756   9.107  0.7532  0.6589  1.0830
  186SAPI  H19S21377   6.847   3.618   9.106  0.1659 -0.4756  1.1033
  186SAPI  C22021378   6.923   3.783   8.997 -0.3619  0.4550  0.2686
  186SAPI  H20R21379   7.029   3.790   9.031 -0.5917  2.8389  0.6693
  186SAPI  H20S21380   6.881   3.885   8.978 -3.1780 -0.1836  2.4608
  186SAPI  H20T21381   6.912   3.732   8.899  1.1763  0.5019  0.0410
  186SAPI   C3321382   6.126   3.595  10.184 -0.8361  0.9831  0.3822
  186SAPI   H3X21383   6.031   3.545  10.211  0.6460 -1.3039  1.7554
  186SAPI   H3Y21384   6.200   3.517  10.211 -1.9835 -0.7962 -1.3674
  186SAPI   C3421385   6.126   3.626  10.037 -0.0782 -0.1303 -0.4456
  186SAPI   H4X21386   6.060   3.713  10.019 -0.9022 -0.6434  0.0524
  186SAPI   H4Y21387   6.076   3.543   9.983 -0.9359  0.8264 -1.1423
  186SAPI   C3521388   6.268   3.646   9.977 -0.4312 -0.1994 -0.1422
  186SAPI   H5X21389   6.330   3.562  10.016  0.4279 -0.2838 -1.6020
  186SAPI   H5Y21390   6.311   3.744  10.006 -0.9973  0.1686 -0.5244
  186SAPI   C3621391   6.266   3.636   9.828 -0.3070 -0.9165 -0.1127
  186SAPI   H6X21392   6.231   3.536   9.793  0.6644 -1.5883  0.7814
  186SAPI   H6Y21393   6.371   3.644   9.794  0.6761 -0.6662  2.7446
  186SAPI   C3721394   6.189   3.751   9.755  0.5498 -0.2120 -1.1096
  186SAPI   H7X21395   6.243   3.847   9.764 -1.0182  0.5963  0.2728
  186SAPI   H7Y21396   6.090   3.761   9.805  1.3370 -1.3527  0.7759
  186SAPI   C3821397   6.169   3.731   9.604  0.1537 -0.5083 -0.0759
  186SAPI   H8X21398   6.077   3.780   9.566  0.4646  2.0062  2.0891
  186SAPI   H8Y21399   6.140   3.626   9.579 -0.2641 -0.4496  0.1564
  186SAPI   C3921400   6.294   3.769   9.523 -0.9082 -0.2271  0.9585
  186SAPI   H9X21401   6.382   3.707   9.552  0.0129  1.6373  2.4062
  186SAPI   H9Y21402   6.319   3.875   9.546 -0.7887 -0.0682  0.1157
  186SAPI  C31021403   6.265   3.748   9.373 -0.6261  0.1724 -0.3727
  186SAPI  H10X21404   6.193   3.830   9.348 -1.7411 -1.4738 -2.9085
  186SAPI  H10Y21405   6.221   3.649   9.349  0.3460 -0.0834 -1.1357
  186SAPI  C31121406   6.399   3.766   9.290  0.1870 -0.8209 -0.2360
  186SAPI  H11X21407   6.476   3.706   9.344  0.8488  0.8348  0.7554
  186SAPI  H11Y21408   6.438   3.869   9.302  1.8525 -1.6148  1.7630
  186SAPI  C31221409   6.394   3.731   9.138  0.1777 -0.0663  1.0318
  186SAPI  H12X21410   6.352   3.629   9.122 -1.8915  0.7143  1.1159
  186SAPI  H12Y21411   6.489   3.739   9.081 -1.2944 -0.4701 -1.6537
  186SAPI  C31321412   6.287   3.811   9.057 -0.1211 -0.7820  0.3372
  186SAPI  H13X21413   6.322   3.917   9.060 -1.4732 -0.3201  0.3699
  186SAPI  H13Y21414   6.190   3.810   9.112  0.7674 -0.3103  1.9918
  186SAPI  C31421415   6.284   3.775   8.904  0.0239 -0.0421  0.9090
  186SAPI  H14X21416   6.211   3.839   8.850 -1.5486 -3.4497 -1.3648
  186SAPI  H14Y21417   6.254   3.669   8.889 -0.1034  0.2666 -1.4490
  186SAPI  C31521418   6.414   3.782   8.816 -0.0192  0.2957 -0.2067
  186SAPI  H15X21419   6.478   3.696   8.843  1.2069  1.5789  1.1563
  186SAPI  H15Y21420   6.471   3.877   8.823 -0.1422  0.4188 -0.8827
  186SAPI  C31621421   6.383   3.772   8.661 -0.3835 -0.0867  0.8561
  186SAPI  H16X21422   6.334   3.868   8.633  0.9391  0.5331  0.5795
  186SAPI  H16Y21423   6.328   3.679   8.639 -0.7439  0.2642  0.2288
  186SAPI  C31721424   6.517   3.770   8.590  0.2909 -0.4318  0.3127
  186SAPI  H17X21425   6.579   3.683   8.619  0.2550 -0.8921 -0.9100
  186SAPI  H17Y21426   6.572   3.862   8.620  3.2365 -2.1801  0.5621
  186SAPI  C31821427   6.488   3.772   8.434 -0.3791 -0.3891 -0.2598
  186SAPI  H18X21428   6.421   3.690   8.399 -0.0145 -1.2461  0.9932
  186SAPI  H18Y21429   6.589   3.767   8.389  1.2009  1.1376  2.8259
  186SAPI  H18Z21430   6.437   3.866   8.405  1.0326  0.0528 -1.3936
  187SAPI   C1221431   2.060   4.974   6.375 -0.9258 -0.6379  0.0346
  187SAPI    H221432   2.164   4.952   6.340 -0.7957  0.2116 -0.1536
  187SAPI    O221433   2.011   5.080   6.290 -0.1254  0.0303  0.3417
  187SAPI   HO221434   2.066   5.156   6.308 -0.6987  0.5243  0.0391
  187SAPI   C1321435   1.973   4.847   6.376 -0.3915 -0.0629  0.3332
  187SAPI    H321436   2.028   4.782   6.448 -1.0315  0.1753  1.0514
  187SAPI    O321437   1.958   4.775   6.255 -0.3409  0.5980 -0.1989
  187SAPI   HO321438   1.873   4.731   6.252 -0.3653  0.6766 -0.7122
  187SAPI   C1421439   1.841   4.883   6.437  0.6199  0.3772  0.2779
  187SAPI    H421440   1.802   4.972   6.383 -0.2986  0.4678  1.0676
  187SAPI    O421441   1.747   4.773   6.437  0.5888 -0.2823  0.0007
  187SAPI   HO421442   1.772   4.710   6.505  0.3441 -0.1298  0.2296
  187SAPI   C1521443   1.864   4.931   6.583  0.4722 -0.8964  0.4632
  187SAPI    H521444   1.905   4.849   6.644  1.7117 -1.1670 -0.6914
  187SAPI    O521445   1.739   4.971   6.645 -0.5445  0.1299 -0.1175
  187SAPI   HO521446   1.756   5.047   6.702  0.4965  0.4514 -0.8260
  187SAPI   C1621447   1.956   5.051   6.582 -0.3847  0.1521  0.9614
  187SAPI    H621448   1.898   5.131   6.531 -1.5165 -1.8126 -1.0360
  187SAPI    O621449   1.981   5.095   6.716 -0.9648 -0.5017 -0.3846
  187SAPI   HO621450   2.075   5.080   6.731 -0.8496 -1.2984 -1.8118
  187SAPI   C1121451   2.087   5.017   6.515  0.2879 -0.2110 -0.2361
  187SAPI    H121452   2.137   4.944   6.582 -0.1875 -0.1485  0.1963
  187SAPI     P21453   2.335   5.129   6.511  0.2475  0.4009  0.0225
  187SAPI   O1321454   2.400   5.256   6.477 -0.4788 -0.0845  0.6999
  187SAPI   O1421455   2.382   5.007   6.435 -0.6090  1.0353  0.1561
  187SAPI   O1221456   2.171   5.139   6.505 -0.1174 -0.5103 -0.6105
  187SAPI   O1121457   2.343   5.109   6.668 -0.0127 -0.0908  0.4480
  187SAPI    C121458   2.288   5.215   6.750  0.1600  0.5767 -0.3975
  187SAPI    HA21459   2.347   5.308   6.736 -0.5673  1.3251  1.2465
  187SAPI    HB21460   2.182   5.237   6.724 -0.0836 -2.4519 -2.5772
  187SAPI    C221461   2.303   5.176   6.897 -0.0740 -0.5238 -0.4804
  187SAPI    HS21462   2.382   5.097   6.894  2.9105  2.2444 -0.3371
  187SAPI   O2121463   2.175   5.116   6.919 -0.3407 -0.2205 -1.1631
  187SAPI   C2121464   2.164   5.033   7.022  0.7091  0.6235  0.0310
  187SAPI   O2221465   2.241   5.003   7.105  0.3508 -0.5133 -0.5596
  187SAPI   C2221466   2.027   4.970   7.011 -0.0222 -0.6058 -0.8313
  187SAPI   H2R21467   1.950   5.047   7.031  0.8162 -0.3175  1.6627
  187SAPI   H2S21468   2.022   4.946   6.902 -2.5927 -1.0157 -0.6832
  187SAPI    C321469   2.330   5.293   6.988 -0.0830 -0.1905 -0.0946
  187SAPI    HX21470   2.250   5.370   6.974  0.8089  1.5031  3.0244
  187SAPI    HY21471   2.419   5.347   6.949  0.3453  1.7142  3.1527
  187SAPI   O3121472   2.373   5.256   7.118 -0.1875 -0.1757 -0.1117
  187SAPI   C3121473   2.276   5.280   7.212 -0.4514 -0.0060  0.0724
  187SAPI   O3221474   2.168   5.336   7.183 -0.0445 -0.1883 -0.0790
  187SAPI   C3221475   2.323   5.226   7.347  0.6631 -0.2085 -0.5401
  187SAPI   H2X21476   2.431   5.201   7.349  0.4913 -1.0107 -0.7130
  187SAPI   H2Y21477   2.268   5.132   7.369  1.6257 -0.6794 -0.0938
  187SAPI   C2321478   1.998   4.862   7.111  0.3459 -0.6094  1.4502
  187SAPI   H3R21479   2.079   4.786   7.116  1.3214  0.2187 -0.6023
  187SAPI   H3S21480   1.907   4.809   7.077  0.2607 -0.0723  0.8051
  187SAPI   C2421481   1.984   4.923   7.252 -0.1209  0.2485  0.1909
  187SAPI   H4R21482   1.932   5.021   7.252 -1.2803 -0.3483 -0.3437
  187SAPI   H4S21483   2.089   4.937   7.286  0.0642 -0.5264 -0.0296
  187SAPI   C2521484   1.897   4.841   7.341  0.4211 -0.0797 -0.7506
  187SAPI   H5R21485   1.811   4.794   7.292 -1.1247 -0.1487  1.8234
  187SAPI   C2621486   1.904   4.816   7.470  0.2808 -0.1238  0.1594
  187SAPI   H6R21487   1.830   4.745   7.511 -1.8844  1.4023 -0.9103
  187SAPI   C2721488   2.011   4.878   7.551 -0.0023 -0.5080 -1.0928
  187SAPI   H7R21489   1.974   4.980   7.576  0.8996 -0.3621 -0.3249
  187SAPI   H7S21490   2.114   4.885   7.509  1.1225  3.3138  1.7193
  187SAPI   C2821491   2.024   4.813   7.685 -0.4138  0.6709  0.3365
  187SAPI   H8R21492   2.083   4.721   7.687  0.0776  0.9758 -0.0353
  187SAPI   C2921493   1.958   4.854   7.799  0.1376 -0.2818  0.1489
  187SAPI   H9R21494   1.967   4.791   7.889  0.5849 -0.0756  0.2502
  187SAPI  C21021495   1.868   4.966   7.831  0.6069 -0.3139  0.0050
  187SAPI  H10R21496   1.834   5.019   7.739 -1.7262  1.4909  1.7955
  187SAPI  H10S21497   1.928   5.040   7.887  0.4939 -0.8683  0.8783
  187SAPI  C21121498   1.755   4.927   7.921  0.2335 -0.5164 -0.3032
  187SAPI  H11R21499   1.666   4.894   7.865  0.1308 -0.3467 -0.2396
  187SAPI  C21221500   1.753   4.933   8.053  0.7460 -0.9021 -0.4854
  187SAPI  H12R21501   1.666   4.885   8.100  1.1203 -0.8601  0.2768
  187SAPI  C21321502   1.849   4.976   8.148 -0.8842  0.6752  0.6007
  187SAPI  H13R21503   1.828   5.083   8.168  2.1783  1.8963 -1.9033
  187SAPI  H13S21504   1.949   4.981   8.099 -2.0256  0.9959 -1.8812
  187SAPI  C21421505   1.864   4.883   8.272  0.1884  1.0916  0.6886
  187SAPI  H14R21506   1.906   4.782   8.254  0.6805  1.8243 -3.2718
  187SAPI  C21521507   1.840   4.920   8.398 -0.3922  0.6761  0.6410
  187SAPI  H15R21508   1.837   4.836   8.469  1.5035 -0.9727 -1.1005
  187SAPI  C21621509   1.790   5.058   8.440 -0.1454 -0.1444  0.6803
  187SAPI  H16R21510   1.729   5.097   8.356  0.3511 -4.6803 -2.1399
  187SAPI  H16S21511   1.879   5.123   8.438  1.1534 -1.8735 -0.0036
  187SAPI  C21721512   1.720   5.047   8.574 -0.4324  0.2412 -0.5786
  187SAPI  H17R21513   1.623   4.996   8.561 -1.0664  1.3702 -0.4252
  187SAPI  H17S21514   1.684   5.148   8.603 -1.1107 -0.6604  1.9508
  187SAPI  C21821515   1.800   4.997   8.694 -0.2263  0.7389  0.4858
  187SAPI  H18R21516   1.844   4.896   8.677  0.5944  1.1787 -0.0065
  187SAPI  H18S21517   1.746   4.995   8.792 -2.8775  1.1317 -0.8685
  187SAPI  C21921518   1.932   5.076   8.717 -0.6727 -0.4263  0.3033
  187SAPI  H19R21519   1.904   5.180   8.690  0.7051 -0.3599 -0.9813
  187SAPI  H19S21520   2.008   5.053   8.639  0.1676 -0.7805  1.2041
  187SAPI  C22021521   2.000   5.073   8.860  0.0175  0.1880  1.1731
  187SAPI  H20R21522   2.029   4.970   8.887 -1.5025 -0.4584  0.4305
  187SAPI  H20S21523   1.933   5.120   8.935 -1.3351  1.0021 -0.4575
  187SAPI  H20T21524   2.097   5.126   8.846 -0.5998  0.7093 -1.9325
  187SAPI   C3321525   2.295   5.337   7.448 -0.0585  0.2142 -0.1284
  187SAPI   H3X21526   2.196   5.381   7.425  0.0362 -0.4080 -1.8750
  187SAPI   H3Y21527   2.373   5.417   7.451  1.3642 -1.1314 -0.0474
  187SAPI   C3421528   2.309   5.274   7.583 -0.0391  0.1539 -0.3504
  187SAPI   H4X21529   2.418   5.275   7.605 -0.4723  1.2627  2.0576
  187SAPI   H4Y21530   2.271   5.170   7.586 -0.0695  0.1350 -1.0506
  187SAPI   C3521531   2.243   5.343   7.707  0.0812 -0.2235  0.0261
  187SAPI   H5X21532   2.134   5.360   7.703 -0.0638 -0.7960  1.0578
  187SAPI   H5Y21533   2.287   5.445   7.707 -0.7496  0.1668  1.6769
  187SAPI   C3621534   2.292   5.286   7.840 -0.3963  0.4397 -0.2509
  187SAPI   H6X21535   2.400   5.267   7.828 -0.6099 -1.2232  0.1735
  187SAPI   H6Y21536   2.252   5.182   7.851 -0.2079  0.0784 -2.4981
  187SAPI   C3721537   2.260   5.358   7.970  0.3034 -0.2285  0.0268
  187SAPI   H7X21538   2.149   5.371   7.971  0.4444  1.1188  0.8651
  187SAPI   H7Y21539   2.300   5.461   7.979  0.9392 -0.4457 -0.2705
  187SAPI   C3821540   2.277   5.270   8.091  0.0609 -0.1155 -0.8471
  187SAPI   H8X21541   2.386   5.251   8.106  0.2376  0.6867 -1.0412
  187SAPI   H8Y21542   2.240   5.168   8.070  0.2976 -0.1068 -1.3263
  187SAPI   C3921543   2.216   5.325   8.214 -0.6077  0.0967  0.6780
  187SAPI   H9X21544   2.107   5.315   8.196 -0.1355 -2.3974 -1.4419
  187SAPI   H9Y21545   2.244   5.431   8.233  0.2490 -0.1157  0.6398
  187SAPI  C31021546   2.240   5.239   8.334  0.3432  0.2968  0.2449
  187SAPI  H10X21547   2.217   5.137   8.296 -2.2405  1.2463 -0.9929
  187SAPI  H10Y21548   2.161   5.267   8.408  0.2304 -1.4360  0.8184
  187SAPI  C31121549   2.381   5.237   8.399 -0.0432 -0.3610 -0.1186
  187SAPI  H11X21550   2.409   5.340   8.430  1.7483 -0.8876  0.1286
  187SAPI  H11Y21551   2.453   5.209   8.319 -3.7102 -1.6555 -3.2894
  187SAPI  C31221552   2.390   5.138   8.521 -0.4292 -1.2304  0.0309
  187SAPI  H12X21553   2.306   5.167   8.588  2.0598 -0.2692  3.0082
  187SAPI  H12Y21554   2.479   5.151   8.586  0.8396 -0.4631 -1.7730
  187SAPI  C31321555   2.391   4.992   8.492  0.1104  1.0299  0.4573
  187SAPI  H13X21556   2.481   4.954   8.438 -1.0563  0.8652 -1.4920
  187SAPI  H13Y21557   2.307   4.966   8.423 -1.4907 -2.8342  3.4818
  187SAPI  C31421558   2.373   4.906   8.621 -0.0784 -0.1414  0.2177
  187SAPI  H14X21559   2.275   4.948   8.653  0.7226 -0.0725  2.8011
  187SAPI  H14Y21560   2.455   4.948   8.683  0.0002  0.6565 -0.4010
  187SAPI  C31521561   2.376   4.758   8.599 -0.3210 -0.2312 -0.4642
  187SAPI  H15X21562   2.331   4.724   8.503  0.8000 -0.9898 -0.7352
  187SAPI  H15Y21563   2.329   4.707   8.687  0.3339 -1.5240 -0.8430
  187SAPI  C31621564   2.533   4.717   8.604 -0.4364 -0.1408 -0.1816
  187SAPI  H16X21565   2.565   4.734   8.709 -1.6384 -3.0551  0.7699
  187SAPI  H16Y21566   2.591   4.783   8.535  1.4945 -2.6744 -1.1628
  187SAPI  C31721567   2.566   4.572   8.575  0.1166  0.1445 -0.1739
  187SAPI  H17X21568   2.642   4.567   8.494  0.2549  0.4260 -0.0607
  187SAPI  H17Y21569   2.476   4.528   8.527 -0.1400  0.1172  0.3196
  187SAPI  C31821570   2.599   4.491   8.708 -0.2866 -1.3076  0.1429
  187SAPI  H18X21571   2.530   4.527   8.787 -1.1029 -0.5192 -0.8940
  187SAPI  H18Y21572   2.698   4.526   8.745 -1.6226  3.2425  0.0107
  187SAPI  H18Z21573   2.592   4.381   8.699  0.6730 -1.2628 -1.6454
  188SAPI   C1221574   5.067   0.984   6.398  0.2791  0.7577  0.1068
  188SAPI    H221575   5.058   0.950   6.504 -0.4109 -1.1096 -0.5033
  188SAPI    O221576   4.949   1.049   6.361  0.3430  0.7171  0.0873
  188SAPI   HO221577   4.897   1.039   6.441  0.9083  1.1735  0.5239
  188SAPI   C1321578   5.186   1.071   6.395 -0.5139  0.5513  1.3201
  188SAPI    H321579   5.277   1.021   6.436 -0.0095 -0.5566 -1.0023
  188SAPI    O321580   5.174   1.194   6.467 -0.0212 -0.0053  0.1365
  188SAPI   HO321581   5.106   1.244   6.422 -0.4755 -0.7530 -0.0372
  188SAPI   C1421582   5.221   1.092   6.248  0.0909  0.0247  0.1615
  188SAPI    H421583   5.145   1.149   6.191 -0.1169  0.6239  1.0346
  188SAPI    O421584   5.337   1.176   6.235  0.8636 -0.5692  0.1398
  188SAPI   HO421585   5.348   1.217   6.321 -0.0229  2.7134 -1.1745
  188SAPI   C1521586   5.226   0.963   6.159  0.0404 -0.1686  0.3050
  188SAPI    H521587   5.313   0.907   6.199 -0.2759 -0.2710  0.8513
  188SAPI    O521588   5.253   0.991   6.020  0.5114 -0.0058 -0.1522
  188SAPI   HO521589   5.172   1.025   5.982 -0.5142 -1.1882  0.8883
  188SAPI   C1621590   5.108   0.875   6.170 -0.6459  0.5664  1.0230
  188SAPI    H621591   5.024   0.928   6.121  0.7508  1.3200 -0.6611
  188SAPI    O621592   5.128   0.749   6.112  0.0303  0.2612 -0.2423
  188SAPI   HO621593   5.045   0.701   6.115  0.9565 -1.4795 -0.5164
  188SAPI   C1121594   5.077   0.857   6.319 -0.5240  0.3175 -0.4399
  188SAPI    H121595   5.169   0.803   6.351 -0.1601  1.4902  0.5595
  188SAPI     P21596   4.935   0.682   6.472 -0.3623  0.2966  0.0818
  188SAPI   O1321597   5.064   0.631   6.533  0.1782 -0.1182 -0.0625
  188SAPI   O1421598   4.831   0.581   6.428  0.7943  0.2398 -0.1767
  188SAPI   O1221599   4.960   0.776   6.342 -0.3833 -0.0272 -0.1536
  188SAPI   O1121600   4.864   0.783   6.563 -0.3474  0.2152  0.1617
  188SAPI    C121601   4.925   0.818   6.690 -0.0681  0.8857  1.1747
  188SAPI    HA21602   5.035   0.800   6.685 -0.3180 -0.4378 -0.2293
  188SAPI    HB21603   4.918   0.929   6.697 -2.5857  0.8442  0.2261
  188SAPI    C221604   4.866   0.753   6.816  0.9248  0.0843 -0.2293
  188SAPI    HS21605   4.904   0.651   6.838  0.5842  0.2048  0.9570
  188SAPI   O2121606   4.723   0.744   6.798  0.3171 -0.8072  0.2835
  188SAPI   C2121607   4.681   0.639   6.747  0.3199  0.2943 -1.0110
  188SAPI   O2221608   4.744   0.539   6.725  0.4525 -0.3475 -0.2859
  188SAPI   C2221609   4.527   0.648   6.725  0.4123 -0.0087  0.4591
  188SAPI   H2R21610   4.484   0.720   6.798 -0.9739 -1.0897  0.7554
  188SAPI   H2S21611   4.517   0.692   6.623 -0.0861 -0.2272  0.4096
  188SAPI    C321612   4.906   0.831   6.944 -0.9022  0.0899 -0.1627
  188SAPI    HX21613   4.844   0.795   7.029  0.4328  0.0813  0.8426
  188SAPI    HY21614   4.880   0.939   6.943  2.9581  1.2193  1.3521
  188SAPI   O3121615   5.047   0.817   6.980  0.0102  0.2341  0.3840
  188SAPI   C3121616   5.121   0.917   6.941  0.2684 -0.7420 -0.7207
  188SAPI   O3221617   5.078   1.030   6.911 -0.5479  0.3172 -0.2789
  188SAPI   C3221618   5.272   0.888   6.937  0.6900  0.2409 -1.1232
  188SAPI   H2X21619   5.305   0.897   6.831 -1.1383  0.2067 -1.7328
  188SAPI   H2Y21620   5.291   0.787   6.980 -1.3778  0.7613  1.1933
  188SAPI   C2321621   4.466   0.502   6.736 -0.0595 -0.4714  0.2494
  188SAPI   H3R21622   4.533   0.437   6.675  2.3191  1.1353  1.0083
  188SAPI   H3S21623   4.371   0.517   6.682  0.8099  0.6731 -1.0214
  188SAPI   C2421624   4.438   0.454   6.879 -0.3850  0.4578 -0.5336
  188SAPI   H4R21625   4.537   0.435   6.925 -1.1474 -0.8046  0.6457
  188SAPI   H4S21626   4.390   0.354   6.877 -1.9165  1.1645 -1.0986
  188SAPI   C2521627   4.344   0.556   6.945  0.4453  0.0850  0.2045
  188SAPI   H5R21628   4.266   0.606   6.887  0.5025 -0.0179  0.0371
  188SAPI   C2621629   4.349   0.586   7.079 -0.1536  0.1159 -0.1545
  188SAPI   H6R21630   4.277   0.658   7.118  0.4734  2.1198 -2.4207
  188SAPI   C2721631   4.438   0.514   7.181 -0.3773 -0.1787  0.3242
  188SAPI   H7R21632   4.519   0.449   7.140  0.3067 -0.7568  2.4533
  188SAPI   H7S21633   4.369   0.446   7.236 -0.1473 -2.4298 -1.9596
  188SAPI   C2821634   4.492   0.614   7.277 -0.0058 -0.5419 -0.5012
  188SAPI   H8R21635   4.523   0.711   7.237  2.5215 -1.6248 -1.3820
  188SAPI   C2921636   4.527   0.580   7.407  0.0573  0.0982 -0.2040
  188SAPI   H9R21637   4.573   0.656   7.472 -0.2628  2.1223 -2.2209
  188SAPI  C21021638   4.517   0.447   7.482 -0.7279 -0.5583  0.5391
  188SAPI  H10R21639   4.409   0.421   7.483 -1.0902  0.7841  2.6323
  188SAPI  H10S21640   4.550   0.466   7.586 -1.0048 -0.5256  0.6225
  188SAPI  C21121641   4.608   0.350   7.417 -0.2416 -0.6030  0.3855
  188SAPI  H11R21642   4.601   0.343   7.308  1.1425 -1.0310  0.2968
  188SAPI  C21221643   4.704   0.272   7.470 -0.1284 -0.2438 -0.4920
  188SAPI  H12R21644   4.761   0.203   7.406  1.6586  0.4431  0.3063
  188SAPI  C21321645   4.745   0.271   7.619 -0.1315  0.2775 -0.0587
  188SAPI  H13R21646   4.710   0.173   7.656  0.0709 -0.0480 -0.7129
  188SAPI  H13S21647   4.688   0.355   7.665 -0.3158  0.6706 -0.9769
  188SAPI  C21421648   4.900   0.290   7.645  0.6934 -0.1774  0.2758
  188SAPI  H14R21649   4.963   0.288   7.555  0.7490  1.3842  0.2578
  188SAPI  C21521650   4.953   0.313   7.767  0.1284  0.5271  0.4685
  188SAPI  H15R21651   5.058   0.344   7.778  0.9761 -2.3562  1.2966
  188SAPI  C21621652   4.860   0.308   7.890 -0.3994 -0.1120  0.0328
  188SAPI  H16R21653   4.759   0.282   7.851 -0.8708  1.8045 -0.1249
  188SAPI  H16S21654   4.853   0.406   7.941 -0.7022 -0.6848  1.1412
  188SAPI  C21721655   4.905   0.204   7.993 -0.7464  0.0059 -0.9614
  188SAPI  H17R21656   5.008   0.226   8.029 -0.8761  2.8246 -2.0377
  188SAPI  H17S21657   4.900   0.109   7.937  0.8460 -0.0917 -0.9548
  188SAPI  C21821658   4.804   0.196   8.114 -0.2906  0.1608 -0.1418
  188SAPI  H18R21659   4.700   0.186   8.079 -0.8548  0.4785  1.3540
  188SAPI  H18S21660   4.798   0.294   8.165  2.1251  0.7645 -0.8697
  188SAPI  C21921661   4.843   0.080   8.213  0.0472 -0.2489  0.2628
  188SAPI  H19R21662   4.773   0.090   8.299 -0.1247  1.2902 -0.0424
  188SAPI  H19S21663   4.946   0.099   8.250 -0.5586  1.9812  0.9641
  188SAPI  C22021664   4.839  -0.063   8.167  0.4859 -0.0257 -0.2196
  188SAPI  H20R21665   4.908  -0.071   8.080  1.2873  1.0335  0.2919
  188SAPI  H20S21666   4.731  -0.076   8.140 -1.3791  3.2496  4.3454
  188SAPI  H20T21667   4.875  -0.129   8.248  0.4026  0.9812  0.6557
  188SAPI   C3321668   5.363   0.979   7.021  0.0493 -0.1517 -0.4316
  188SAPI   H3X21669   5.359   1.088   7.000 -0.2498 -0.4572 -2.0737
  188SAPI   H3Y21670   5.461   0.950   6.979  0.1777  0.4516 -0.5603
  188SAPI   C3421671   5.350   0.961   7.171  0.1719 -0.0617 -0.7084
  188SAPI   H4X21672   5.392   0.861   7.192  0.2131 -0.1555 -1.2400
  188SAPI   H4Y21673   5.248   0.969   7.214  0.8687  1.7866  0.7912
  188SAPI   C3521674   5.422   1.068   7.261  0.4825  0.3554 -0.0128
  188SAPI   H5X21675   5.369   1.165   7.264 -1.0783 -0.4813  0.6741
  188SAPI   H5Y21676   5.523   1.093   7.222  2.3628 -0.8064  3.6880
  188SAPI   C3621677   5.426   1.034   7.412 -0.2644 -0.3503 -0.3491
  188SAPI   H6X21678   5.475   0.935   7.420  1.2729  0.4355  0.3389
  188SAPI   H6Y21679   5.322   1.028   7.452 -0.8798 -2.3069 -2.0712
  188SAPI   C3721680   5.497   1.138   7.499 -0.0409  0.1946  0.2707
  188SAPI   H7X21681   5.442   1.231   7.472 -2.3284 -1.2386 -0.3292
  188SAPI   H7Y21682   5.603   1.139   7.466 -0.1086  0.6199  0.0549
  188SAPI   C3821683   5.478   1.110   7.643 -0.0863 -0.1401 -0.0594
  188SAPI   H8X21684   5.371   1.111   7.672  0.5783 -1.6042  2.8889
  188SAPI   H8Y21685   5.535   1.187   7.699  0.2217  0.2141 -0.8378
  188SAPI   C3921686   5.526   0.967   7.687  0.0671 -0.4114 -0.8293
  188SAPI   H9X21687   5.623   0.956   7.634 -0.7692 -3.4665 -1.9804
  188SAPI   H9Y21688   5.458   0.889   7.644 -0.9315  0.7319 -1.4009
  188SAPI  C31021689   5.542   0.956   7.839  0.5119  0.2723 -0.6393
  188SAPI  H10X21690   5.626   1.015   7.882 -0.3830  1.6555 -0.7092
  188SAPI  H10Y21691   5.584   0.854   7.853  2.8278  1.3120  0.5332
  188SAPI  C31121692   5.416   0.986   7.920 -0.3674  0.3270 -0.2570
  188SAPI  H11X21693   5.332   0.933   7.870 -1.5671 -0.3646  2.3109
  188SAPI  H11Y21694   5.388   1.094   7.914  1.4231  0.8741  0.4239
  188SAPI  C31221695   5.417   0.957   8.064 -0.2799 -0.0992  0.1236
  188SAPI  H12X21696   5.495   1.026   8.104 -0.0177  0.1672 -0.8269
  188SAPI  H12Y21697   5.442   0.855   8.100 -1.2067 -1.0083 -1.6803
  188SAPI  C31321698   5.294   1.021   8.137  0.3382 -0.0392  0.5506
  188SAPI  H13X21699   5.196   0.979   8.106 -0.0801  0.4744  1.1460
  188SAPI  H13Y21700   5.282   1.122   8.092 -2.0288 -0.0240  1.1277
  188SAPI  C31421701   5.329   1.026   8.286 -0.1415 -0.4602 -0.5408
  188SAPI  H14X21702   5.253   1.087   8.340  0.7388  1.9294 -1.8204
  188SAPI  H14Y21703   5.415   1.092   8.311  1.7168 -2.2147 -1.9997
  188SAPI  C31521704   5.344   0.887   8.355 -0.5345  0.2209 -0.0973
  188SAPI  H15X21705   5.434   0.832   8.322 -0.4529  0.3150 -0.0325
  188SAPI  H15Y21706   5.260   0.819   8.329 -0.0946 -0.4848  0.2928
  188SAPI  C31621707   5.344   0.889   8.506 -0.0060 -0.1345 -0.3817
  188SAPI  H16X21708   5.368   0.786   8.541  0.2206 -0.1028 -0.4452
  188SAPI  H16Y21709   5.251   0.936   8.544 -0.5611 -0.9995 -0.6255
  188SAPI  C31721710   5.460   0.963   8.575  0.0893  0.1407  1.2321
  188SAPI  H17X21711   5.468   0.939   8.683  1.1322 -0.2357  1.0799
  188SAPI  H17Y21712   5.440   1.072   8.567 -2.4966 -0.3444  0.1242
  188SAPI  C31821713   5.594   0.939   8.504  0.0291  0.1370  0.2637
  188SAPI  H18X21714   5.606   0.831   8.482 -0.3969 -0.0142  0.7699
  188SAPI  H18Y21715   5.679   0.970   8.568 -1.0438  1.7934  0.9417
  188SAPI  H18Z21716   5.597   0.986   8.403 -0.1426 -3.6026 -1.6411
  189POPC     N21717   2.297   2.482  11.456 -0.5791 -0.3494 -0.0565
  189POPC   C1221718   2.192   2.499  11.344 -0.6127 -0.2903 -1.3934
  189POPC  H12A21719   2.228   2.586  11.291  0.4918 -0.6561 -1.2823
  189POPC  H12B21720   2.093   2.491  11.386  0.8457 -0.7473  2.3073
  189POPC   C1321721   2.267   2.354  11.526 -0.5573 -0.3281 -0.1087
  189POPC  H13A21722   2.346   2.341  11.598  1.4452  0.8694 -1.9570
  189POPC  H13B21723   2.169   2.348  11.572 -1.4559  0.4213 -1.8011
  189POPC  H13C21724   2.278   2.271  11.458 -0.0287  0.5336 -1.0995
  189POPC   C1421725   2.439   2.461  11.408 -0.4242  0.2016 -0.8693
  189POPC  H14A21726   2.475   2.540  11.344  1.4854  0.0431 -0.0590
  189POPC  H14B21727   2.513   2.464  11.487 -1.4404  0.0606  0.1143
  189POPC  H14C21728   2.453   2.366  11.358 -1.0972 -1.2539  1.5471
  189POPC   C1521729   2.302   2.597  11.547 -0.0237  0.5224 -0.2196
  189POPC  H15A21730   2.369   2.673  11.511  1.9265  0.8896  3.6831
  189POPC  H15B21731   2.350   2.579  11.642  0.8473  4.3129  0.2232
  189POPC  H15C21732   2.202   2.632  11.571 -1.1457 -2.3948 -0.1561
  189POPC   C1121733   2.190   2.384  11.234 -0.5349 -0.9662  0.0650
  189POPC  H11A21734   2.145   2.290  11.272  0.9315 -1.1223  1.5359
  189POPC  H11B21735   2.294   2.357  11.207  0.1327 -0.2712  1.7522
  189POPC     P21736   2.188   2.538  11.030 -0.3640  0.0838  0.2572
  189POPC   O1321737   2.248   2.646  11.111 -0.4025  0.3951 -0.3092
  189POPC   O1421738   2.091   2.593  10.932  1.3005  0.3312  0.0890
  189POPC   O1221739   2.122   2.434  11.119 -0.1184  0.1033  0.0942
  189POPC   O1121740   2.301   2.468  10.956  0.1241  0.2208  0.0786
  189POPC    C121741   2.284   2.329  10.913  0.5939 -0.6389  0.5939
  189POPC    HA21742   2.189   2.279  10.941 -0.7879  0.4990 -1.7479
  189POPC    HB21743   2.364   2.258  10.941 -1.4953 -2.9985  1.0011
  189POPC    C221744   2.279   2.320  10.752 -0.5019  0.2575 -0.2015
  189POPC    HS21745   2.300   2.211  10.740 -1.2762  0.0433  0.3512
  189POPC   O2121746   2.373   2.411  10.696 -0.3698 -0.7863 -0.2647
  189POPC   C2121747   2.494   2.361  10.687  0.4207 -0.7772  1.0395
  189POPC   O2221748   2.524   2.249  10.722  0.2000 -0.3710 -0.0238
  189POPC   C2221749   2.590   2.469  10.634  0.3078 -0.4120 -0.3082
  189POPC   H2R21750   2.641   2.524  10.715  3.1717 -1.3510 -1.3402
  189POPC   H2S21751   2.528   2.539  10.573 -0.3991  0.2935  1.1670
  189POPC    C321752   2.147   2.349  10.683  0.1045 -0.2869  0.0147
  189POPC    HX21753   2.128   2.458  10.689  0.1208 -0.2370 -0.7559
  189POPC    HY21754   2.060   2.298  10.731  0.1405 -0.8475 -0.5036
  189POPC   O3121755   2.160   2.322  10.544  0.4835 -0.1901 -0.7911
  189POPC   C3121756   2.150   2.196  10.503  0.4423  0.4226  0.5863
  189POPC   O3221757   2.102   2.104  10.568  0.5405 -0.2635 -0.0718
  189POPC   C3221758   2.201   2.182  10.356  0.3078  0.3724 -0.2402
  189POPC   H2X21759   2.106   2.171  10.301  0.0446 -0.2931  0.3329
  189POPC   H2Y21760   2.245   2.081  10.341  1.6620  0.7709  0.7877
  189POPC   C2321761   2.709   2.400  10.562  0.0049  0.1586  0.0949
  189POPC   H3R21762   2.758   2.322  10.624 -1.0355 -2.5378 -2.2780
  189POPC   H3S21763   2.787   2.478  10.556 -1.0458  1.2431  0.1357
  189POPC   C2421764   2.679   2.346  10.422 -0.5749 -0.1665 -0.4758
  189POPC   H4R21765   2.645   2.435  10.365 -1.6450 -0.4118 -0.2510
  189POPC   H4S21766   2.598   2.271  10.422 -0.1504 -0.6448 -1.8934
  189POPC   C2521767   2.800   2.282  10.352  0.4573  0.2073 -0.3388
  189POPC   H5R21768   2.838   2.186  10.392  0.9643  0.4227 -0.2915
  189POPC   H5S21769   2.886   2.352  10.341  0.6224  0.2045  0.8548
  189POPC   C2621770   2.763   2.239  10.208 -0.0840 -0.2592 -0.5700
  189POPC   H6R21771   2.675   2.172  10.207  1.5139 -2.5696  1.5490
  189POPC   H6S21772   2.852   2.187  10.168 -0.1842  0.3171 -1.5790
  189POPC   C2721773   2.746   2.355  10.106 -0.2978 -0.2099 -0.5150
  189POPC   H7R21774   2.689   2.433  10.162  0.1108 -0.8445  0.8383
  189POPC   H7S21775   2.688   2.313  10.021 -1.1067  1.5192 -0.8644
  189POPC   C2821776   2.878   2.404  10.059 -0.6210  0.0140 -1.1627
  189POPC   H8R21777   2.920   2.311  10.014 -1.2093 -0.3139 -1.0352
  189POPC   H8S21778   2.934   2.429  10.151 -0.6204 -1.8014 -0.6211
  189POPC   C2921779   2.854   2.518   9.968 -0.2494 -0.0602 -0.0853
  189POPC   H9121780   2.779   2.589  10.008 -0.2490  0.1628 -0.4759
  189POPC  C21021781   2.873   2.519   9.839  0.0445 -0.2515  0.9737
  189POPC  H10121782   2.861   2.614   9.786  0.0684 -0.1129  1.2162
  189POPC  C21121783   2.937   2.408   9.756 -0.2713 -0.0790  0.2217
  189POPC  H11R21784   3.010   2.351   9.818  0.8401  3.1261  2.0857
  189POPC  H11S21785   2.994   2.449   9.671 -1.4877 -0.9762 -1.0739
  189POPC  C21221786   2.838   2.306   9.697  0.0544 -0.1008 -0.0487
  189POPC  H12R21787   2.764   2.370   9.643 -0.5530 -1.8742 -1.3970
  189POPC  H12S21788   2.792   2.244   9.776  0.5400 -0.7973 -0.3102
  189POPC  C21321789   2.909   2.223   9.599  0.0837  1.2861 -0.0717
  189POPC  H13R21790   2.830   2.148   9.574  1.4099 -0.7765  1.5677
  189POPC  H13S21791   2.996   2.174   9.646 -1.3781 -3.2705 -1.5875
  189POPC  C21421792   2.954   2.282   9.463 -0.0003  0.5154 -0.0975
  189POPC  H14R21793   2.957   2.196   9.393 -2.7968 -0.4779  0.8582
  189POPC  H14S21794   3.057   2.323   9.466  0.4065 -0.4474  2.8933
  189POPC  C21521795   2.859   2.378   9.383  0.1192 -0.0905  0.2373
  189POPC  H15R21796   2.859   2.470   9.445  0.8373 -1.1017  1.8198
  189POPC  H15S21797   2.752   2.348   9.384  0.1884 -0.4122  2.7754
  189POPC  C21621798   2.896   2.418   9.241 -0.2292  0.2780  0.2521
  189POPC  H16R21799   3.001   2.455   9.239  0.8695 -2.5875  0.2062
  189POPC  H16S21800   2.820   2.493   9.212 -0.9334 -1.4225 -2.8545
  189POPC  C21721801   2.869   2.306   9.137 -0.4555  0.3804 -0.0306
  189POPC  H17R21802   2.771   2.258   9.157 -0.0526  0.5604  2.8001
  189POPC  H17S21803   2.928   2.217   9.167 -1.1864  0.3259  1.3673
  189POPC  C21821804   2.910   2.336   8.993  0.4948 -1.3299 -0.4787
  189POPC  H18R21805   2.898   2.442   8.963  1.3012 -0.9719  0.4413
  189POPC  H18S21806   2.866   2.269   8.915 -0.8130 -0.5621 -0.4236
  189POPC  H18T21807   3.019   2.316   8.985  0.3989 -1.9464 -0.2942
  189POPC   C3321808   2.287   2.297  10.288  0.6901  0.0939 -0.2752
  189POPC   H3X21809   2.384   2.308  10.341  2.0384  0.0602 -2.5992
  189POPC   H3Y21810   2.236   2.395  10.287 -1.4675 -0.8927 -3.4437
  189POPC   C3421811   2.310   2.262  10.140 -0.6809 -0.3070 -0.3636
  189POPC   H4X21812   2.209   2.240  10.100 -1.7882  0.9877  1.5746
  189POPC   H4Y21813   2.376   2.173  10.135  0.4901  0.5462 -0.3776
  189POPC   C3521814   2.366   2.373  10.061 -0.5326 -0.2428  0.4034
  189POPC   H5X21815   2.469   2.393  10.096 -0.0832 -1.8911  0.1054
  189POPC   H5Y21816   2.303   2.459  10.092  0.4739  1.1673 -1.2347
  189POPC   C3621817   2.378   2.346   9.904  0.0283 -0.3388 -0.0722
  189POPC   H6X21818   2.283   2.299   9.872 -0.7632 -0.5926  2.4499
  189POPC   H6Y21819   2.459   2.275   9.875  2.2424  2.0509 -0.1791
  189POPC   C3721820   2.406   2.480   9.832  0.0923 -0.0469 -0.3974
  189POPC   H7X21821   2.492   2.533   9.878 -0.1834  1.6518 -1.7116
  189POPC   H7Y21822   2.320   2.548   9.852  0.2341  0.1924 -0.5863
  189POPC   C3821823   2.458   2.476   9.681 -0.1625  0.0262  0.3145
  189POPC   H8X21824   2.564   2.446   9.674  0.0506  0.9345 -0.4626
  189POPC   H8Y21825   2.447   2.581   9.647  3.0176  0.1375 -0.6504
  189POPC   C3921826   2.367   2.381   9.599 -0.7122  0.1114  0.0017
  189POPC   H9X21827   2.262   2.412   9.620 -0.1448  1.7332  0.6872
  189POPC   H9Y21828   2.374   2.275   9.631 -2.5292 -0.2058 -0.5548
  189POPC  C31021829   2.399   2.415   9.444  0.0342  0.2123  0.0290
  189POPC  H10X21830   2.505   2.387   9.430  0.2649  0.2529  1.5235
  189POPC  H10Y21831   2.378   2.520   9.415 -0.5293  1.1127  3.2443
  189POPC  C31121832   2.313   2.320   9.345 -0.5949 -0.1201 -0.8228
  189POPC  H11X21833   2.205   2.337   9.360 -0.7766 -1.1231 -0.9494
  189POPC  H11Y21834   2.332   2.212   9.362  2.9927  0.6175  0.9275
  189POPC  C31221835   2.356   2.335   9.197 -0.0407  0.5561  0.7605
  189POPC  H12X21836   2.456   2.291   9.182 -0.5936 -0.3759 -0.3899
  189POPC  H12Y21837   2.360   2.443   9.169 -0.8102  0.1617 -1.0181
  189POPC  C31321838   2.260   2.253   9.108 -0.3784 -0.2365 -0.2523
  189POPC  H13X21839   2.160   2.300   9.117  0.2449  1.1138 -0.1279
  189POPC  H13Y21840   2.251   2.147   9.138  1.0696  0.0302  1.3688
  189POPC  C31421841   2.301   2.273   8.958 -0.1089  0.3531  0.4393
  189POPC  H14X21842   2.316   2.383   8.951  1.9207  0.2388  1.8961
  189POPC  H14Y21843   2.220   2.242   8.889  0.8978  0.0437 -0.6430
  189POPC  C31521844   2.429   2.192   8.904  0.5287  0.0513  0.2582
  189POPC  H15X21845   2.410   2.082   8.904 -1.4023  0.3523  0.1771
  189POPC  H15Y21846   2.520   2.220   8.960  0.4305  1.8120 -0.4206
  189POPC  C31621847   2.442   2.231   8.754 -1.0913  0.3627 -0.0171
  189POPC  H16X21848   2.530   2.180   8.710 -0.6496  1.2394 -0.1580
  189POPC  H16Y21849   2.466   2.339   8.751  0.3615  0.1472  2.0361
  189POPC  H16Z21850   2.344   2.214   8.703 -1.1220  1.6650 -0.4254
  190POPC     N21851   1.140   6.089  11.616  0.3584  0.3010  0.1099
  190POPC   C1221852   1.096   6.136  11.473  0.3537 -0.1415 -0.7766
  190POPC  H12A21853   1.103   6.243  11.464 -0.0224 -0.1905 -1.7247
  190POPC  H12B21854   0.997   6.107  11.441  0.1360  1.7869 -2.0345
  190POPC   C1321855   1.034   6.142  11.708  0.0439  0.3268 -0.0124
  190POPC  H13A21856   0.936   6.122  11.669  0.2602 -0.1637 -0.3124
  190POPC  H13B21857   1.052   6.086  11.799 -0.7048 -2.5134 -1.4796
  190POPC  H13C21858   1.046   6.245  11.735  0.5049  0.7075 -1.5797
  190POPC   C1421859   1.153   5.942  11.625  0.2219 -0.7609  0.2202
  190POPC  H14A21860   1.070   5.888  11.581  0.9203 -1.2178 -0.5734
  190POPC  H14B21861   1.243   5.912  11.572  1.3123  2.5597 -0.0524
  190POPC  H14C21862   1.172   5.903  11.724  0.2865  0.5030  0.7109
  190POPC   C1521863   1.269   6.156  11.645 -0.4254 -0.5516 -0.5649
  190POPC  H15A21864   1.309   6.123  11.740 -1.2957 -1.8798 -0.6301
  190POPC  H15B21865   1.270   6.264  11.649  0.0198 -0.5734  0.1197
  190POPC  H15C21866   1.340   6.130  11.569  0.2498  0.6129 -0.3639
  190POPC   C1121867   1.193   6.093  11.357 -0.9688 -0.0225 -0.4629
  190POPC  H11A21868   1.141   6.140  11.271 -0.0196  3.0882  0.5148
  190POPC  H11B21869   1.177   5.985  11.338 -0.6998  0.0614 -1.1881
  190POPC     P21870   1.372   6.282  11.320 -0.2660  0.2078  0.1283
  190POPC   O1321871   1.518   6.303  11.316  0.7525  0.0323  0.1644
  190POPC   O1421872   1.293   6.385  11.394  0.3735 -0.2866 -0.1565
  190POPC   O1221873   1.332   6.136  11.380 -0.4657 -0.3560 -0.1240
  190POPC   O1121874   1.323   6.275  11.161 -0.1981  0.1984 -0.2964
  190POPC    C121875   1.367   6.162  11.088  0.5544  0.0999  0.3949
  190POPC    HA21876   1.325   6.066  11.125  0.2147 -0.9569 -2.4261
  190POPC    HB21877   1.478   6.157  11.092  0.5760  1.2255  1.5420
  190POPC    C221878   1.332   6.167  10.931 -0.4005 -0.4994 -0.4320
  190POPC    HS21879   1.292   6.071  10.893 -1.6165 -0.1803  0.0068
  190POPC   O2121880   1.449   6.199  10.854  0.0339 -0.1424 -0.7875
  190POPC   C2121881   1.525   6.090  10.821  0.1346 -0.7317 -0.1345
  190POPC   O2221882   1.502   5.976  10.863  0.4218 -0.0710  0.1414
  190POPC   C2221883   1.658   6.139  10.758  0.2730 -0.0213 -0.2064
  190POPC   H2R21884   1.718   6.148  10.851  1.6478 -0.6427 -1.0043
  190POPC   H2S21885   1.628   6.238  10.718 -0.6005 -0.3732 -0.4534
  190POPC    C321886   1.215   6.271  10.901  0.2543  0.5098  0.6949
  190POPC    HX21887   1.250   6.370  10.938 -1.6223  0.2588  3.4631
  190POPC    HY21888   1.126   6.232  10.955  0.5610  2.2285  2.5515
  190POPC   O3121889   1.191   6.262  10.761 -0.1849  0.1583  0.0897
  190POPC   C3121890   1.193   6.376  10.694 -0.8522 -0.0181  0.2483
  190POPC   O3221891   1.222   6.483  10.737  0.7354 -0.2836  0.3296
  190POPC   C3221892   1.142   6.347  10.550  0.0289  0.6163  0.0465
  190POPC   H2X21893   1.060   6.273  10.557 -0.0392  0.3085 -2.7476
  190POPC   H2Y21894   1.213   6.287  10.489  0.0761  0.8831 -0.1614
  190POPC   C2321895   1.709   6.050  10.644  0.0155 -0.6457 -0.0903
  190POPC   H3R21896   1.727   5.944  10.673  2.6380 -0.0057  0.9273
  190POPC   H3S21897   1.812   6.084  10.619 -0.2271  2.3065  2.3369
  190POPC   C2421898   1.629   6.036  10.512 -0.4070 -0.0964  0.0874
  190POPC   H4R21899   1.540   5.971  10.527  0.2290 -0.5994  2.0535
  190POPC   H4S21900   1.686   5.970  10.444 -1.6862  1.2187 -2.3747
  190POPC   C2521901   1.583   6.162  10.442 -0.8094 -0.4199  0.4963
  190POPC   H5R21902   1.664   6.237  10.431  1.3973 -2.5492  1.3278
  190POPC   H5S21903   1.500   6.201  10.504 -0.1127  1.0022  0.5658
  190POPC   C2621904   1.533   6.129  10.298  0.0782  0.5014 -0.3323
  190POPC   H6R21905   1.464   6.046  10.323  0.9971 -0.4278 -0.8183
  190POPC   H6S21906   1.613   6.091  10.231 -1.2241 -3.2807  0.0009
  190POPC   C2721907   1.461   6.240  10.227  0.5410 -0.9199 -0.0840
  190POPC   H7R21908   1.380   6.293  10.281  0.1845 -0.3300 -1.1646
  190POPC   H7S21909   1.411   6.193  10.139 -2.6476 -0.1724  1.1727
  190POPC   C2821910   1.548   6.364  10.184  0.0641  0.0159  0.2402
  190POPC   H8R21911   1.588   6.413  10.275 -0.5224  1.7819 -0.4070
  190POPC   H8S21912   1.477   6.437  10.141 -0.3135 -0.8591 -0.6717
  190POPC   C2921913   1.668   6.332  10.102  0.2772  0.5691 -0.5843
  190POPC   H9121914   1.751   6.292  10.161 -2.2566 -2.1225  1.4522
  190POPC  C21021915   1.688   6.341   9.971 -0.1311  0.2618  1.5241
  190POPC  H10121916   1.782   6.303   9.928 -0.3879  0.8658  0.3750
  190POPC  C21121917   1.581   6.378   9.862  0.3311 -0.4269  0.2281
  190POPC  H11R21918   1.615   6.473   9.816 -1.3718  1.9064  3.3829
  190POPC  H11S21919   1.476   6.394   9.896  0.5623 -0.3573  0.9208
  190POPC  C21221920   1.545   6.276   9.755  0.1851 -0.2409 -0.1208
  190POPC  H12R21921   1.452   6.310   9.704 -0.2113 -1.8633 -0.5333
  190POPC  H12S21922   1.514   6.178   9.795 -0.8852 -0.0619 -0.4651
  190POPC  C21321923   1.647   6.255   9.638  0.0234  0.3329 -0.1014
  190POPC  H13R21924   1.743   6.217   9.679  0.6558 -1.4488 -2.9668
  190POPC  H13S21925   1.662   6.355   9.594 -2.8783  0.6398 -0.5968
  190POPC  C21421926   1.593   6.162   9.526  0.2887  0.9181  0.3358
  190POPC  H14R21927   1.538   6.086   9.586 -1.1041  1.9296  0.3956
  190POPC  H14S21928   1.683   6.128   9.471 -0.2589 -0.4760  0.2692
  190POPC  C21521929   1.508   6.239   9.421 -0.2272  0.7475 -0.1739
  190POPC  H15R21930   1.563   6.332   9.393 -0.5216  0.9335 -0.1340
  190POPC  H15S21931   1.413   6.264   9.472 -1.5257  0.9959 -2.5712
  190POPC  C21621932   1.477   6.157   9.299  0.2965  0.2997  0.2558
  190POPC  H16R21933   1.459   6.048   9.313 -1.7164  0.3262 -1.6712
  190POPC  H16S21934   1.565   6.160   9.232 -0.0641 -1.8333 -0.4094
  190POPC  C21721935   1.368   6.216   9.207  0.2324  0.1585  0.2643
  190POPC  H17R21936   1.404   6.319   9.184 -3.8429  2.1614  1.9303
  190POPC  H17S21937   1.273   6.236   9.260  0.7039 -1.4044  1.7981
  190POPC  C21821938   1.332   6.127   9.082 -0.6901 -0.7840  0.8085
  190POPC  H18R21939   1.281   6.033   9.112 -2.4785  0.5432  2.1909
  190POPC  H18S21940   1.423   6.111   9.020 -1.5488  1.5404 -1.2335
  190POPC  H18T21941   1.267   6.181   9.010 -0.5050 -0.5371  0.8201
  190POPC   C3321942   1.102   6.463  10.455 -0.3601 -0.3755  0.4544
  190POPC   H3X21943   1.196   6.521  10.444  0.2975 -1.3612  0.7766
  190POPC   H3Y21944   1.019   6.524  10.496  1.5935  2.1771  0.8597
  190POPC   C3421945   1.059   6.405  10.318 -0.0994  0.0378  0.0037
  190POPC   H4X21946   0.964   6.349  10.331  1.9693 -3.4285  1.8537
  190POPC   H4Y21947   1.138   6.328  10.301  0.7378  0.2893  2.2914
  190POPC   C3521948   1.037   6.511  10.207 -0.8670 -0.7493 -0.7132
  190POPC   H5X21949   1.133   6.560  10.183 -0.2600 -1.0844  0.9159
  190POPC   H5Y21950   0.970   6.593  10.240  1.0648  0.8234 -0.5097
  190POPC   C3621951   0.986   6.440  10.082 -0.2438 -0.2990 -0.7840
  190POPC   H6X21952   0.894   6.384  10.109 -1.3766  1.1318 -1.5231
  190POPC   H6Y21953   1.067   6.376  10.042  0.5029  1.1238 -1.6342
  190POPC   C3721954   0.955   6.544   9.979  0.3554 -0.0590 -0.1217
  190POPC   H7X21955   1.034   6.623   9.978 -1.1943  1.5792 -1.4130
  190POPC   H7Y21956   0.863   6.600  10.007 -0.4391 -1.4935  0.2046
  190POPC   C3821957   0.944   6.502   9.839 -0.3369  0.8234  0.4686
  190POPC   H8X21958   0.842   6.459   9.829  0.5081 -1.8208  2.0726
  190POPC   H8Y21959   1.018   6.419   9.826 -1.0476  0.2501 -0.0275
  190POPC   C3921960   0.984   6.606   9.734  0.3934  0.4970 -0.2852
  190POPC   H9X21961   1.082   6.646   9.768  0.3817  0.1241  0.2005
  190POPC   H9Y21962   0.904   6.683   9.727  2.1350  2.3826 -0.6328
  190POPC  C31021963   0.998   6.544   9.596 -0.3974  0.0779  0.2129
  190POPC  H10X21964   0.903   6.496   9.563  1.5586 -2.4648 -2.2089
  190POPC  H10Y21965   1.075   6.466   9.615 -1.1596 -0.1053  3.0882
  190POPC  C31121966   1.025   6.643   9.474  0.1161 -0.5560 -0.3159
  190POPC  H11X21967   1.110   6.706   9.510  0.6876 -1.2634 -0.4014
  190POPC  H11Y21968   0.929   6.698   9.466  0.0069 -0.9002 -1.5361
  190POPC  C31221969   1.065   6.583   9.345 -0.0992  0.1011  0.0810
  190POPC  H12X21970   1.004   6.494   9.322 -1.5296  0.9732  0.4182
  190POPC  H12Y21971   1.174   6.560   9.356 -0.1071 -0.5083 -0.9926
  190POPC  C31321972   1.048   6.682   9.223  0.3103  0.5242 -0.2283
  190POPC  H13X21973   1.078   6.782   9.259  1.0473  0.6631 -1.1808
  190POPC  H13Y21974   0.942   6.674   9.192 -0.5691  2.0772  2.1658
  190POPC  C31421975   1.138   6.641   9.105 -0.3006 -0.3178 -0.0555
  190POPC  H14X21976   1.241   6.666   9.140 -0.4750  1.0603 -0.4951
  190POPC  H14Y21977   1.114   6.705   9.018 -2.2704 -0.3508  0.4257
  190POPC  C31521978   1.127   6.497   9.059  0.0814  0.0220 -0.6110
  190POPC  H15X21979   1.022   6.465   9.070 -0.0255 -0.0554 -1.7082
  190POPC  H15Y21980   1.188   6.433   9.126 -1.8969  0.3394  1.5886
  190POPC  C31621981   1.171   6.467   8.917 -0.5596 -0.2345  0.0840
  190POPC  H16X21982   1.282   6.474   8.917 -0.3558 -2.5708  0.6826
  190POPC  H16Y21983   1.130   6.545   8.849  0.3527 -0.1155 -0.3535
  190POPC  H16Z21984   1.127   6.374   8.876 -1.4601  0.6235 -0.9618
  191POPC     N21985   0.655   0.496   6.336  0.2073 -1.4982 -0.2061
  191POPC   C1221986   0.499   0.469   6.358 -1.2246  0.2753 -0.4523
  191POPC  H12A21987   0.433   0.492   6.276 -0.3149  1.8354 -0.7928
  191POPC  H12B21988   0.456   0.537   6.431 -1.0345  0.9323 -0.9397
  191POPC   C1321989   0.727   0.522   6.464 -0.1341  0.4184 -0.0653
  191POPC  H13A21990   0.832   0.540   6.446  0.4212 -1.1110  1.4247
  191POPC  H13B21991   0.689   0.616   6.501 -1.9256 -0.3000  0.0229
  191POPC  H13C21992   0.704   0.441   6.531  0.4540  0.9753  0.8326
  191POPC   C1421993   0.715   0.390   6.249 -0.2934  0.9636 -0.2071
  191POPC  H14A21994   0.678   0.291   6.274  1.1166  0.3536 -0.4679
  191POPC  H14B21995   0.678   0.399   6.148 -1.2800  2.0043  0.2242
  191POPC  H14C21996   0.823   0.392   6.249 -0.2031 -0.1803  2.1822
  191POPC   C1521997   0.665   0.627   6.259  0.2823 -0.0085  0.2292
  191POPC  H15A21998   0.622   0.623   6.159  2.1256  0.2532 -0.6067
  191POPC  H15B21999   0.771   0.645   6.248  0.1903 -0.3576 -1.6434
  191POPC  H15C22000   0.626   0.709   6.318  2.1333  0.8111  0.3623
  191POPC   C1122001   0.462   0.323   6.414  0.0335  0.2765  0.4010
  191POPC  H11A22002   0.355   0.324   6.444 -0.5089 -0.2420 -1.4085
  191POPC  H11B22003   0.520   0.302   6.507  0.5477 -1.0795 -0.1935
  191POPC     P22004   0.502   0.071   6.362 -0.3643  0.1257  0.2448
  191POPC   O1322005   0.583  -0.007   6.261 -0.0882  0.0743 -0.1262
  191POPC   O1422006   0.367   0.020   6.382  0.3031 -0.0267  0.0974
  191POPC   O1222007   0.496   0.220   6.317  0.9370 -0.2383 -0.7202
  191POPC   O1122008   0.580   0.094   6.497 -0.2037 -0.1040 -0.4344
  191POPC    C122009   0.715   0.136   6.504  0.7389 -0.7461  0.0670
  191POPC    HA22010   0.720   0.232   6.560 -0.6782 -0.4243 -0.3312
  191POPC    HB22011   0.750   0.146   6.399 -2.5264 -2.7748 -1.3678
  191POPC    C222012   0.806   0.032   6.566  0.4523 -0.0286 -0.4485
  191POPC    HS22013   0.801  -0.053   6.495 -3.4191 -0.4798  0.1253
  191POPC   O2122014   0.746  -0.007   6.691 -0.7489  0.0792 -0.5722
  191POPC   C2122015   0.818  -0.068   6.785  0.0920 -0.6292 -0.2324
  191POPC   O2222016   0.933  -0.110   6.779 -0.1825  0.6438  0.2655
  191POPC   C2222017   0.739  -0.083   6.910  0.2070 -0.3208 -0.3464
  191POPC   H2R22018   0.737  -0.191   6.933 -0.1813 -0.5007 -1.1718
  191POPC   H2S22019   0.633  -0.048   6.901  0.6003  0.9518 -0.2555
  191POPC    C322020   0.950   0.087   6.569 -0.6480  0.1465  0.1497
  191POPC    HX22021   0.974   0.110   6.463  0.8277 -1.7317  0.0157
  191POPC    HY22022   1.023   0.009   6.602  0.5625  0.6745 -1.1356
  191POPC   O3122023   0.969   0.195   6.658  0.5390  0.3283 -0.1480
  191POPC   C3122024   0.996   0.316   6.615 -0.4877  0.3199 -0.2627
  191POPC   O3222025   0.999   0.352   6.501 -0.3235  0.3005 -0.0206
  191POPC   C3222026   1.011   0.413   6.738  0.2297 -0.1007 -0.0649
  191POPC   H2X22027   1.022   0.519   6.708 -0.9208 -0.0693 -0.4276
  191POPC   H2Y22028   1.100   0.374   6.792 -0.0010 -0.0318  0.3723
  191POPC   C2322029   0.797   0.002   7.030  0.3418 -0.1170  0.1238
  191POPC   H3R22030   0.715   0.037   7.097  0.2138  0.0599 -0.1241
  191POPC   H3S22031   0.831   0.099   6.989 -2.2396  0.8709  0.1096
  191POPC   C2422032   0.904  -0.071   7.109  0.0636 -0.2330 -0.9831
  191POPC   H4R22033   0.994  -0.092   7.048  1.5123 -0.9262  1.2485
  191POPC   H4S22034   0.876  -0.177   7.129  1.3355 -0.7645 -1.9324
  191POPC   C2522035   0.942  -0.011   7.247 -0.8790 -0.5997 -0.0789
  191POPC   H5R22036   0.999   0.084   7.238 -3.4562  1.0837  0.5399
  191POPC   H5S22037   0.992  -0.079   7.319 -1.9538 -0.3268  0.9455
  191POPC   C2622038   0.828   0.040   7.333 -0.1248  0.6247  0.0032
  191POPC   H6R22039   0.754  -0.038   7.363  0.2706  0.6010  0.9566
  191POPC   H6S22040   0.777   0.112   7.267  1.7440  1.7261 -0.3009
  191POPC   C2722041   0.879   0.112   7.457  0.1149 -0.6848  0.3334
  191POPC   H7R22042   0.788   0.157   7.501  0.3123 -1.0247  1.1103
  191POPC   H7S22043   0.950   0.189   7.418 -0.5043 -0.1851  0.1756
  191POPC   C2822044   0.947   0.023   7.565 -0.2833 -0.2490  0.0433
  191POPC   H8R22045   0.995   0.090   7.640 -1.2147  2.4162 -1.5665
  191POPC   H8S22046   1.021  -0.031   7.502  0.5936 -0.8110  1.5215
  191POPC   C2922047   0.852  -0.083   7.616 -0.6306  0.5736 -0.1278
  191POPC   H9122048   0.860  -0.173   7.553  0.9072  0.0826  0.7336
  191POPC  C21022049   0.786  -0.089   7.733 -0.0867 -0.0606 -0.0949
  191POPC  H10122050   0.739  -0.186   7.755 -1.6117  0.9027  1.1394
  191POPC  C21122051   0.777   0.012   7.849  0.2427  0.6763  0.6515
  191POPC  H11R22052   0.677   0.058   7.839  0.5417  0.8389 -3.2079
  191POPC  H11S22053   0.862   0.081   7.832 -0.7677  2.3403  2.0622
  191POPC  C21222054   0.808  -0.056   7.989  0.3171 -0.0038  0.4939
  191POPC  H12R22055   0.912  -0.091   7.972 -0.1122 -1.1239  0.0868
  191POPC  H12S22056   0.747  -0.145   8.011 -1.1557  1.0956  0.9728
  191POPC  C21322057   0.813   0.033   8.118 -0.2466  0.5992  0.1255
  191POPC  H13R22058   0.726   0.101   8.107 -2.7529 -2.6123 -1.8412
  191POPC  H13S22059   0.909   0.089   8.113 -0.8838  1.5597 -2.7638
  191POPC  C21422060   0.810  -0.040   8.254 -0.3478  0.0846  0.0284
  191POPC  H14R22061   0.788   0.037   8.331  1.7865  0.7468  0.0591
  191POPC  H14S22062   0.905  -0.093   8.278 -0.0948  0.6010  0.1954
  191POPC  C21522063   0.688  -0.130   8.277 -0.4010  0.3328 -0.7737
  191POPC  H15R22064   0.710  -0.230   8.234  1.0286  0.1002  0.4262
  191POPC  H15S22065   0.620  -0.072   8.211 -0.5061  0.8832 -0.1967
  191POPC  C21622066   0.644  -0.133   8.423 -0.4831  0.8507  0.7160
  191POPC  H16R22067   0.544  -0.181   8.434  0.1769 -0.8399 -0.2695
  191POPC  H16S22068   0.638  -0.027   8.455  3.5561  2.2714 -2.3184
  191POPC  C21722069   0.737  -0.224   8.510  0.0902  0.2038 -0.1371
  191POPC  H17R22070   0.703  -0.223   8.616  4.6373 -1.7082  1.5858
  191POPC  H17S22071   0.841  -0.188   8.505  0.5866 -1.2321 -4.9166
  191POPC  C21822072   0.745  -0.371   8.470 -0.2925 -0.3538  0.6892
  191POPC  H18R22073   0.744  -0.388   8.360 -0.4803 -2.0799  0.9251
  191POPC  H18S22074   0.658  -0.421   8.519  1.8039 -2.6238  2.3305
  191POPC  H18T22075   0.843  -0.401   8.513  2.6505  3.3694 -2.5844
  191POPC   C3322076   0.883   0.404   6.833 -0.4189 -0.2688  0.3226
  191POPC   H3X22077   0.856   0.303   6.870 -0.3689 -0.5902 -0.5089
  191POPC   H3Y22078   0.800   0.448   6.774 -0.2259 -1.3310 -0.7881
  191POPC   C3422079   0.893   0.493   6.964  0.8512  0.3307 -0.7619
  191POPC   H4X22080   0.912   0.599   6.934  0.4330 -0.0627 -2.5493
  191POPC   H4Y22081   0.975   0.457   7.030 -3.4028 -1.3478  4.3062
  191POPC   C3522082   0.768   0.469   7.055  0.2242 -0.3610 -0.5687
  191POPC   H5X22083   0.758   0.359   7.048  0.4056 -0.4137  0.0303
  191POPC   H5Y22084   0.683   0.529   7.015  1.3832  0.5152 -1.8137
  191POPC   C3622085   0.786   0.509   7.197  0.2285  0.3551 -0.9477
  191POPC   H6X22086   0.794   0.619   7.209  1.8035  0.0059  2.4398
  191POPC   H6Y22087   0.883   0.462   7.225 -0.5257 -1.5536 -1.3893
  191POPC   C3722088   0.683   0.455   7.303 -0.0737 -0.8694 -0.3934
  191POPC   H7X22089   0.658   0.348   7.287 -2.4596 -0.1654 -1.9567
  191POPC   H7Y22090   0.590   0.510   7.278  0.8554  0.0525 -2.0054
  191POPC   C3822091   0.724   0.482   7.449 -0.1601 -0.2564  0.7948
  191POPC   H8X22092   0.738   0.589   7.475 -0.7753  0.1990 -0.6753
  191POPC   H8Y22093   0.823   0.438   7.472  0.2874  0.4967  0.3482
  191POPC   C3922094   0.617   0.427   7.545  0.0696 -0.6214 -0.5446
  191POPC   H9X22095   0.640   0.321   7.572  2.5964 -0.0789 -0.3374
  191POPC   H9Y22096   0.517   0.430   7.498  0.2400 -0.4260 -0.8970
  191POPC  C31022097   0.627   0.490   7.687  0.0475 -0.3163 -0.1240
  191POPC  H10X22098   0.558   0.440   7.758 -0.7680 -1.5794 -1.7337
  191POPC  H10Y22099   0.607   0.599   7.686 -1.3474 -0.5458 -1.3638
  191POPC  C31122100   0.771   0.460   7.740 -0.1224 -0.1386 -0.5277
  191POPC  H11X22101   0.842   0.528   7.688 -1.8343  1.9248 -0.3027
  191POPC  H11Y22102   0.784   0.354   7.708  0.3916 -0.7567  1.5955
  191POPC  C31222103   0.810   0.486   7.890 -0.4762  0.1478 -0.7786
  191POPC  H12X22104   0.816   0.596   7.910  0.5427 -0.1962  0.9683
  191POPC  H12Y22105   0.918   0.461   7.890 -0.1093  1.5897 -1.3110
  191POPC  C31322106   0.733   0.409   8.000  0.5372 -0.7142  0.8526
  191POPC  H13X22107   0.749   0.301   7.980 -2.0991 -1.2410  1.1329
  191POPC  H13Y22108   0.627   0.431   7.976  0.6231  0.4523  1.5043
  191POPC  C31422109   0.757   0.452   8.146  0.0364 -0.7524 -0.1143
  191POPC  H14X22110   0.690   0.389   8.208 -0.4722  0.2015  0.3388
  191POPC  H14Y22111   0.711   0.552   8.161 -1.1251 -1.1501 -0.8839
  191POPC  C31522112   0.896   0.428   8.199 -0.5185  0.1040 -0.2094
  191POPC  H15X22113   0.969   0.497   8.152 -1.0768 -0.6946 -2.3440
  191POPC  H15Y22114   0.935   0.341   8.142  0.8798  1.2336 -1.0207
  191POPC  C31622115   0.904   0.400   8.350 -0.4403 -0.2139 -0.0360
  191POPC  H16X22116   0.969   0.319   8.387 -0.3185  0.4448  1.2355
  191POPC  H16Y22117   0.803   0.383   8.392 -1.4571  2.7248 -1.0019
  191POPC  H16Z22118   0.928   0.493   8.406 -1.7780  1.2030 -1.6940
  192POPC     N22119   5.328   3.087   6.227  0.2798 -0.4065  0.1287
  192POPC   C1222120   5.378   2.979   6.326  0.2086 -0.5871  0.6485
  192POPC  H12A22121   5.442   2.911   6.271 -0.9779 -1.1287 -0.1073
  192POPC  H12B22122   5.288   2.929   6.361 -0.1946 -0.0682  0.3667
  192POPC   C1322123   5.252   3.193   6.309 -0.1089  0.4188 -0.1009
  192POPC  H13A22124   5.234   3.281   6.249  0.4926  1.1212  0.7303
  192POPC  H13B22125   5.164   3.150   6.356 -1.1690  1.0062 -1.4635
  192POPC  H13C22126   5.314   3.232   6.388  0.0673  2.0452 -0.9834
  192POPC   C1422127   5.442   3.172   6.180  0.3925  0.2763 -0.2862
  192POPC  H14A22128   5.480   3.233   6.260  0.9119 -1.5400  0.9200
  192POPC  H14B22129   5.529   3.115   6.150  0.2913  0.5118 -1.0503
  192POPC  H14C22130   5.411   3.240   6.102 -1.2120 -1.3892 -1.1887
  192POPC   C1522131   5.248   3.027   6.119  0.1530 -0.4856 -0.5297
  192POPC  H15A22132   5.172   2.968   6.168 -1.0621  0.9750 -0.5767
  192POPC  H15B22133   5.312   2.962   6.060  0.7250  0.0120 -0.4687
  192POPC  H15C22134   5.197   3.101   6.060 -1.8513  0.4724  2.2076
  192POPC   C1122135   5.465   3.012   6.449 -0.0140 -0.1835  0.3778
  192POPC  H11A22136   5.467   2.933   6.526  0.7606 -1.4816 -0.9250
  192POPC  H11B22137   5.423   3.103   6.497 -0.0242  0.1617 -0.2738
  192POPC     P22138   5.698   2.949   6.348 -0.0644 -0.1179  0.1923
  192POPC   O1322139   5.831   3.019   6.354  0.0235 -0.0406 -0.2636
  192POPC   O1422140   5.649   2.910   6.216 -0.2888 -0.4664 -0.2317
  192POPC   O1222141   5.594   3.055   6.409 -0.5474 -0.0161 -0.5469
  192POPC   O1122142   5.701   2.827   6.453  0.4627 -0.3047  0.0173
  192POPC    C122143   5.822   2.766   6.511  0.7659 -0.6608  0.8867
  192POPC    HA22144   5.908   2.784   6.443 -0.4522  2.9635  0.0890
  192POPC    HB22145   5.815   2.656   6.496  0.9672 -0.6434  0.6537
  192POPC    C222146   5.840   2.795   6.664  0.1244 -0.7367  0.2041
  192POPC    HS22147   5.795   2.708   6.717 -2.0567 -0.3313 -0.9015
  192POPC   O2122148   5.777   2.919   6.708  0.4191  0.7201 -0.1556
  192POPC   C2122149   5.655   2.903   6.745  0.5756  0.6043 -0.0420
  192POPC   O2222150   5.594   2.798   6.756 -0.1346  0.4923 -0.0436
  192POPC   C2222151   5.601   3.039   6.805 -0.0196  0.0826  0.6085
  192POPC   H2R22152   5.491   3.026   6.819 -0.3320  2.3639  0.6448
  192POPC   H2S22153   5.623   3.111   6.724  2.4786 -2.6369 -1.3335
  192POPC    C322154   5.993   2.809   6.693 -0.0751  0.0777 -0.9462
  192POPC    HX22155   6.040   2.888   6.632 -1.1039  0.3453 -1.3964
  192POPC    HY22156   6.029   2.709   6.660  1.6767  0.9541 -1.8170
  192POPC   O3122157   6.023   2.816   6.834  0.1258 -0.7019 -0.0013
  192POPC   C3122158   6.053   2.942   6.875 -0.9495 -0.3338 -0.6082
  192POPC   O3222159   6.067   3.041   6.805  0.2523  0.5231  0.0554
  192POPC   C3222160   6.049   2.946   7.024 -0.5417 -0.3403  0.0621
  192POPC   H2X22161   5.974   3.025   7.047 -1.6647 -0.6910 -2.0601
  192POPC   H2Y22162   6.150   2.974   7.060  0.0969 -0.6941 -1.3592
  192POPC   C2322163   5.675   3.072   6.928  0.0482  0.1177  0.1371
  192POPC   H3R22164   5.778   3.100   6.898 -0.2290 -0.6680 -1.6424
  192POPC   H3S22165   5.686   2.976   6.984 -1.2250 -0.5905 -0.7779
  192POPC   C2422166   5.623   3.176   7.024 -0.3826  1.0065  0.3514
  192POPC   H4R22167   5.595   3.262   6.959 -1.8848 -0.4273 -1.0079
  192POPC   H4S22168   5.704   3.209   7.092 -0.0018  0.5902  0.1046
  192POPC   C2522169   5.513   3.141   7.115  0.0045  0.3398  0.3761
  192POPC   H5R22170   5.459   3.051   7.080 -2.4060  2.4470 -1.6854
  192POPC   H5S22171   5.442   3.226   7.126  0.8827  1.0053  1.1141
  192POPC   C2622172   5.577   3.085   7.252  0.0578  0.1485 -0.0979
  192POPC   H6R22173   5.639   3.000   7.216  1.4324  0.7979  0.6595
  192POPC   H6S22174   5.497   3.034   7.311 -2.0281  1.5193 -1.6043
  192POPC   C2722175   5.654   3.181   7.342 -0.5378 -1.1591  0.1322
  192POPC   H7R22176   5.728   3.240   7.283  0.6433 -1.8132  0.9175
  192POPC   H7S22177   5.714   3.120   7.412  1.1732  2.0537  1.7188
  192POPC   C2822178   5.560   3.274   7.426  0.4740 -0.2331  0.0102
  192POPC   H8R22179   5.495   3.206   7.484  1.7437 -1.8185 -0.3636
  192POPC   H8S22180   5.495   3.324   7.350 -0.3382 -2.1244 -0.5910
  192POPC   C2922181   5.627   3.390   7.498 -1.0105  0.2726 -0.2710
  192POPC   H9122182   5.668   3.461   7.425  0.4739 -2.6235 -2.4852
  192POPC  C21022183   5.643   3.415   7.629 -0.6123 -0.5459 -0.6000
  192POPC  H10122184   5.693   3.507   7.661 -1.0726 -0.3391 -0.4603
  192POPC  C21122185   5.570   3.339   7.739  0.8760  0.2985  0.5353
  192POPC  H11R22186   5.611   3.236   7.746  1.2831  0.3696 -0.6467
  192POPC  H11S22187   5.459   3.334   7.726  0.9065 -1.1978  0.6348
  192POPC  C21222188   5.597   3.401   7.875  0.1879  0.3516 -0.0110
  192POPC  H12R22189   5.536   3.494   7.881 -0.5540 -0.2061  2.9329
  192POPC  H12S22190   5.704   3.419   7.897  0.4692 -3.1822  2.5183
  192POPC  C21322191   5.558   3.311   7.993  0.3382 -0.3599  0.0884
  192POPC  H13R22192   5.563   3.202   7.967  1.8290 -0.1957 -0.3878
  192POPC  H13S22193   5.450   3.321   8.017  0.2552 -0.6523 -0.1550
  192POPC  C21422194   5.640   3.319   8.119 -0.3121  0.0008  0.3686
  192POPC  H14R22195   5.657   3.423   8.154  2.2305 -0.0143 -0.6042
  192POPC  H14S22196   5.739   3.273   8.096  0.1036  1.6999 -1.5296
  192POPC  C21522197   5.595   3.246   8.248 -0.3013 -0.0294 -0.1708
  192POPC  H15R22198   5.594   3.136   8.229  0.8418  0.0017 -0.4931
  192POPC  H15S22199   5.491   3.275   8.274 -0.1152  1.4593 -1.0184
  192POPC  C21622200   5.703   3.245   8.364  1.1756 -0.1433  0.8500
  192POPC  H16R22201   5.739   3.349   8.380 -0.2371  1.5022 -4.6468
  192POPC  H16S22202   5.788   3.196   8.313 -0.1422 -0.5179 -1.0839
  192POPC  C21722203   5.663   3.169   8.495 -0.6211  0.0559  0.7037
  192POPC  H17R22204   5.748   3.159   8.567  0.0372 -2.0405 -0.2743
  192POPC  H17S22205   5.625   3.069   8.464  1.0238 -0.3316 -0.1742
  192POPC  C21822206   5.551   3.250   8.560 -0.0619 -0.3625  0.1588
  192POPC  H18R22207   5.577   3.358   8.572 -2.9719  0.2800  1.9714
  192POPC  H18S22208   5.514   3.206   8.655  0.8761 -0.0391  0.6908
  192POPC  H18T22209   5.463   3.241   8.493  0.1635 -2.8511  0.1340
  192POPC   C3322210   6.000   2.809   7.093 -0.1837 -0.2984 -0.0356
  192POPC   H3X22211   6.068   2.724   7.070  0.6281  0.3244  0.0345
  192POPC   H3Y22212   5.901   2.782   7.050  0.5034 -1.6088 -0.8564
  192POPC   C3422213   5.981   2.821   7.245 -0.1536  0.6139 -0.0448
  192POPC   H4X22214   5.904   2.900   7.256 -0.0031  0.9177 -1.1145
  192POPC   H4Y22215   6.079   2.851   7.289  0.5660 -2.0745  0.4006
  192POPC   C3522216   5.938   2.686   7.304 -0.8662 -0.5977 -0.4776
  192POPC   H5X22217   6.026   2.619   7.313 -0.1906  0.3423  0.1874
  192POPC   H5Y22218   5.868   2.634   7.235  0.6337 -2.2209 -0.8484
  192POPC   C3622219   5.878   2.707   7.444  0.6367  0.4629 -0.8508
  192POPC   H6X22220   5.787   2.771   7.437 -0.6449 -1.1541  0.1545
  192POPC   H6Y22221   5.961   2.760   7.495  1.2070 -0.5343 -0.7236
  192POPC   C3722222   5.856   2.573   7.522  0.2922 -0.9282  0.0510
  192POPC   H7X22223   5.800   2.503   7.455 -0.9176  0.0916 -0.0351
  192POPC   H7Y22224   5.801   2.590   7.617  3.6046  1.1603  1.7742
  192POPC   C3822225   5.980   2.496   7.560  0.0209 -0.2677  0.1148
  192POPC   H8X22226   6.071   2.556   7.583  0.5671 -1.2114  0.4876
  192POPC   H8Y22227   6.013   2.443   7.467  0.8747  1.3770 -0.5604
  192POPC   C3922228   5.955   2.378   7.665 -0.8039 -0.4382 -0.1224
  192POPC   H9X22229   6.057   2.334   7.675 -0.0863 -0.5750 -5.4878
  192POPC   H9Y22230   5.882   2.304   7.625 -0.4909 -1.2327  0.7122
  192POPC  C31022231   5.906   2.431   7.802  0.5705 -0.4848 -0.4139
  192POPC  H10X22232   5.804   2.472   7.791  0.3782 -0.9859 -0.5578
  192POPC  H10Y22233   5.967   2.519   7.829 -1.3929 -0.2301  4.1370
  192POPC  C31122234   5.932   2.340   7.924  0.1910  0.0553 -0.5975
  192POPC  H11X22235   6.042   2.325   7.935  0.4032  1.8384  0.0629
  192POPC  H11Y22236   5.888   2.240   7.908 -3.7985  1.6912 -1.0565
  192POPC  C31222237   5.867   2.382   8.057  0.3537 -0.6512 -0.2168
  192POPC  H12X22238   5.761   2.358   8.038 -0.0723  0.8036  0.1848
  192POPC  H12Y22239   5.894   2.489   8.069  6.1033 -1.5556 -2.1634
  192POPC  C31322240   5.939   2.303   8.168 -0.3834 -0.3183  0.3421
  192POPC  H13X22241   6.043   2.340   8.172 -0.2846 -0.5585  0.0366
  192POPC  H13Y22242   5.930   2.196   8.139  0.0704 -0.0629 -0.8111
  192POPC  C31422243   5.882   2.333   8.306  0.2903  0.1090  0.5227
  192POPC  H14X22244   5.788   2.275   8.316  1.3656 -1.3341  2.9751
  192POPC  H14Y22245   5.857   2.442   8.311  1.2401  0.3530  0.0977
  192POPC  C31522246   5.971   2.297   8.423  0.5657 -0.0779  0.9282
  192POPC  H15X22247   6.062   2.360   8.434  0.4148  0.7700 -1.9599
  192POPC  H15Y22248   6.011   2.194   8.412  1.1175  0.3188 -1.1272
  192POPC  C31622249   5.889   2.289   8.551  0.5129 -0.1825  0.3163
  192POPC  H16X22250   5.789   2.244   8.529  0.7900 -1.3054  1.2569
  192POPC  H16Y22251   5.858   2.394   8.570 -3.1876 -0.9832 -0.3581
  192POPC  H16Z22252   5.943   2.238   8.633 -0.2018  1.4222  1.8322
  193SOD    SOD22253   3.296   5.336   5.093 -0.0965  0.1077  0.5309
  194SOD    SOD22254   5.980   2.879  11.106  0.6367 -0.2593 -0.1121
  195SOD    SOD22255   5.524   6.725   5.434  0.0867 -0.0275  0.1498
  196SOD    SOD22256   0.394   1.188  14.590  0.5605  0.1085  0.2544
  197SOD    SOD22257   3.801   6.484   0.677  0.4020 -0.0093 -0.4207
  198SOD    SOD22258   3.836   2.276   3.524  0.1076  0.6963 -0.0645
  199SOD    SOD22259   1.201   4.754   5.924 -0.2745 -0.3966  0.3410
  200SOD    SOD22260   0.692   3.351  14.417 -0.0123 -0.8500 -0.3217
  201SOD    SOD22261   3.330   3.951  11.973 -0.2548  0.8001 -0.0434
  202SOD    SOD22262   2.791   3.038   4.729 -0.2161 -0.1565  0.2347
  203SOD    SOD22263   6.491   3.380  17.312  0.1452  0.4355 -0.6226
  204SOD    SOD22264   3.524   2.694  10.492  0.0353 -0.7512  0.0624
  205SOD    SOD22265   3.433   1.953  12.200 -0.4996  0.2066  0.1181
  206SOD    SOD22266   3.592   1.984  11.080  0.2371 -0.4304 -0.2650
  207SOD    SOD22267   2.435   2.990  12.010  0.3904 -0.1465 -0.1972
  208SOD    SOD22268   4.483   5.947   3.917  0.1066 -0.1085 -0.1684
  209SOD    SOD22269   0.937   5.820   3.448 -0.1218 -0.0534  0.3297
  210SOD    SOD22270   4.699   4.234   4.319  0.2863 -0.0366 -0.2699
  211SOD    SOD22271   5.527   1.710   2.067  0.1561 -0.0612 -0.0539
  212SOD    SOD22272   5.379   6.153   6.755 -0.3063 -0.4891  0.8504
  213SOD    SOD22273   5.703   3.033  16.285  0.1896 -0.1501 -0.1677
  214SOD    SOD22274   4.146   1.159  11.494  0.0867 -0.4488  0.2430
  215SOD    SOD22275   4.529   5.699   1.641 -0.0888  0.3551  0.1308
  216SOD    SOD22276   0.866   2.240   4.550  0.2879  0.2048 -0.3873
  217SOD    SOD22277   4.214   4.637   2.600  0.0650 -0.6077  0.2166
  218SOD    SOD22278   6.594   5.224  10.783 -0.3732 -0.6006  0.3183
  219SOD    SOD22279   1.531   0.616   3.544  0.2130  0.3887 -0.4401
  220SOD    SOD22280   0.504   3.059   1.726  0.3679 -0.4251  0.2535
  221SOD    SOD22281   1.428   6.417  16.201 -0.6770 -0.3682  0.1376
  222SOD    SOD22282   1.307   5.119  10.952 -0.4685 -0.0158 -0.4378
  223SOD    SOD22283   0.822   0.828  11.348  0.0147 -0.5399 -0.0977
  224SOD    SOD22284   6.622   1.388  15.231 -0.1732 -0.0951  0.0959
  225SOD    SOD22285   3.728   0.614   5.496  0.4847  0.1788  0.6899
  226SOD    SOD22286   1.321   2.497  11.345  0.2361  0.2319 -0.0650
  227SOD    SOD22287   2.887   3.259  13.120  0.4831 -0.0422  0.3718
  228SOD    SOD22288   3.796   3.252   2.691  0.1945  0.1293 -0.2085
  229SOD    SOD22289   4.446   1.808  15.149 -0.3668  0.0615 -0.2444
  230SOD    SOD22290   4.444   5.194  12.097 -0.0892  0.7095 -0.6165
  231SOD    SOD22291   0.467   4.412  13.310 -0.0524 -0.6229 -0.3001
  232SOD    SOD22292   1.741   2.097  13.142  0.5181  0.5859  0.3800
  233SOD    SOD22293   2.307   1.000  17.202  0.4779  0.4917  0.1272
  234SOD    SOD22294   4.130   4.305  11.903 -0.9560 -0.2002  0.1336
  235SOD    SOD22295   4.633   4.546   1.519 -0.4140 -0.2117  0.0200
  236SOD    SOD22296   5.529   1.073  15.699  0.2611 -0.0158 -0.1116
  237SOD    SOD22297   2.354   4.505   2.385 -0.0563 -0.6579 -0.5368
  238SOD    SOD22298   1.638   5.420  16.483 -0.1274 -0.0647 -0.4239
  239SOD    SOD22299   5.141   2.744  11.851 -0.4033 -0.3769  0.0626
  240SOD    SOD22300   5.672   2.142   4.650 -0.2500 -0.1459  0.5912
  241SOD    SOD22301   1.568   1.170   1.014  0.0399 -1.2684 -0.0189
  242SOD    SOD22302   4.295   1.659   3.078  0.7681  0.2832 -0.3368
  243SOD    SOD22303   3.401   0.802  13.902 -0.2357 -0.0815 -0.5896
  244SOD    SOD22304   0.776   1.384   3.015  0.1232 -0.0066  0.4239
  245SOD    SOD22305   3.891   4.781   4.944  0.0989 -0.2714 -0.2376
  246SOD    SOD22306   1.760   5.628   1.602 -0.1370 -0.2833  0.1285
  247SOD    SOD22307   5.140   2.398   5.736 -0.3260 -0.1205  0.5739
  248SOD    SOD22308   2.940   5.303   2.577 -0.0013  0.0788  0.1504
  249SOD    SOD22309   3.933   1.031   2.138  0.7836  0.2211 -0.5751
  250SOD    SOD22310   0.778   6.080   2.151  0.2403  0.4982  0.3550
  251SOD    SOD22311   4.777   5.534  11.752 -0.2302 -0.5060 -0.2429
  252SOD    SOD22312   5.473   5.940   2.224  0.0877  0.5389 -0.3848
  253SOD    SOD22313   2.674   4.882   0.778  0.2696 -0.3660  0.3502
  254SOD    SOD22314   0.965   3.262   3.048  0.1177  0.3782  0.2059
  255SOD    SOD22315   1.317   3.808   0.446  0.7288 -0.1707 -0.5060
  256SOD    SOD22316   5.335   3.804   4.076  0.2795  0.2362  0.4305
  257SOD    SOD22317   5.156   3.704   0.155  0.0296  0.1572 -0.1489
  258SOD    SOD22318   1.103   5.783   6.431 -0.2660  0.0954 -0.0705
  259SOD    SOD22319   3.766   2.332  17.170 -0.3521 -0.2811 -0.3286
  260SOD    SOD22320   0.133   1.949  13.061  0.0397  0.3984  0.4842
  261SOD    SOD22321   4.103   4.047  15.018 -0.2873 -0.1605 -0.0562
  262SOD    SOD22322   5.003   0.198   6.597  0.4081  0.0547  0.8293
  263SOD    SOD22323   1.590   4.370   5.690 -0.6735 -0.2599 -0.2242
  264SOD    SOD22324   0.037   4.532  12.900 -0.2672  0.5250  0.2733
  265SOD    SOD22325   6.093   6.588   6.330  0.2010 -0.1254 -0.0267
  266SOD    SOD22326   2.804   6.324  11.546  0.0684  0.2152 -0.4939
  267SOD    SOD22327   0.223   1.892   0.761 -0.2311  0.2284 -0.1006
  268SOD    SOD22328   1.060   0.777   6.322 -0.2967 -0.0907  0.0382
  269SOD    SOD22329   6.037   1.488   3.740  0.4403  0.0651  0.0019
  270CLA    CLA22330   6.073   1.380   1.538 -0.2557  0.1617 -0.0334
  271CLA    CLA22331   1.189   2.788   0.216  0.4096 -0.5005  0.1349
  272CLA    CLA22332   1.115   4.110  13.516 -0.2373 -0.0786  0.3536
  273CLA    CLA22333   1.507   0.815  13.473 -0.5044 -0.1202 -0.0285
  274CLA    CLA22334   4.979   6.315  12.760  0.3190 -0.0975 -0.0242
  275CLA    CLA22335   0.943   0.576  17.420  0.0169  0.0864  0.0138
  276CLA    CLA22336   0.921   5.023   2.048 -0.0781 -0.7124 -0.1907
  277CLA    CLA22337   2.508   4.877   0.339 -0.0749  0.2251  0.0396
  278CLA    CLA22338   4.894   4.311  16.159  0.1463  0.2138 -0.0865
  279CLA    CLA22339   0.616   2.605   2.905  0.1778 -0.2669 -0.4536
  280CLA    CLA22340   5.700   3.423  15.547  0.0361  0.4456  0.1061
  281CLA    CLA22341   3.508   0.645   5.352  0.1532 -0.0289  0.1206
  282CLA    CLA22342   1.779   3.013  14.914  0.1196  0.0575 -0.2537
  283CLA    CLA22343   4.984   1.485   2.641 -0.2667 -0.2425 -0.0638
  284CLA    CLA22344   5.167   5.153   0.470  0.0674  0.1094 -0.2282
  285CLA    CLA22345   2.181   6.681   1.411  0.1099  0.2942 -0.1984
  286CLA    CLA22346   3.612   6.025   2.864 -0.8263 -0.3401  0.3151
  287CLA    CLA22347   0.654   1.957   0.918 -0.2481 -0.1109  0.1613
  288CLA    CLA22348   3.009   4.292   0.117 -0.2057 -0.2225 -0.5890
  289CLA    CLA22349   2.158   2.939  12.367 -0.1273  0.0561 -0.0348
  290CLA    CLA22350   3.807   0.375  12.244  0.1399 -0.0981 -0.1131
  291CLA    CLA22351   4.349   0.152   1.941  0.4271 -0.0294  0.1044
  292CLA    CLA22352   2.514   0.127   3.975 -0.1905 -0.2712  0.0925
  293CLA    CLA22353   0.655   5.117  14.652 -0.0012 -0.3691  0.5651
  294CLA    CLA22354   4.320   1.565  15.599  0.1903 -0.1652 -0.1352
  295CLA    CLA22355   6.188   4.829   2.089 -0.0329  0.4979  0.2807
  296CLA    CLA22356   3.434   1.388   4.287 -0.3781 -0.6647 -0.0407
  297CLA    CLA22357   1.957   4.027   1.892 -0.1945 -0.3898 -0.5550
  298CLA    CLA22358   1.993   4.215  15.294  0.2171  0.1046  0.0737
  299CLA    CLA22359   2.446   2.634  16.008 -0.0221 -0.0075 -0.3019
  300CLA    CLA22360   1.349   4.692   2.798  0.5261  0.1788  0.2229
  301CLA    CLA22361   1.164   1.527  16.512 -0.3348  0.2999  0.1221
  302CLA    CLA22362   5.092   2.893  12.885 -0.2290  0.2184 -0.1097
  303CLA    CLA22363   2.631   5.621   3.414  0.0866 -0.2595 -0.2282
  304CLA    CLA22364   1.288   1.921   5.184  0.5463 -0.1225 -0.0172
  305CLA    CLA22365   2.385   4.231   5.327  0.2408  0.0138 -0.1211
  306CLA    CLA22366   5.187   4.017   4.530 -0.0352 -0.2554  0.6272
  307CLA    CLA22367   4.666   2.948   2.831 -0.2152  0.1164  0.1188
  308CLA    CLA22368   5.914   0.157  12.118  0.0791  0.3876 -0.1648
  309CLA    CLA22369   2.490   3.809  12.454 -0.0914  0.2386 -0.3240
  310CLA    CLA22370   1.396   0.139   3.295 -0.6414 -0.1858  0.4907
  311CLA    CLA22371   3.102   1.360  14.032  0.0315 -0.2527  0.0845
  312CLA    CLA22372   5.550   1.905  11.694  0.0028 -0.6707 -0.1583
  313CLA    CLA22373   0.032   0.568   2.545  0.1585 -0.4482 -0.1372
  314CLA    CLA22374   2.203   4.134   3.859 -0.0920 -0.1213  0.3544
  315CLA    CLA22375   6.084   3.490   4.480  0.0098  0.2841 -0.0764
  316CLA    CLA22376   4.906   0.058  15.754  0.2516  0.2826 -0.3645
  317CLA    CLA22377   2.550   1.212  14.923 -0.0296 -0.1557  0.0438
  318CLA    CLA22378   5.561   0.601   2.654  0.5731  0.2299  0.0445
  319CLA    CLA22379   5.093   5.580   2.372  0.1746 -0.2362  0.0898
  320CLA    CLA22380   3.401   2.948   3.084  0.0048 -0.3115  0.3179
  321CLA    CLA22381   0.490   0.616  14.267 -0.0877 -0.1082 -0.1828
  322CLA    CLA22382   1.783   4.963  13.416  0.0180 -0.2578  0.4300
  323TIP3   OH222383   5.553   1.042  10.843  0.2525  0.3311  0.0087
  323TIP3    H122384   5.516   1.124  10.810  1.6791  0.9250 -0.1978
  323TIP3    H222385   5.621   1.019  10.779 -0.8026 -1.5880 -0.5102
  324TIP3   OH222386   0.992   2.902  15.567 -0.7650 -0.6633 -0.2434
  324TIP3    H122387   1.024   2.838  15.503 -0.6719  0.0622 -0.9311
  324TIP3    H222388   1.003   2.986  15.524  0.1969 -0.0684  1.1077
  325TIP3   OH222389   3.298   3.770   4.649 -0.0715 -0.1466 -0.1617
  325TIP3    H122390   3.308   3.676   4.663 -0.7448 -0.2402 -0.2783
  325TIP3    H222391   3.290   3.780   4.554  2.1588  0.2560 -0.3466
  326TIP3   OH222392   1.873   0.173  15.323  0.1306  0.1860  0.5780
  326TIP3    H122393   1.860   0.194  15.416 -0.3057  0.5225  0.4436
  326TIP3    H222394   1.785   0.173  15.286  0.2266 -0.7459  0.3263
  327TIP3   OH222395   6.653   5.914  17.287  0.0136  0.5519 -0.4969
  327TIP3    H122396   6.649   5.926  17.192  0.1317 -0.3676 -0.6323
  327TIP3    H222397   6.728   5.856  17.300  0.2955  1.0598  0.2073
  328TIP3   OH222398   2.135   4.330  16.122 -0.0415 -0.0962  0.2164
  328TIP3    H122399   2.156   4.309  16.213 -2.1972  1.3127  1.0991
  328TIP3    H222400   2.153   4.423  16.114  0.7393 -0.3229 -1.0419
  329TIP3   OH222401   2.044   2.925  17.216 -0.1347  0.0622  0.1722
  329TIP3    H122402   2.093   2.925  17.298 -0.0148 -2.5501  0.2116
  329TIP3    H222403   2.100   2.973  17.154  0.5017  0.7098  1.2220
  330TIP3   OH222404   3.192   4.974  13.210 -0.0710  0.2481  0.1652
  330TIP3    H122405   3.123   4.922  13.169  0.3404 -0.0693 -0.1416
  330TIP3    H222406   3.154   5.060  13.222 -0.1919  0.3647 -0.9489
  331TIP3   OH222407   5.713   3.844  13.638  0.2148  0.2115 -0.6823
  331TIP3    H122408   5.781   3.826  13.703  1.1932 -1.3692 -2.0751
  331TIP3    H222409   5.657   3.909  13.680  0.0585 -1.6312  2.2593
  332TIP3   OH222410   6.146   5.252   6.477  0.0550  0.2011  0.6158
  332TIP3    H122411   6.130   5.343   6.500 -0.9863  0.4223 -0.8220
  332TIP3    H222412   6.061   5.220   6.446  1.3805  0.2228 -3.6021
  333TIP3   OH222413   5.114   4.434   5.252 -0.0880 -0.3346 -0.1379
  333TIP3    H122414   5.141   4.441   5.343  0.6882  1.1308 -0.4509
  333TIP3    H222415   5.113   4.340   5.234 -0.0879 -0.6289  1.3149
  334TIP3   OH222416   0.329   0.976  16.163  0.4341 -0.1877  0.2614
  334TIP3    H122417   0.327   0.921  16.241 -0.0509  0.1203  0.4710
  334TIP3    H222418   0.422   0.994  16.149  0.4727  0.4951  1.3042
  335TIP3   OH222419   6.178   2.008   5.391 -0.2538 -0.3403 -0.3705
  335TIP3    H122420   6.264   2.042   5.416  0.3656  0.5739 -3.3484
  335TIP3    H222421   6.116   2.064   5.436  0.7248  0.3209  0.1975
  336TIP3   OH222422   4.356   2.408   6.479  0.0951 -0.1157  0.0248
  336TIP3    H122423   4.295   2.406   6.553  1.0997  0.6304  0.9053
  336TIP3    H222424   4.406   2.327   6.486  0.9336  0.4552  0.8340
  337TIP3   OH222425   1.803   5.964  11.949 -0.5732  0.3162 -0.4908
  337TIP3    H122426   1.868   5.905  11.987 -1.3250 -0.3453 -0.1848
  337TIP3    H222427   1.788   6.031  12.016  0.5819  1.1116 -1.0013
  338TIP3   OH222428   6.423   1.259   3.322 -0.4632 -0.2231  0.2784
  338TIP3    H122429   6.430   1.189   3.386 -1.2462 -1.5572 -1.0330
  338TIP3    H222430   6.330   1.267   3.304 -0.3772  1.1343  0.3757
  339TIP3   OH222431   4.677   0.242  13.180 -0.0685  0.4817  0.1906
  339TIP3    H122432   4.626   0.296  13.120 -0.1514  1.2618  0.9459
  339TIP3    H222433   4.752   0.212  13.128  0.3978  1.9773 -0.0403
  340TIP3   OH222434   1.621   5.452  16.037  1.0088  0.0906  1.0206
  340TIP3    H122435   1.564   5.409  15.972 -1.1294 -0.2929  2.9981
  340TIP3    H222436   1.655   5.529  15.992 -2.9164  1.6343  0.2637
  341TIP3   OH222437   3.225   2.376  11.763 -1.2722 -0.1571 -0.3673
  341TIP3    H122438   3.269   2.454  11.730  0.5545  0.4191  3.0532
  341TIP3    H222439   3.238   2.311  11.694  1.4353  1.1854 -1.2574
  342TIP3   OH222440   3.170   2.551  13.169  0.2289 -0.7495  0.1871
  342TIP3    H122441   3.174   2.634  13.122  0.4773 -0.5356  0.5781
  342TIP3    H222442   3.248   2.550  13.224 -0.2767 -0.7973  0.9171
  343TIP3   OH222443   0.813   2.672  11.378  0.2580  0.7881 -0.8764
  343TIP3    H122444   0.779   2.641  11.462  2.0589 -0.2256 -0.4781
  343TIP3    H222445   0.745   2.648  11.315  0.3642 -1.6274 -0.1880
  344TIP3   OH222446   5.647   0.360  13.284 -0.4238  1.1852 -0.2802
  344TIP3    H122447   5.675   0.446  13.313  0.5000  0.9259 -0.3802
  344TIP3    H222448   5.720   0.326  13.233  0.6512 -0.9665  2.3752
  345TIP3   OH222449   3.795   3.035  13.732  0.0761  0.0675  0.4131
  345TIP3    H122450   3.724   3.095  13.755 -0.0663  0.1317 -0.1731
  345TIP3    H222451   3.856   3.089  13.682 -0.2264 -0.3536 -0.4295
  346TIP3   OH222452   1.529   4.182   3.273 -0.1287 -0.2735  0.6312
  346TIP3    H122453   1.609   4.232   3.291 -0.7586  1.1761 -0.4002
  346TIP3    H222454   1.468   4.209   3.341  0.0314 -0.8843  1.0272
  347TIP3   OH222455   4.885   3.350   2.731  0.2130  0.1473  0.7900
  347TIP3    H122456   4.939   3.424   2.759  1.0207 -0.0089 -0.3065
  347TIP3    H222457   4.878   3.296   2.809  3.4586 -0.9055  0.5023
  348TIP3   OH222458   6.221   0.013  13.804  0.1087 -0.6576  0.0063
  348TIP3    H122459   6.204   0.007  13.898  0.0412 -1.2446 -0.0423
  348TIP3    H222460   6.293  -0.048  13.789  0.0536 -0.6348 -0.3426
  349TIP3   OH222461   6.025   3.080   1.899 -0.0477  0.1474 -0.3316
  349TIP3    H122462   6.086   3.083   1.972 -1.6827 -0.8076  1.1746
  349TIP3    H222463   6.050   3.002   1.849  0.5905  0.3618 -0.3530
  350TIP3   OH222464   2.081   4.489  16.721  0.0082  0.1739 -0.0476
  350TIP3    H122465   2.145   4.431  16.761  0.8802  1.2668  0.2151
  350TIP3    H222466   2.105   4.576  16.753 -0.8444  0.7581 -0.9417
  351TIP3   OH222467   2.802   6.100  11.646  0.1993  0.0584 -0.0450
  351TIP3    H122468   2.739   6.109  11.718  0.4670  2.0277 -0.0017
  351TIP3    H222469   2.800   6.007  11.623 -2.7458  0.0510 -0.0706
  352TIP3   OH222470   3.438   2.635  11.869 -0.0726  0.3373 -0.2774
  352TIP3    H122471   3.433   2.653  11.962  0.0493  0.6199 -0.3247
  352TIP3    H222472   3.356   2.669  11.833  0.6996  2.0043 -0.5605
  353TIP3   OH222473   5.672   3.479  17.422 -0.1144  0.0058  0.3185
  353TIP3    H122474   5.603   3.484  17.355 -0.1423 -0.3283  0.3192
  353TIP3    H222475   5.666   3.562  17.469  0.5439  0.6659 -0.7069
  354TIP3   OH222476   4.883   3.114  13.987 -0.2628 -0.7776 -0.2719
  354TIP3    H122477   4.940   3.058  14.040  1.1262  0.0397 -0.8432
  354TIP3    H222478   4.873   3.066  13.904  0.7342 -0.3133 -0.6744
  355TIP3   OH222479   4.397   4.482   4.939 -0.8489 -0.3307 -0.0867
  355TIP3    H122480   4.429   4.485   4.848  0.1014 -1.0632  0.2013
  355TIP3    H222481   4.476   4.493   4.992 -1.3703 -0.1016  0.6592
  356TIP3   OH222482   2.424   0.751  13.946  0.0392  0.2189 -0.0892
  356TIP3    H122483   2.427   0.769  14.039  2.7567 -1.3785  0.2385
  356TIP3    H222484   2.360   0.680  13.937  3.2721 -3.2645  1.4774
  357TIP3   OH222485   5.769   3.201   4.599 -0.5605 -0.2414 -0.3585
  357TIP3    H122486   5.784   3.278   4.545 -1.0553  1.1984  1.4543
  357TIP3    H222487   5.855   3.162   4.610 -0.2587  0.2106 -1.0400
  358TIP3   OH222488   1.524   2.614   5.354 -0.1069 -0.6956 -0.7984
  358TIP3    H122489   1.481   2.570   5.280 -0.7149 -1.1723 -0.1741
  358TIP3    H222490   1.544   2.543   5.415  3.0469 -0.7631 -1.7110
  359TIP3   OH222491   1.798   4.437  16.743  0.5098  0.3982  0.2175
  359TIP3    H122492   1.767   4.405  16.658  0.0145 -0.1071  0.5830
  359TIP3    H222493   1.893   4.449  16.731  0.5530 -0.3140 -0.2118
  360TIP3   OH222494   3.337   5.374  12.306 -0.4846 -0.1274  0.1349
  360TIP3    H122495   3.373   5.459  12.331  0.5536 -0.4664 -0.1565
  360TIP3    H222496   3.250   5.373  12.345  0.5843 -0.1291  2.8005
  361TIP3   OH222497   0.887   6.150  11.175  0.5658 -0.3501  0.4373
  361TIP3    H122498   0.794   6.148  11.149 -0.3597  1.0906  3.3081
  361TIP3    H222499   0.915   6.239  11.156  1.7851 -1.0719 -1.4477
  362TIP3   OH222500   3.248   3.610  10.759  0.5593  0.3433  0.0350
  362TIP3    H122501   3.251   3.528  10.710 -0.9844 -0.3182  0.9625
  362TIP3    H222502   3.161   3.611  10.799  2.0213  0.3424  3.5782
  363TIP3   OH222503   4.346   3.751   0.226  0.5436 -0.1762 -0.1361
  363TIP3    H122504   4.256   3.733   0.254  0.0335  0.7170 -1.1189
  363TIP3    H222505   4.356   3.846   0.236  1.2654 -0.2199 -0.3664
  364TIP3   OH222506   4.445   3.612  14.122  0.1718 -0.2152  0.9405
  364TIP3    H122507   4.448   3.626  14.028  1.0923 -1.2924  0.7937
  364TIP3    H222508   4.361   3.570  14.138  1.1463 -2.6250  0.1853
  365TIP3   OH222509   3.216   3.074   1.044  0.2437  0.5853  0.6339
  365TIP3    H122510   3.177   3.159   1.065 -0.5455  0.3754  0.0347
  365TIP3    H222511   3.299   3.075   1.091 -0.1141  1.3638  1.2868
  366TIP3   OH222512   3.272   0.910   2.187 -0.2906  0.1534 -0.4674
  366TIP3    H122513   3.332   0.913   2.262 -0.4498 -1.9376 -0.1962
  366TIP3    H222514   3.196   0.961   2.215 -0.6648 -1.1886  1.1267
  367TIP3   OH222515   6.251   5.438  14.050  0.6171  0.7260 -0.1679
  367TIP3    H122516   6.297   5.356  14.033  0.2154  0.3003  0.7381
  367TIP3    H222517   6.199   5.421  14.128 -0.9449  1.2357 -1.0508
  368TIP3   OH222518   1.259   5.126  13.193  0.5180 -0.0415  0.6955
  368TIP3    H122519   1.324   5.172  13.247  2.2224 -0.2838 -1.0593
  368TIP3    H222520   1.284   5.034  13.198 -0.0123 -0.2036  0.4218
  369TIP3   OH222521   0.832   4.426   3.276  0.6170 -0.0806  0.1003
  369TIP3    H122522   0.802   4.378   3.199  1.8948 -0.8788  0.0538
  369TIP3    H222523   0.889   4.363   3.322 -0.8699  0.0420  2.2231
  370TIP3   OH222524   5.806   6.707   5.502 -0.5047  0.8020 -0.2635
  370TIP3    H122525   5.840   6.699   5.413  1.8197 -0.3893  0.6216
  370TIP3    H222526   5.792   6.616   5.530 -0.2259  1.0941  0.8894
  371TIP3   OH222527   4.853   0.644  11.667 -0.0519  0.3410 -0.4190
  371TIP3    H122528   4.837   0.645  11.762  0.4434  1.2704 -0.3272
  371TIP3    H222529   4.941   0.679  11.658 -0.1796  0.4640 -1.2414
  372TIP3   OH222530   3.098   1.099   6.171  0.2143 -0.6913 -0.2153
  372TIP3    H122531   3.161   1.111   6.241  1.2143 -0.2796 -1.1654
  372TIP3    H222532   3.102   1.005   6.150 -0.6532 -0.9694  0.7716
  373TIP3   OH222533   2.255   5.115  12.448 -0.5199 -0.0125 -0.2407
  373TIP3    H122534   2.283   5.027  12.425 -1.3071 -0.0462 -1.1456
  373TIP3    H222535   2.320   5.146  12.510  1.8857  0.1289 -2.6333
  374TIP3   OH222536   1.984   6.028   2.987 -0.4459  0.3825 -0.0514
  374TIP3    H122537   2.056   6.054   3.045 -0.2048  1.7951 -0.9469
  374TIP3    H222538   1.983   6.094   2.918 -1.9052 -0.2375 -0.6683
  375TIP3   OH222539   5.442   2.141   2.721 -0.2186  0.0877 -0.0870
  375TIP3    H122540   5.476   2.062   2.679  4.5035  0.8799  1.6517
  375TIP3    H222541   5.427   2.115   2.812 -0.1822  0.8016  0.1262
  376TIP3   OH222542   4.839   0.695   5.603  0.1624 -0.0339 -0.0265
  376TIP3    H122543   4.809   0.781   5.574 -1.2375 -0.0559  1.1943
  376TIP3    H222544   4.919   0.679   5.554  0.0493  1.6384 -0.8222
  377TIP3   OH222545   6.228   3.669   0.129 -0.4188 -0.2789  0.2964
  377TIP3    H122546   6.234   3.584   0.173  0.5766 -0.7670 -0.7534
  377TIP3    H222547   6.307   3.715   0.155 -0.0822 -0.3666 -0.5553
  378TIP3   OH222548   5.759   5.541  11.395  0.3031 -0.4385 -0.1660
  378TIP3    H122549   5.788   5.452  11.414  1.6393  0.2323  1.1460
  378TIP3    H222550   5.724   5.574  11.478  2.0195  1.0335  0.0399
  379TIP3   OH222551   0.695   1.539  14.125  0.4592 -0.0498 -0.0612
  379TIP3    H122552   0.759   1.488  14.075  0.7648  0.2230  0.0493
  379TIP3    H222553   0.612   1.493  14.112  0.4056  0.3653 -1.3438
  380TIP3   OH222554   1.643   2.999  12.086  0.5523  0.2195 -0.4275
  380TIP3    H122555   1.659   3.083  12.043  2.2986  0.1780  0.0759
  380TIP3    H222556   1.592   3.021  12.164 -2.8567  0.2824 -2.4347
  381TIP3   OH222557   4.133   4.766   4.403  0.1595  0.4979 -0.6363
  381TIP3    H122558   4.121   4.838   4.465  0.3285  1.2563 -1.4679
  381TIP3    H222559   4.213   4.789   4.354 -0.0276 -0.0285 -1.2051
  382TIP3   OH222560   6.437   2.649   0.775 -0.0931 -0.3284 -0.3436
  382TIP3    H122561   6.393   2.733   0.760  0.4107  0.0295  0.1305
  382TIP3    H222562   6.382   2.603   0.837 -0.8559 -0.7500 -1.3033
  383TIP3   OH222563   0.896   1.766   4.101 -0.5137 -0.1842 -0.3644
  383TIP3    H122564   0.931   1.679   4.077  0.1289  0.0666 -0.3656
  383TIP3    H222565   0.969   1.808   4.147 -0.2679  0.9497 -1.7405
  384TIP3   OH222566   4.532   4.827   1.310  0.1245  0.0586 -0.0928
  384TIP3    H122567   4.506   4.837   1.402  1.6530 -0.9623  0.5054
  384TIP3    H222568   4.462   4.775   1.271  0.3245 -1.1158  1.0032
  385TIP3   OH222569   1.064   3.159   3.478  0.4788  0.0227 -0.6466
  385TIP3    H122570   0.978   3.190   3.506  0.5786 -0.5857  0.3849
  385TIP3    H222571   1.091   3.098   3.546  1.5414 -0.1272 -1.1782
  386TIP3   OH222572   0.340   4.535   1.772 -0.4183 -0.3190  0.2303
  386TIP3    H122573   0.282   4.556   1.845 -0.1397 -0.7586  0.5832
  386TIP3    H222574   0.301   4.578   1.697 -0.3025  0.7794  0.7802
  387TIP3   OH222575   2.300   6.062  16.536 -0.3645 -0.1821 -0.0671
  387TIP3    H122576   2.243   5.992  16.567 -0.8461  0.0860 -0.3311
  387TIP3    H222577   2.308   6.047  16.442  1.3336 -1.1648  0.1969
  388TIP3   OH222578   4.909   6.652  13.027 -0.7925  0.2530 -0.1014
  388TIP3    H122579   4.870   6.567  13.008  0.4953 -0.2914 -0.4089
  388TIP3    H222580   4.853   6.715  12.982 -1.6404 -0.4368 -0.0447
  389TIP3   OH222581   0.185   0.371   3.255 -0.1298 -0.0772  0.2822
  389TIP3    H122582   0.262   0.412   3.294  0.4823 -1.4538  0.5904
  389TIP3    H222583   0.158   0.431   3.186  1.6797  0.1036 -0.3236
  390TIP3   OH222584   0.867   5.121   0.632 -0.2015 -0.2894 -0.1722
  390TIP3    H122585   0.959   5.092   0.631  0.4962  1.7768 -0.3870
  390TIP3    H222586   0.849   5.140   0.724  0.1452  0.9217 -0.3463
  391TIP3   OH222587   3.744   1.704   5.034 -0.6107  0.0512  0.0916
  391TIP3    H122588   3.793   1.642   4.980  0.1497 -0.6186  1.5059
  391TIP3    H222589   3.795   1.785   5.027  0.2654 -0.4131  0.8886
  392TIP3   OH222590   6.122   2.665   0.212 -0.6727  0.3752 -0.4465
  392TIP3    H122591   6.113   2.590   0.153 -1.6840 -0.4529  0.7188
  392TIP3    H222592   6.186   2.722   0.169  0.8560 -1.5926 -0.9336
  393TIP3   OH222593   4.478   2.269   5.880 -0.3711 -0.1814  0.2108
  393TIP3    H122594   4.443   2.212   5.948  0.5571 -0.6504  0.3036
  393TIP3    H222595   4.561   2.300   5.914  0.0817 -0.3819 -0.6843
  394TIP3   OH222596   5.722   1.740   1.916  0.0745  0.0654  0.0410
  394TIP3    H122597   5.807   1.728   1.874  0.4062 -1.0230  0.9575
  394TIP3    H222598   5.684   1.816   1.873  0.5386 -0.7669 -1.9464
  395TIP3   OH222599   3.847   2.708  11.337  0.6018 -0.0494  0.3247
  395TIP3    H122600   3.849   2.791  11.288  0.6694 -0.9801 -1.3258
  395TIP3    H222601   3.939   2.687  11.352  0.5842  0.1841  0.7580
  396TIP3   OH222602   2.018   6.196  14.690 -0.2143 -0.3194 -0.0020
  396TIP3    H122603   2.106   6.200  14.653 -0.0830  0.2135  0.3409
  396TIP3    H222604   1.994   6.288  14.703 -1.1883 -0.4226 -0.9369
  397TIP3   OH222605   3.635   0.485   1.844 -0.0973  0.0822  0.1496
  397TIP3    H122606   3.576   0.554   1.814 -2.3078 -1.8738 -0.4009
  397TIP3    H222607   3.674   0.450   1.763 -1.3441 -1.2012  0.0479
  398TIP3   OH222608   0.545   5.415  15.865  0.1774 -0.6263 -0.5627
  398TIP3    H122609   0.608   5.358  15.821 -0.9113 -2.5174  0.2049
  398TIP3    H222610   0.503   5.464  15.795  0.9894 -0.9419 -1.2807
  399TIP3   OH222611   3.935   0.760  14.856 -0.1733  0.7865 -0.3012
  399TIP3    H122612   3.966   0.821  14.790  0.7004  1.2546  0.5171
  399TIP3    H222613   3.928   0.812  14.936 -0.1413 -0.0114  0.2335
  400TIP3   OH222614   3.850   3.526   6.216 -0.2293 -0.3104 -0.3360
  400TIP3    H122615   3.820   3.597   6.159 -1.0522  0.0165  0.4747
  400TIP3    H222616   3.911   3.476   6.162  0.9298  1.4038 -0.7122
  401TIP3   OH222617   2.659   2.566  15.630  0.2074  0.0405  0.5623
  401TIP3    H122618   2.701   2.539  15.548 -0.3776  0.0005  0.2610
  401TIP3    H222619   2.695   2.508  15.697 -1.1251 -1.6507 -0.0879
  402TIP3   OH222620   5.898   3.132   6.607 -0.3102 -0.0777 -0.2054
  402TIP3    H122621   5.863   3.059   6.557 -0.8611  1.2459 -1.8680
  402TIP3    H222622   5.967   3.094   6.661 -1.7970 -2.1043  0.3478
  403TIP3   OH222623   4.747   0.909   4.520 -0.2733  0.2763  0.3761
  403TIP3    H122624   4.667   0.868   4.487  0.5454  0.3537 -1.8612
  403TIP3    H222625   4.761   0.984   4.462  0.2310  1.5948  2.1362
  404TIP3   OH222626   3.330   2.282   0.818  0.3542  0.3762 -0.5925
  404TIP3    H122627   3.386   2.270   0.741 -1.9864  0.8245 -2.4748
  404TIP3    H222628   3.242   2.262   0.787 -0.7579  1.0852  1.8620
  405TIP3   OH222629   1.212   5.646   0.885  0.2967 -0.1633  0.4242
  405TIP3    H122630   1.126   5.673   0.854  0.2402  0.7052  1.2873
  405TIP3    H222631   1.271   5.661   0.811 -0.3459 -1.1976 -0.3319
  406TIP3   OH222632   4.194   2.822  15.943  0.2275 -0.7029  0.2591
  406TIP3    H122633   4.119   2.763  15.955 -2.0747  2.0188  0.1407
  406TIP3    H222634   4.194   2.842  15.850  0.8597 -0.3320  0.3363
  407TIP3   OH222635   4.239   1.024  14.819 -0.2719  0.6610 -0.0196
  407TIP3    H122636   4.245   1.053  14.728  3.9339 -1.8961 -0.8142
  407TIP3    H222637   4.314   1.064  14.862 -1.8799  1.3998  2.3268
  408TIP3   OH222638   4.116   4.425  12.840 -0.2345 -0.2900  0.4486
  408TIP3    H122639   4.182   4.428  12.771  0.5374 -2.0103  1.0640
  408TIP3    H222640   4.111   4.333  12.865 -1.7872  0.0273  1.4770
  409TIP3   OH222641   4.738   5.712  13.791 -0.2843  0.8179  0.3285
  409TIP3    H122642   4.686   5.792  13.788 -2.3673 -0.4826 -0.7195
  409TIP3    H222643   4.673   5.642  13.800  1.3849 -0.8264  0.1528
  410TIP3   OH222644   0.219   1.148   2.825  0.3520 -0.2214 -0.2799
  410TIP3    H122645   0.196   1.073   2.770 -2.5016 -0.4676  1.0669
  410TIP3    H222646   0.255   1.212   2.763 -0.1563 -1.4967 -1.9811
  411TIP3   OH222647   4.198   0.776   5.590 -0.4515  0.1781 -0.6621
  411TIP3    H122648   4.185   0.688   5.625 -0.0242  0.3846  0.0420
  411TIP3    H222649   4.290   0.795   5.606 -0.9282  1.4589  0.9040
  412TIP3   OH222650   6.679   4.385  12.084  0.1731 -0.6941 -0.1837
  412TIP3    H122651   6.619   4.405  12.156  0.2913  0.1404 -0.3006
  412TIP3    H222652   6.624   4.388  12.006  0.2017 -0.7908 -0.2087
  413TIP3   OH222653   1.082   4.191  15.396  0.1480  0.3906 -0.2822
  413TIP3    H122654   0.999   4.233  15.372 -1.3294 -0.5940  2.5445
  413TIP3    H222655   1.081   4.107  15.350  1.5189  1.8617 -3.2755
  414TIP3   OH222656   0.376   3.984  11.792  0.3182 -0.2298  0.0424
  414TIP3    H122657   0.336   4.058  11.838 -0.6210  0.8115 -2.3096
  414TIP3    H222658   0.457   4.020  11.755 -0.7808  0.0936 -2.2159
  415TIP3   OH222659   3.093   3.331   5.542 -0.0787 -0.6119 -0.2678
  415TIP3    H122660   3.025   3.361   5.602 -0.1871 -0.7913 -0.2990
  415TIP3    H222661   3.127   3.251   5.583  0.4217 -0.2870 -0.0262
  416TIP3   OH222662   2.813   5.795  10.979  0.7520 -0.4113  0.4635
  416TIP3    H122663   2.807   5.886  10.952 -1.2680 -0.1022  1.7606
  416TIP3    H222664   2.899   5.789  11.022  1.2199  0.6635 -0.2766
  417TIP3   OH222665   1.404   3.208  12.078  0.6850  0.5165  0.7360
  417TIP3    H122666   1.340   3.138  12.067  1.9346 -0.6241  0.4112
  417TIP3    H222667   1.393   3.237  12.168 -2.6219  2.7925 -0.2202
  418TIP3   OH222668   3.014   2.158   6.040  0.2256  0.0200  0.0692
  418TIP3    H122669   3.086   2.220   6.044 -0.5574  0.9482 -0.0342
  418TIP3    H222670   2.946   2.194   6.097 -0.1902 -0.8043  0.1210
  419TIP3   OH222671   4.173   0.308   3.046 -0.6450  0.6078 -0.2083
  419TIP3    H122672   4.103   0.271   3.099  0.7421  1.4006  2.4040
  419TIP3    H222673   4.147   0.400   3.034 -1.1342  0.3391 -1.2704
  420TIP3   OH222674   3.993   0.219  17.330  0.1602 -0.3536 -0.4715
  420TIP3    H122675   4.048   0.234  17.253 -0.7498  0.9405 -0.9094
  420TIP3    H222676   4.043   0.158  17.384  0.9582 -1.0645 -1.9360
  421TIP3   OH222677   4.249   2.696  12.149 -0.6116  0.3609 -0.3811
  421TIP3    H122678   4.182   2.744  12.102 -0.1360  1.6945  0.2383
  421TIP3    H222679   4.277   2.755  12.219 -0.7670 -1.2421  1.1340
  422TIP3   OH222680   3.918   1.170  11.097  0.3907  0.2314 -0.1606
  422TIP3    H122681   4.000   1.219  11.097  0.5106  0.0481  0.7933
  422TIP3    H222682   3.945   1.078  11.107  0.0230  0.3365  2.5725
  423TIP3   OH222683   2.238   0.736   0.998 -0.3966 -0.1499  0.4350
  423TIP3    H122684   2.157   0.688   1.018 -1.7241  1.0269 -1.6844
  423TIP3    H222685   2.291   0.674   0.948  0.1645 -1.0174  2.0644
  424TIP3   OH222686   0.529   0.452  15.492 -0.5850  0.9023  0.4342
  424TIP3    H122687   0.549   0.523  15.431  1.6990  0.7427  0.8972
  424TIP3    H222688   0.558   0.373  15.447 -0.8489  0.5392  0.8866
  425TIP3   OH222689   1.585   5.310   4.215  0.3397  0.2143  0.2368
  425TIP3    H122690   1.522   5.323   4.286  0.4854  0.2609  0.3582
  425TIP3    H222691   1.594   5.397   4.176 -1.4661 -0.2102 -1.3117
  426TIP3   OH222692   4.905   1.358   4.360  0.8338  0.0248  0.2272
  426TIP3    H122693   4.875   1.383   4.447  0.4531  1.7309 -0.3701
  426TIP3    H222694   4.975   1.420   4.339 -0.5805  1.1086 -1.5643
  427TIP3   OH222695   1.270   2.929  11.244 -0.9398 -0.3895  0.0725
  427TIP3    H122696   1.275   3.005  11.185 -0.4460 -2.4921 -2.7992
  427TIP3    H222697   1.180   2.898  11.236 -0.4121 -1.7438 -1.1167
  428TIP3   OH222698   1.785   4.958   0.027 -0.2965 -0.3664 -0.0193
  428TIP3    H122699   1.788   5.039   0.077 -1.1279 -0.4362  0.1646
  428TIP3    H222700   1.872   4.919   0.038 -0.4643 -0.3997  1.4076
  429TIP3   OH222701   4.045   1.094   4.983  0.5043  0.0141 -0.1026
  429TIP3    H122702   4.069   1.003   4.966  0.5682  0.1844 -0.9693
  429TIP3    H222703   3.962   1.088   5.032  1.0829 -0.5217  0.8441
  430TIP3   OH222704   2.368   2.233  14.571 -0.0126  0.2617  0.1305
  430TIP3    H122705   2.460   2.215  14.591  0.1523  1.7395  0.7710
  430TIP3    H222706   2.339   2.293  14.639 -1.2302  0.4799 -0.5469
  431TIP3   OH222707   3.216   2.108  16.241  0.1130 -0.0303  0.2150
  431TIP3    H122708   3.255   2.079  16.159  0.2527 -0.2946  0.3724
  431TIP3    H222709   3.249   2.046  16.307 -1.4083 -0.9371  0.1883
  432TIP3   OH222710   4.345   1.435  15.866  0.3878  0.4687 -0.2000
  432TIP3    H122711   4.352   1.489  15.787 -0.4054  0.0441 -0.5763
  432TIP3    H222712   4.422   1.458  15.917 -0.8355  3.3666  0.5430
  433TIP3   OH222713   6.639   0.154   2.005  0.0647 -0.4557  0.1289
  433TIP3    H122714   6.619   0.248   2.006 -2.5167 -0.9160 -0.9759
  433TIP3    H222715   6.717   0.147   1.950  0.1940  1.0205  0.0761
  434TIP3   OH222716   6.126   6.297  14.818 -0.4657  0.5718 -0.3504
  434TIP3    H122717   6.087   6.210  14.816  1.9119 -0.6021  0.4454
  434TIP3    H222718   6.156   6.312  14.728 -0.8581  0.5815 -0.4835
  435TIP3   OH222719   0.718   0.169   2.920 -0.2486  0.0628  0.4435
  435TIP3    H122720   0.714   0.130   2.833 -0.3318  1.2805 -0.1305
  435TIP3    H222721   0.680   0.103   2.978  1.8064 -1.6813 -0.0729
  436TIP3   OH222722   1.554   6.405  17.374 -0.0579 -0.2025 -0.5828
  436TIP3    H122723   1.464   6.431  17.392 -0.0530 -1.2785  1.2467
  436TIP3    H222724   1.577   6.346  17.446  1.1106 -2.3151 -2.5245
  437TIP3   OH222725   6.436   1.363  10.638 -0.2512 -0.4406 -0.2572
  437TIP3    H122726   6.470   1.435  10.692  1.3427 -1.4342  0.1106
  437TIP3    H222727   6.385   1.310  10.699  1.1118 -1.2709  0.2080
  438TIP3   OH222728   4.995   4.271  11.738 -0.3911 -0.7317  0.6401
  438TIP3    H122729   5.050   4.211  11.687 -0.1479 -0.4694  0.5874
  438TIP3    H222730   5.041   4.279  11.822 -1.1288 -1.6702  1.1518
  439TIP3   OH222731   5.350   4.195   0.800 -0.0540 -0.1617 -0.0138
  439TIP3    H122732   5.333   4.262   0.733  0.3046 -1.7652 -1.7961
  439TIP3    H222733   5.271   4.141   0.802  0.6280 -1.2135 -0.4988
  440TIP3   OH222734   6.034   5.959  12.864  0.5484  0.3408  0.4908
  440TIP3    H122735   5.979   5.881  12.875  1.0021  0.1439  1.4921
  440TIP3    H222736   6.047   5.992  12.953  0.6044  1.3983  0.0998
  441TIP3   OH222737   2.513   5.828  17.267 -0.0026  0.5185 -0.0300
  441TIP3    H122738   2.585   5.779  17.228  1.1746  2.1512 -0.0181
  441TIP3    H222739   2.443   5.823  17.201 -0.4176 -2.1643  0.5141
  442TIP3   OH222740   3.081   2.061   5.523 -0.1063  0.2591  0.2303
  442TIP3    H122741   3.143   2.020   5.584 -0.4159 -0.1527  0.2736
  442TIP3    H222742   3.019   2.106   5.580 -1.3852 -1.5165  0.3266
  443TIP3   OH222743   3.112   2.011   1.598  0.8415  0.2854  0.1348
  443TIP3    H122744   3.181   2.047   1.653  1.1851 -0.4717  0.2151
  443TIP3    H222745   3.155   1.990   1.515  0.6644  0.0147  0.1076
  444TIP3   OH222746   3.211   0.400   1.903  0.5507 -0.1640  0.7161
  444TIP3    H122747   3.241   0.439   1.985 -1.0284 -0.3396  1.4170
  444TIP3    H222748   3.148   0.463   1.868  0.3474 -0.6282  0.2324
  445TIP3   OH222749   5.290   1.211   3.033  0.1026  0.1360 -0.1070
  445TIP3    H122750   5.378   1.181   3.011 -0.1524 -0.2128 -0.6626
  445TIP3    H222751   5.304   1.286   3.092  0.7820  0.5329 -0.7622
  446TIP3   OH222752   0.743   1.375  12.926  0.0186 -0.1729  0.2478
  446TIP3    H122753   0.810   1.386  12.858 -0.5874  1.2371 -0.1727
  446TIP3    H222754   0.782   1.413  13.005  0.2689 -0.7260  0.3973
  447TIP3   OH222755   0.763   4.370   4.941 -0.4375 -0.3333  0.1607
  447TIP3    H122756   0.706   4.438   4.979 -0.4258 -0.3070  0.1309
  447TIP3    H222757   0.712   4.332   4.870 -0.1691  0.1399 -0.2946
  448TIP3   OH222758   0.691   6.380  17.336 -0.4840 -0.3766  0.2035
  448TIP3    H122759   0.631   6.445  17.373  0.0194  0.4840 -0.4753
  448TIP3    H222760   0.634   6.307  17.310 -1.6695  1.4542 -2.8078
  449TIP3   OH222761   3.373   0.586  13.300 -0.2602 -0.0078  0.1703
  449TIP3    H122762   3.351   0.506  13.251 -0.2283  0.1651 -0.1308
  449TIP3    H222763   3.377   0.655  13.233  1.0430  0.0027  0.2215
  450TIP3   OH222764   0.158   1.716   4.570 -0.3701 -0.4435 -0.0235
  450TIP3    H122765   0.203   1.646   4.617  0.4958  0.5673  0.7132
  450TIP3    H222766   0.185   1.705   4.479 -0.1898 -1.0166  0.0918
  451TIP3   OH222767   0.397   0.225  12.454  0.4488 -0.0850 -0.0888
  451TIP3    H122768   0.463   0.160  12.430  0.4810  0.1016 -0.5150
  451TIP3    H222769   0.355   0.248  12.371 -1.7493 -1.9078  0.4157
  452TIP3   OH222770   6.345   3.190  13.558 -0.3094  0.4045 -0.4130
  452TIP3    H122771   6.295   3.109  13.544  1.9266 -1.1368  0.0623
  452TIP3    H222772   6.299   3.233  13.631 -1.5498 -0.4031 -0.6758
  453TIP3   OH222773   2.291   5.746  17.428  0.1872 -0.0245  0.6560
  453TIP3    H122774   2.299   5.660  17.388 -1.2023  0.6738 -1.2481
  453TIP3    H222775   2.360   5.798  17.388 -0.1630  0.2395  0.3873
  454TIP3   OH222776   0.698   4.789   2.134  0.5682  0.1921 -0.4787
  454TIP3    H122777   0.740   4.863   2.091 -0.0947  0.4715 -0.6422
  454TIP3    H222778   0.755   4.769   2.208 -0.0762  1.8757  0.5058
  455TIP3   OH222779   1.854   2.677   6.065  0.5827  0.4456  0.3264
  455TIP3    H122780   1.820   2.743   6.126 -1.7801  0.5007 -0.9434
  455TIP3    H222781   1.867   2.599   6.118 -2.2332  0.2288  0.8401
  456TIP3   OH222782   0.621   2.033  13.915 -0.0206 -0.2010  0.5458
  456TIP3    H122783   0.575   2.114  13.895 -0.2749 -0.1657  1.2642
  456TIP3    H222784   0.601   2.015  14.006  1.9523  0.2073  1.1263
  457TIP3   OH222785   0.619   5.765   4.002  0.0396 -0.3376 -0.0904
  457TIP3    H122786   0.665   5.839   4.042 -1.8178  0.3216  0.9270
  457TIP3    H222787   0.546   5.804   3.955 -1.8157 -1.5487  1.6196
  458TIP3   OH222788   4.128   4.476   2.954  0.0079  0.5440  0.2997
  458TIP3    H122789   4.168   4.389   2.957  0.1069  0.5734 -0.1173
  458TIP3    H222790   4.099   4.492   3.044 -0.7113 -0.2496  0.2215
  459TIP3   OH222791   2.815   3.893  16.115  0.0111 -0.2944  0.4555
  459TIP3    H122792   2.820   3.819  16.176  1.1443 -1.5931 -1.1308
  459TIP3    H222793   2.906   3.918  16.100 -0.3690  1.8708  1.4180
  460TIP3   OH222794   1.584   5.531   3.289 -0.5148 -0.4375  1.5940
  460TIP3    H122795   1.672   5.493   3.296  0.0111  0.6038  0.8942
  460TIP3    H222796   1.541   5.479   3.221  0.2546  0.2995  0.5206
  461TIP3   OH222797   5.658   3.695   5.329 -0.0949  0.0093 -0.1501
  461TIP3    H122798   5.720   3.674   5.259 -0.0632 -0.2344 -0.0490
  461TIP3    H222799   5.583   3.638   5.312  0.3241 -0.7891  0.5962
  462TIP3   OH222800   4.618   0.987  14.569  0.9153  0.1971  0.4631
  462TIP3    H122801   4.694   1.031  14.608  1.2398 -1.1639  1.4260
  462TIP3    H222802   4.657   0.921  14.511  0.4652 -0.3910  0.8285
  463TIP3   OH222803   3.695   2.950   6.433  0.3074 -0.0749  0.1142
  463TIP3    H122804   3.742   2.983   6.510 -1.0959 -0.5151  1.2148
  463TIP3    H222805   3.604   2.940   6.464 -0.0356 -1.4422 -1.2581
  464TIP3   OH222806   3.557   4.355   7.056  0.6686 -0.3805  0.2193
  464TIP3    H122807   3.539   4.273   7.103  0.1313 -1.4535 -1.7732
  464TIP3    H222808   3.651   4.370   7.070  0.6933 -1.1033  0.9359
  465TIP3   OH222809   5.499   4.929   2.266 -0.0213  0.0179 -0.6485
  465TIP3    H122810   5.561   4.967   2.203  1.2889 -3.0757 -1.4505
  465TIP3    H222811   5.445   4.870   2.213 -1.8307  0.5886  0.5041
  466TIP3   OH222812   4.980   2.380   5.213 -0.2566 -0.3794 -0.0349
  466TIP3    H122813   4.969   2.474   5.202  0.8445 -0.2537 -0.1839
  466TIP3    H222814   4.953   2.342   5.129  0.0501 -0.1282 -0.2477
  467TIP3   OH222815   1.234   1.383  15.902 -0.1500 -0.1818  0.5757
  467TIP3    H122816   1.319   1.366  15.862 -0.4294 -1.7993  0.5906
  467TIP3    H222817   1.226   1.479  15.902  1.8991  0.0319  1.1132
  468TIP3   OH222818   1.613   0.500  11.261  0.4283  0.6828  0.1702
  468TIP3    H122819   1.625   0.406  11.276 -0.0376  0.6128  0.1282
  468TIP3    H222820   1.621   0.510  11.166 -0.6381  0.5077  0.0482
  469TIP3   OH222821   5.382   0.766   0.705 -0.1125 -0.2683 -0.1462
  469TIP3    H122822   5.474   0.782   0.724 -0.4526  0.6180  0.8971
  469TIP3    H222823   5.378   0.748   0.611  1.1963 -1.0129 -0.0795
  470TIP3   OH222824   1.567   5.981   4.438 -0.0079  0.2692  0.5697
  470TIP3    H122825   1.598   5.920   4.504  0.6671 -0.4220 -0.3638
  470TIP3    H222826   1.636   6.046   4.431 -1.2067  1.8478  2.3674
  471TIP3   OH222827   2.147   0.086   0.177  0.2194 -0.5718  0.0341
  471TIP3    H122828   2.077   0.093   0.112 -1.7848 -1.5664  1.9282
  471TIP3    H222829   2.167  -0.008   0.180  2.0902 -0.2364 -0.8721
  472TIP3   OH222830   3.801   5.452  16.905 -0.2593 -0.9467 -0.1742
  472TIP3    H122831   3.817   5.390  16.834 -0.3291 -2.0519  0.7430
  472TIP3    H222832   3.817   5.401  16.985  0.4864  0.4510  0.6010
  473TIP3   OH222833   5.060   1.058  15.773 -0.8443  0.1137  0.3119
  473TIP3    H122834   5.008   1.075  15.694  1.5269  0.8365 -1.1761
  473TIP3    H222835   5.091   1.144  15.800 -1.3214 -0.1753  1.8846
  474TIP3   OH222836   3.596   6.214   0.475 -0.1089 -0.4083  0.3582
  474TIP3    H122837   3.541   6.223   0.553  1.2561 -1.9620  1.5883
  474TIP3    H222838   3.669   6.275   0.491  0.9888 -1.8580  1.1152
  475TIP3   OH222839   5.828   6.650   0.996 -0.5232 -0.1487 -0.0022
  475TIP3    H122840   5.908   6.599   1.009 -1.1308 -0.8741  1.0761
  475TIP3    H222841   5.774   6.597   0.937  0.1694  0.8123 -1.5687
  476TIP3   OH222842   2.760   5.382   0.233 -0.3257  0.2503 -0.0241
  476TIP3    H122843   2.702   5.311   0.205  0.7002  0.2777 -2.5093
  476TIP3    H222844   2.823   5.340   0.291 -0.6231 -0.5578 -0.2743
  477TIP3   OH222845   4.083   2.862  13.798  0.3623  0.9938 -0.0791
  477TIP3    H122846   4.028   2.851  13.721  1.0924 -1.2134 -0.3336
  477TIP3    H222847   4.042   2.807  13.865  0.2657  2.1665  0.8766
  478TIP3   OH222848   0.586   4.991   4.688  0.0225 -0.2138  0.1613
  478TIP3    H122849   0.589   4.943   4.771  0.7738 -0.6002 -0.0844
  478TIP3    H222850   0.636   4.937   4.627 -1.5100 -0.5328 -0.8655
  479TIP3   OH222851   6.151   4.235   6.867  0.4826 -0.0675  0.0212
  479TIP3    H122852   6.230   4.238   6.813 -0.3494 -0.1691 -1.2615
  479TIP3    H222853   6.097   4.307   6.835  0.3433  0.4461  1.3695
  480TIP3   OH222854   0.639   6.474   6.280 -0.5655 -0.0214  0.1774
  480TIP3    H122855   0.607   6.563   6.268 -1.2374 -0.3411 -0.4777
  480TIP3    H222856   0.733   6.485   6.298 -0.5299  0.7902 -0.4284
  481TIP3   OH222857   1.788   2.446   4.505 -0.1226  0.2930 -0.1710
  481TIP3    H122858   1.747   2.416   4.586 -0.6556  0.9734 -0.1892
  481TIP3    H222859   1.726   2.422   4.436 -1.4259  2.9737 -0.0390
  482TIP3   OH222860   3.314   3.104   3.371  0.2005 -0.2606  0.4518
  482TIP3    H122861   3.376   3.069   3.308  0.8383 -0.2187  1.0455
  482TIP3    H222862   3.234   3.053   3.357  0.2191 -0.0125 -0.6184
  483TIP3   OH222863   1.346   2.093   0.586 -0.5739  0.6944  0.1412
  483TIP3    H122864   1.362   2.143   0.506 -1.5063  2.5156  1.0171
  483TIP3    H222865   1.284   2.147   0.635 -1.1540 -1.0738  1.4441
  484TIP3   OH222866   1.447   6.498   2.105  0.2460 -0.2065  0.1986
  484TIP3    H122867   1.405   6.414   2.123  2.1128 -0.7502  2.5069
  484TIP3    H222868   1.540   6.480   2.112  0.8652  1.4987 -2.2158
  485TIP3   OH222869   3.879   1.833   0.404  0.1752  0.2305 -0.0417
  485TIP3    H122870   3.911   1.904   0.459  0.2071 -0.0300  0.2797
  485TIP3    H222871   3.905   1.753   0.450 -0.8562  0.0125  0.1944
  486TIP3   OH222872   0.238   3.595  15.073  0.0219  0.7584  0.2323
  486TIP3    H122873   0.160   3.645  15.048 -0.4114  0.0688  0.1639
  486TIP3    H222874   0.222   3.571  15.165 -0.4569 -0.4803 -0.1578
  487TIP3   OH222875   5.837   2.972   5.446  0.0890 -0.3147 -0.1290
  487TIP3    H122876   5.751   2.962   5.487  0.1689  0.6965  0.3159
  487TIP3    H222877   5.818   2.987   5.353 -0.6550  4.9491  0.5459
  488TIP3   OH222878   5.757   4.557  12.431 -0.8761  0.3595  0.2312
  488TIP3    H122879   5.757   4.641  12.477 -2.3304  0.2742  0.4192
  488TIP3    H222880   5.665   4.537  12.417 -0.7792 -2.6594  2.8402
  489TIP3   OH222881   2.234   5.855   5.180  0.0764 -0.1592  0.4937
  489TIP3    H122882   2.297   5.926   5.193  1.5246 -0.9290 -1.6525
  489TIP3    H222883   2.270   5.782   5.229  1.9681 -1.1186 -2.0657
  490TIP3   OH222884   2.513   5.965   5.313  0.3967  0.1963  0.1298
  490TIP3    H122885   2.480   6.011   5.236 -0.7997 -1.2778 -0.3014
  490TIP3    H222886   2.467   6.004   5.387  0.2173  0.4310 -0.1052
  491TIP3   OH222887   4.023   2.876  13.481  0.1975 -0.1004  0.1914
  491TIP3    H122888   4.077   2.798  13.498  0.5999 -0.2473 -1.5468
  491TIP3    H222889   4.018   2.881  13.385 -2.6653  0.0781  0.2682
  492TIP3   OH222890   3.814   6.572  17.000 -0.1933 -0.0213 -0.0629
  492TIP3    H122891   3.876   6.621  16.945 -1.9370  0.5983 -1.5978
  492TIP3    H222892   3.827   6.481  16.975  1.9065 -0.2614  1.5969
  493TIP3   OH222893   0.139   6.612  12.326 -0.1407 -0.1274  0.5458
  493TIP3    H122894   0.202   6.627  12.397 -0.9687 -1.4073  1.5914
  493TIP3    H222895   0.187   6.560  12.261  0.4379  0.5391  0.4290
  494TIP3   OH222896   1.573   4.081   5.938  0.4342  0.4204  0.6235
  494TIP3    H122897   1.550   4.091   5.846 -0.2863 -1.8203  0.4941
  494TIP3    H222898   1.511   4.135   5.985 -0.5906 -0.0865 -0.1199
  495TIP3   OH222899   4.377   4.079  15.581 -0.0266 -0.3237 -0.0767
  495TIP3    H122900   4.354   3.986  15.579  0.5739 -0.5465  1.6370
  495TIP3    H222901   4.405   4.095  15.671  0.5014  1.3803 -0.5023
  496TIP3   OH222902   6.653   0.745  17.395  0.4625  0.6159  0.0652
  496TIP3    H122903   6.615   0.814  17.341 -0.7797 -0.0347  0.0722
  496TIP3    H222904   6.594   0.671  17.385  1.7905 -0.4879  0.0067
  497TIP3   OH222905   3.058   2.419   1.225 -0.0450  0.0899  0.0388
  497TIP3    H122906   3.056   2.349   1.159 -1.9883  1.1791 -1.1691
  497TIP3    H222907   3.030   2.497   1.177  0.6509  1.3938  1.6794
  498TIP3   OH222908   2.039   4.006   0.737 -0.3264  0.6175 -0.3313
  498TIP3    H122909   1.999   3.925   0.768 -0.0537 -0.1143 -1.7649
  498TIP3    H222910   1.982   4.076   0.769  0.8204  0.1393  3.2103
  499TIP3   OH222911   0.975   0.297  11.859  0.3434 -0.0512 -0.4553
  499TIP3    H122912   1.066   0.288  11.831  1.0983  0.3870  1.6931
  499TIP3    H222913   0.941   0.371  11.808  2.0354  1.5259  0.5944
  500TIP3   OH222914   3.905   0.749   4.957 -0.2478  0.0326 -0.2362
  500TIP3    H122915   3.946   0.666   4.981  3.2399  1.9767  1.2100
  500TIP3    H222916   3.871   0.784   5.039 -0.1112  0.8202 -0.5046
  501TIP3   OH222917   3.561   3.271   3.619 -0.0827 -0.2573 -0.4135
  501TIP3    H122918   3.486   3.330   3.622  0.8658  0.9772  0.4533
  501TIP3    H222919   3.636   3.329   3.606  0.9591 -1.1871  1.0809
  502TIP3   OH222920   4.409   1.338  14.944  0.0514 -0.1427  0.4566
  502TIP3    H122921   4.460   1.412  14.977  0.5721 -0.8666  1.3479
  502TIP3    H222922   4.343   1.324  15.011  0.4110 -0.9294  0.6598
  503TIP3   OH222923   0.304   5.702  11.668 -0.4075 -0.0992 -0.1523
  503TIP3    H122924   0.278   5.623  11.716  1.1817 -0.4586  0.1623
  503TIP3    H222925   0.286   5.680  11.576 -1.9179 -0.0237  0.0941
  504TIP3   OH222926   0.664   0.903  13.951  0.3766  0.6308 -1.1065
  504TIP3    H122927   0.573   0.896  13.978  1.1664 -0.4115  1.7469
  504TIP3    H222928   0.711   0.843  14.010  2.7282 -0.1357 -3.5243
  505TIP3   OH222929   3.261   4.205  14.145  0.5066  0.2642  0.0957
  505TIP3    H122930   3.167   4.209  14.133  0.5953  0.6870 -0.4672
  505TIP3    H222931   3.298   4.229  14.060  1.1200 -0.0814  0.2558
  506TIP3   OH222932   1.666   6.704   1.053  0.9207  0.5223 -0.2305
  506TIP3    H122933   1.672   6.787   1.006  1.1801  0.3059 -0.5842
  506TIP3    H222934   1.622   6.726   1.135 -1.5505  0.5324 -1.4762
  507TIP3   OH222935   0.904   2.134   2.519  0.1691  0.2182 -0.3478
  507TIP3    H122936   0.992   2.114   2.486  0.3570  0.6409 -0.1128
  507TIP3    H222937   0.870   2.200   2.459  0.3116  0.6092 -0.0092
  508TIP3   OH222938   5.412   4.428   4.864 -0.1606  0.0691  0.1715
  508TIP3    H122939   5.424   4.358   4.928 -2.0688 -2.6573 -2.2005
  508TIP3    H222940   5.493   4.429   4.813  0.0596 -0.1022  0.5199
  509TIP3   OH222941   3.656   3.596   4.789 -0.2945  0.0568  0.6585
  509TIP3    H122942   3.675   3.614   4.881  0.2050  0.4595  0.4851
  509TIP3    H222943   3.741   3.596   4.747 -0.4944 -0.4660  0.2497
  510TIP3   OH222944   1.081   5.017   6.242  0.5262  0.2761  0.8133
  510TIP3    H122945   0.988   5.040   6.241  0.7549  1.3225  1.3167
  510TIP3    H222946   1.096   4.986   6.331  1.0975  2.2127  1.4450
  511TIP3   OH222947   2.726   1.833  11.208  0.3152 -0.7170  0.3919
  511TIP3    H122948   2.757   1.745  11.186 -0.6088 -0.7653 -0.8427
  511TIP3    H222949   2.685   1.824  11.294 -1.0673 -1.8558 -0.3417
  512TIP3   OH222950   5.640   3.752  12.953 -0.2525 -0.8565  0.6025
  512TIP3    H122951   5.689   3.676  12.922 -0.9221 -1.1861  0.3293
  512TIP3    H222952   5.685   3.778  13.034  1.2305 -0.2687 -0.3612
  513TIP3   OH222953   3.660   0.319  16.098  0.1633 -0.4586 -0.3974
  513TIP3    H122954   3.732   0.381  16.089  0.2314 -0.4472  0.1660
  513TIP3    H222955   3.620   0.341  16.182 -0.8848 -0.0566 -0.9801
  514TIP3   OH222956   5.694   3.685   0.157  0.2173  0.0590  0.3876
  514TIP3    H122957   5.789   3.683   0.148  0.3024 -2.2062  1.1693
  514TIP3    H222958   5.677   3.753   0.222  1.0348  2.3578 -1.6674
  515TIP3   OH222959   1.294   4.861  13.221  0.5158 -0.2309  0.4678
  515TIP3    H122960   1.224   4.798  13.238 -0.5810  0.7432 -0.3081
  515TIP3    H222961   1.360   4.811  13.172 -0.2397 -0.8271  0.0388
  516TIP3   OH222962   3.890   3.144  12.429  0.2467 -0.0152 -0.5849
  516TIP3    H122963   3.885   3.077  12.361 -0.8271  1.3508 -1.9537
  516TIP3    H222964   3.948   3.211  12.392  0.8831  0.0658  0.5189
  517TIP3   OH222965   5.674   6.356   1.162 -0.2394  0.3932 -0.5331
  517TIP3    H122966   5.673   6.425   1.096  0.3188  2.3473  1.3961
  517TIP3    H222967   5.620   6.389   1.234  2.2610  0.1159  1.6243
  518TIP3   OH222968   0.471   0.891   5.325  0.8419 -0.1336 -0.0359
  518TIP3    H122969   0.399   0.853   5.274  2.0120 -1.0722 -1.0347
  518TIP3    H222970   0.507   0.818   5.375  0.5636  0.5161  1.1575
  519TIP3   OH222971   5.964   5.396   0.994  0.1836 -0.7768  0.5170
  519TIP3    H122972   5.900   5.466   0.979 -0.0911 -1.0523  0.4046
  519TIP3    H222973   6.049   5.439   0.983  0.1023  0.1194  2.8609
  520TIP3   OH222974   2.612   3.695   5.697  0.0351  0.0062 -0.0299
  520TIP3    H122975   2.546   3.628   5.680 -0.1790  0.0439  0.6451
  520TIP3    H222976   2.670   3.656   5.762 -0.1687  0.5232  0.4701
  521TIP3   OH222977   5.003   1.844  12.086  0.3351  0.3421  0.1872
  521TIP3    H122978   4.993   1.822  12.179  0.3911 -2.0202 -0.3106
  521TIP3    H222979   4.918   1.882  12.062  0.6559  1.9228  1.4075
  522TIP3   OH222980   0.881   4.928  17.237  0.3421  0.2514  0.2122
  522TIP3    H122981   0.917   5.017  17.241  0.7117  0.0556  2.0898
  522TIP3    H222982   0.934   4.885  17.169  2.1131  0.6639  1.2575
  523TIP3   OH222983   3.574   4.841   1.496  0.4090 -0.3879 -0.0962
  523TIP3    H122984   3.528   4.761   1.524 -0.8533  0.1021 -0.6665
  523TIP3    H222985   3.563   4.841   1.401 -0.7761  1.1206  0.0018
  524TIP3   OH222986   3.583   0.421  17.358 -0.2684 -0.0009 -0.5634
  524TIP3    H122987   3.584   0.457  17.269 -1.9611  0.0428 -0.5921
  524TIP3    H222988   3.626   0.336  17.349 -2.1658 -0.9033 -1.8789
  525TIP3   OH222989   6.036   2.019  16.963 -0.1872  0.1999 -0.4516
  525TIP3    H122990   5.983   2.094  16.991  0.3542  1.2422 -2.1164
  525TIP3    H222991   6.096   2.054  16.898  2.4699 -0.9858  1.2093
  526TIP3   OH222992   1.593   5.857   1.876  0.5528 -0.4324  0.3607
  526TIP3    H122993   1.547   5.940   1.867 -0.1363 -0.3848  3.1764
  526TIP3    H222994   1.524   5.792   1.883  0.9362 -0.7465  1.6143
  527TIP3   OH222995   2.935   4.095   3.811  0.1895 -0.6607 -0.5279
  527TIP3    H122996   2.842   4.110   3.829  0.1721 -1.9543  0.7269
  527TIP3    H222997   2.981   4.161   3.862 -0.0210 -1.1633  0.3417
  528TIP3   OH222998   0.739   4.575  14.753  0.2351 -0.1544  0.0661
  528TIP3    H122999   0.814   4.619  14.793  3.6166 -3.2405 -2.1450
  528TIP3    H223000   0.719   4.502  14.812 -0.3569  0.0602  0.1367
  529TIP3   OH223001   4.879   2.028   4.239 -0.2335  0.2227 -0.2305
  529TIP3    H123002   4.960   2.003   4.283  0.3211  3.0775  0.5506
  529TIP3    H223003   4.907   2.063   4.155 -0.6758  0.9166 -0.0963
  530TIP3   OH223004   5.993   0.644  17.182  0.0581 -0.1294  0.0031
  530TIP3    H123005   5.999   0.607  17.270 -0.1647  0.2030  0.1606
  530TIP3    H223006   5.957   0.732  17.196  0.8166  0.2459 -0.3400
  531TIP3   OH223007   4.894   3.522  15.052 -0.2297  0.1612 -0.1759
  531TIP3    H123008   4.812   3.569  15.037 -0.4035 -0.3171 -0.7296
  531TIP3    H223009   4.937   3.520  14.967  0.6008  0.8465  0.2123
  532TIP3   OH223010   2.569   5.158   3.094  0.5189  0.1609 -0.1777
  532TIP3    H123011   2.579   5.197   3.007  1.6610  1.2357  0.4194
  532TIP3    H223012   2.622   5.212   3.152 -0.7539 -0.1326  1.3388
  533TIP3   OH223013   5.176   1.679  12.690  0.0816  0.1972  0.2885
  533TIP3    H123014   5.184   1.628  12.771  0.2868  1.7548  1.2888
  533TIP3    H223015   5.110   1.633  12.639 -1.2365  0.0470  2.0409
  534TIP3   OH223016   6.672   0.103   1.159  0.4008 -0.2417  0.3520
  534TIP3    H123017   6.626   0.089   1.077  2.2455  0.2219 -0.8260
  534TIP3    H223018   6.638   0.187   1.191 -0.8209 -0.7492  0.4630
  535TIP3   OH223019   2.773   6.001   1.794 -0.2503 -0.9014  0.2154
  535TIP3    H123020   2.706   5.953   1.842 -1.3776 -0.8547 -1.2831
  535TIP3    H223021   2.750   6.093   1.807  0.2144 -0.8397  0.6527
  536TIP3   OH223022   1.782   0.360   4.522 -0.3901  0.1203  0.0482
  536TIP3    H123023   1.736   0.410   4.455 -1.0769  0.7825  0.9859
  536TIP3    H223024   1.714   0.335   4.585  0.0494 -1.4516 -0.0517
  537TIP3   OH223025   4.785   1.476  12.996 -0.2220  0.1354 -0.0033
  537TIP3    H123026   4.772   1.482  12.901  1.2308 -0.7158 -0.2835
  537TIP3    H223027   4.811   1.564  13.022  1.1102 -0.0352 -0.6981
  538TIP3   OH223028   3.910   1.161   1.044  0.0956 -0.8320 -0.1642
  538TIP3    H123029   3.998   1.146   1.080  0.4795  0.6235 -0.4142
  538TIP3    H223030   3.860   1.199   1.116  0.5112  0.9361 -0.7413
  539TIP3   OH223031   1.402   6.089   1.861 -0.4722 -0.1363  0.0331
  539TIP3    H123032   1.308   6.074   1.858 -0.5925  0.4753  0.4590
  539TIP3    H223033   1.412   6.183   1.844  0.1778 -0.4727 -1.6536
  540TIP3   OH223034   3.974   5.554  14.145 -0.3378  0.3355  0.3768
  540TIP3    H123035   3.969   5.610  14.067 -2.2382 -0.8742 -0.4208
  540TIP3    H223036   4.016   5.474  14.114 -2.4312 -0.7351  0.1869
  541TIP3   OH223037   6.268   6.749   1.304 -0.1556  0.1792  0.3162
  541TIP3    H123038   6.275   6.782   1.215 -0.8394  0.7287  0.4546
  541TIP3    H223039   6.291   6.823   1.359 -3.9755  1.2852  0.7010
  542TIP3   OH223040   6.489   0.200  15.861 -0.0474 -0.1855 -0.0686
  542TIP3    H123041   6.470   0.106  15.869 -1.5484 -0.3805 -3.6790
  542TIP3    H223042   6.584   0.204  15.850 -0.0167 -1.3639 -0.4425
  543TIP3   OH223043   1.918   6.545  12.682  0.3690  0.2332 -0.0594
  543TIP3    H123044   1.874   6.581  12.605 -2.5403  0.2644  1.4926
  543TIP3    H223045   1.953   6.461  12.653  1.6613  1.4002 -2.0537
  544TIP3   OH223046   5.661   0.213   2.806 -0.0242 -0.0270  0.8890
  544TIP3    H123047   5.656   0.146   2.874 -0.1978 -0.0420  0.8614
  544TIP3    H223048   5.591   0.190   2.745  0.2703 -0.1423  0.5904
  545TIP3   OH223049   6.372   5.662   4.152 -0.0049 -0.3656  0.2676
  545TIP3    H123050   6.384   5.621   4.066 -1.2452  0.3431 -0.2728
  545TIP3    H223051   6.352   5.754   4.132  0.9878  0.1214  1.3796
  546TIP3   OH223052   6.704   1.278   4.316  0.0932 -0.1428 -0.3431
  546TIP3    H123053   6.687   1.188   4.290  0.3841 -0.5536  0.8124
  546TIP3    H223054   6.617   1.317   4.325 -0.0790 -0.6554  0.2911
  547TIP3   OH223055   6.466   0.887  13.720 -0.2954  0.0213  0.1621
  547TIP3    H123056   6.517   0.911  13.643  0.7325 -0.2402  0.7386
  547TIP3    H223057   6.432   0.799  13.700 -0.6938  0.2779 -0.3058
  548TIP3   OH223058   2.115   2.596  13.277  0.0147 -0.4309  0.4440
  548TIP3    H123059   2.044   2.579  13.216  0.3961  0.2957 -0.2293
  548TIP3    H223060   2.113   2.523  13.339 -0.6720 -0.9308 -0.1607
  549TIP3   OH223061   6.461   5.191  12.722  0.2842  0.4159 -0.1037
  549TIP3    H123062   6.543   5.185  12.674  0.2593  0.5085 -0.1589
  549TIP3    H223063   6.412   5.260  12.677 -0.0890 -0.0808 -0.4656
  550TIP3   OH223064   4.635   0.621  13.763 -0.2484  0.4804  0.3838
  550TIP3    H123065   4.714   0.631  13.711  1.1254 -1.5139  1.9073
  550TIP3    H223066   4.666   0.616  13.854 -1.9766 -1.3931  0.9560
  551TIP3   OH223067   2.232   2.230   2.839 -0.3037  0.0153  0.1730
  551TIP3    H123068   2.186   2.296   2.891 -1.6379 -0.4238 -0.4282
  551TIP3    H223069   2.176   2.215   2.763  1.6915  0.8046 -1.5637
  552TIP3   OH223070   3.594   5.324   1.171 -0.0811  0.0615  0.4240
  552TIP3    H123071   3.595   5.299   1.263  1.8722 -1.4951  0.0655
  552TIP3    H223072   3.502   5.321   1.145 -0.8957  2.2869  2.7026
  553TIP3   OH223073   4.656   0.005   0.194  0.0669  0.3265 -0.4681
  553TIP3    H123074   4.741  -0.010   0.235  0.2970 -0.1875 -1.1063
  553TIP3    H223075   4.621   0.082   0.238  1.4291  1.3294 -1.0682
  554TIP3   OH223076   0.091   1.050  15.212 -0.0873 -0.5377 -0.2508
  554TIP3    H123077   0.110   0.984  15.278 -1.6852 -0.3027  0.4825
  554TIP3    H223078   0.027   1.008  15.154 -0.3004 -0.0074 -0.4078
  555TIP3   OH223079   5.744   6.069   5.317 -0.8110  0.2349  0.3523
  555TIP3    H123080   5.783   6.144   5.270  0.8346 -1.2393 -0.7622
  555TIP3    H223081   5.660   6.055   5.274  0.0336 -0.1715 -1.2457
  556TIP3   OH223082   5.264   6.435   1.382 -0.0495 -0.0704  0.4860
  556TIP3    H123083   5.198   6.381   1.338 -1.1729  0.8093  1.0252
  556TIP3    H223084   5.261   6.406   1.473  0.0308  0.2314  0.5843
  557TIP3   OH223085   1.007   5.495   4.793  0.1387  0.0851  0.3930
  557TIP3    H123086   1.051   5.426   4.843 -1.5511 -1.8770 -0.6940
  557TIP3    H223087   0.980   5.559   4.859  0.7042 -0.8837  1.5969
  558TIP3   OH223088   1.087   1.747  12.689  0.0319 -0.2976  0.4711
  558TIP3    H123089   1.054   1.735  12.600  1.3189 -0.3714 -0.0204
  558TIP3    H223090   1.028   1.812  12.728 -1.5524 -1.4634  0.1404
  559TIP3   OH223091   1.900   5.481   1.751 -0.0535  0.0726 -0.0415
  559TIP3    H123092   1.884   5.455   1.842 -2.7430  1.0722 -0.1430
  559TIP3    H223093   1.920   5.400   1.705  1.4621 -0.4313  1.4069
  560TIP3   OH223094   3.885   2.998  12.983 -0.1583  0.0490  0.1857
  560TIP3    H123095   3.968   2.982  12.939  0.0036  1.3003 -0.0121
  560TIP3    H223096   3.819   2.972  12.918  0.0818 -0.2493  0.0594
  561TIP3   OH223097   5.305   6.514  14.801  0.4831 -0.1803 -0.2756
  561TIP3    H123098   5.265   6.531  14.716  0.7968  0.5477 -0.2884
  561TIP3    H223099   5.394   6.484  14.780 -0.2304 -2.4563 -0.2702
  562TIP3   OH223100   1.178   1.906  14.077  0.2929  0.3949  0.5056
  562TIP3    H123101   1.246   1.916  14.010 -0.2120  0.6926  0.0256
  562TIP3    H223102   1.151   1.815  14.070  0.1127  0.4704  0.1665
  563TIP3   OH223103   4.751   2.081   6.017 -0.5198 -0.4809  0.1839
  563TIP3    H123104   4.789   2.132   5.946 -2.3131  0.8386  0.1078
  563TIP3    H223105   4.826   2.055   6.071  0.6226  0.6569 -0.7975
  564TIP3   OH223106   1.108   1.954   2.192  0.0782 -0.3133  0.6606
  564TIP3    H123107   1.166   2.021   2.229 -0.0087  0.4826 -0.6062
  564TIP3    H223108   1.166   1.880   2.172  0.4173 -0.0531  0.6835
  565TIP3   OH223109   4.302   5.135   3.739 -0.3934 -0.0016  1.0765
  565TIP3    H123110   4.255   5.192   3.799 -1.2990  1.2068 -0.7279
  565TIP3    H223111   4.258   5.050   3.747 -2.1935  0.8113  0.2633
  566TIP3   OH223112   4.576   3.007  14.492  0.0633 -0.5478  0.2776
  566TIP3    H123113   4.599   2.921  14.527 -0.4109 -0.1865  1.5201
  566TIP3    H223114   4.531   2.988  14.410 -0.2108 -1.5004  0.6337
  567TIP3   OH223115   1.922   6.434  14.802 -0.1442  0.3284  0.2853
  567TIP3    H123116   1.979   6.411  14.876  0.4108 -1.8008 -0.7514
  567TIP3    H223117   1.917   6.530  14.805 -1.7048  0.3090  4.2149
  568TIP3   OH223118   5.568   2.843  13.342  0.0853  0.4282  0.3387
  568TIP3    H123119   5.564   2.753  13.312 -0.5768  0.3149  0.7397
  568TIP3    H223120   5.476   2.869  13.352  0.2773  0.6639  1.6428
  569TIP3   OH223121   0.912   2.795  14.011  0.4278  0.5843 -0.4353
  569TIP3    H123122   0.975   2.732  13.976  0.2538  0.1800 -0.0293
  569TIP3    H223123   0.884   2.845  13.934  2.8587  2.2684 -0.3304
  570TIP3   OH223124   5.624   0.848   2.857  0.0062  0.0588 -0.5535
  570TIP3    H123125   5.567   0.883   2.789 -0.2618 -0.7043 -0.7267
  570TIP3    H223126   5.653   0.763   2.824 -0.9179 -0.7765  0.6936
  571TIP3   OH223127   1.632   1.700  16.867  0.1433 -0.0264  0.8595
  571TIP3    H123128   1.612   1.630  16.804 -0.2293  0.3570  0.5450
  571TIP3    H223129   1.546   1.736  16.890  0.2988  0.0231  1.3750
  572TIP3   OH223130   2.549   2.767   5.821  0.0003 -0.5543  0.0829
  572TIP3    H123131   2.637   2.730   5.807 -0.0727 -0.7299  0.0776
  572TIP3    H223132   2.515   2.719   5.896  0.5063  0.5962  1.0835
  573TIP3   OH223133   5.876   3.375  17.101 -0.3559 -0.1036 -0.5532
  573TIP3    H123134   5.903   3.355  17.190  0.1996 -0.4899 -0.8060
  573TIP3    H223135   5.938   3.329  17.045  0.1880  1.2753 -1.1526
  574TIP3   OH223136   5.680   6.162  12.505 -0.0611  0.1346  0.5338
  574TIP3    H123137   5.691   6.067  12.506 -1.8587 -0.1138  0.8183
  574TIP3    H223138   5.610   6.178  12.441  1.7394  1.5074 -1.2174
  575TIP3   OH223139   0.081   1.655   0.556 -0.0723 -0.0409  0.4017
  575TIP3    H123140   0.041   1.656   0.643 -1.5371 -0.4938 -0.2372
  575TIP3    H223141   0.020   1.705   0.501  0.6313 -0.0986 -0.4568
  576TIP3   OH223142   6.655   2.367  15.240 -0.4109  0.0413  0.2467
  576TIP3    H123143   6.735   2.334  15.199  0.0242  0.6246  0.6103
  576TIP3    H223144   6.640   2.452  15.197 -0.9882 -0.1842 -0.0101
  577TIP3   OH223145   5.857   1.221   4.210  0.4585 -0.1764  0.5388
  577TIP3    H123146   5.894   1.133   4.212  1.2323  0.1331  0.0373
  577TIP3    H223147   5.921   1.273   4.163  0.0841  0.7026  0.9884
  578TIP3   OH223148   4.067   5.623  16.215 -0.1996 -0.1369  0.2123
  578TIP3    H123149   4.076   5.638  16.121  0.6877 -0.9322  0.1547
  578TIP3    H223150   4.119   5.544  16.231 -0.6366 -0.2092  1.3101
  579TIP3   OH223151   5.316   0.030   5.978 -0.6175  0.2204 -0.2382
  579TIP3    H123152   5.241   0.051   5.922  0.0650 -0.4475 -1.4474
  579TIP3    H223153   5.316  -0.066   5.982 -0.5351  0.2536  0.7635
  580TIP3   OH223154   2.543   5.141  16.326 -0.2392 -0.4870 -0.1384
  580TIP3    H123155   2.559   5.098  16.242  1.2619  0.8569 -0.6125
  580TIP3    H223156   2.623   5.193  16.341 -0.6548 -0.3624  1.9157
  581TIP3   OH223157   4.079   5.384  13.000 -0.2152  0.8941  0.0176
  581TIP3    H123158   4.136   5.403  13.075  0.3976  1.5836 -0.6003
  581TIP3    H223159   4.045   5.470  12.974  0.0327  0.7418 -0.8431
  582TIP3   OH223160   5.532   2.844   3.300 -0.0868 -0.1440  0.0108
  582TIP3    H123161   5.593   2.911   3.270 -0.2687 -0.1525 -0.3894
  582TIP3    H223162   5.528   2.781   3.228 -1.2691  0.3287 -0.3649
  583TIP3   OH223163   6.577   1.601  15.555 -0.0414 -0.6327  0.4229
  583TIP3    H123164   6.587   1.626  15.647  1.1577  1.1432 -0.1283
  583TIP3    H223165   6.644   1.533  15.542  0.9124  0.2660  0.4965
  584TIP3   OH223166   4.733   3.501  11.730  0.3762  0.5358 -0.8381
  584TIP3    H123167   4.776   3.583  11.708  2.1175 -0.4271 -1.1824
  584TIP3    H223168   4.753   3.487  11.823  0.5867  0.1954 -0.9367
  585TIP3   OH223169   2.138   6.596   6.104 -0.3955 -0.4852 -0.1520
  585TIP3    H123170   2.091   6.677   6.084  0.0359  0.0667  0.9761
  585TIP3    H223171   2.159   6.603   6.197  0.5821 -1.4114 -0.2830
  586TIP3   OH223172   4.952   1.769  17.181 -0.0450  0.4444  0.0139
  586TIP3    H123173   4.931   1.741  17.092 -0.1078  1.5083 -0.3190
  586TIP3    H223174   4.866   1.789  17.220 -0.1616 -1.4141  0.8280
  587TIP3   OH223175   3.671   0.014   0.983 -0.1695 -0.0439 -0.1143
  587TIP3    H123176   3.630   0.080   0.927  0.1033  1.2194  1.1263
  587TIP3    H223177   3.599  -0.020   1.037 -0.3204 -0.8377 -0.7863
  588TIP3   OH223178   0.237   3.805  12.693 -0.5593 -0.6250 -0.5018
  588TIP3    H123179   0.327   3.793  12.723 -0.6913  0.3766  0.3628
  588TIP3    H223180   0.228   3.746  12.619  1.0941 -0.1133 -1.1582
  589TIP3   OH223181   3.152   4.221  16.470 -0.7766  0.1297  0.1465
  589TIP3    H123182   3.215   4.283  16.506 -0.1228 -0.2653 -0.2882
  589TIP3    H223183   3.126   4.166  16.544 -1.4071  0.9472  0.5464
  590TIP3   OH223184   3.508   2.753  14.324 -0.1403  0.3061  0.0743
  590TIP3    H123185   3.601   2.750  14.348 -0.5645  0.4491  1.8525
  590TIP3    H223186   3.474   2.668  14.352 -0.9000  0.9129  1.0527
  591TIP3   OH223187   3.392   2.056   5.490 -0.0310 -0.1296 -0.4891
  591TIP3    H123188   3.329   2.121   5.461 -0.1019 -0.2162 -0.5285
  591TIP3    H223189   3.464   2.107   5.529 -0.1171 -0.0320 -0.4594
  592TIP3   OH223190   1.597   0.255   4.706  0.0641  0.3772  0.3867
  592TIP3    H123191   1.605   0.173   4.659  0.5907  1.3641 -1.3307
  592TIP3    H223192   1.559   0.231   4.790 -0.9241 -1.4612 -0.5296
  593TIP3   OH223193   6.327   5.305   3.146 -0.5364  0.4403 -0.0463
  593TIP3    H123194   6.267   5.375   3.173 -3.1367 -1.5828 -0.0908
  593TIP3    H223195   6.373   5.280   3.226  0.8642  2.4911 -0.1416
  594TIP3   OH223196   1.427   3.914   5.156  0.1799 -0.0267 -0.2360
  594TIP3    H123197   1.469   3.981   5.210 -0.8487  0.5051 -0.0709
  594TIP3    H223198   1.382   3.963   5.087  0.3869 -0.6207 -0.8040
  595TIP3   OH223199   3.721   0.485  12.711 -0.5536 -0.2702  0.1239
  595TIP3    H123200   3.768   0.409  12.676 -1.6768 -0.7999 -0.2662
  595TIP3    H223201   3.787   0.555  12.713  0.1313 -0.8590 -0.8724
  596TIP3   OH223202   3.643   6.298   2.093  0.2138  0.2093 -0.1011
  596TIP3    H123203   3.601   6.241   2.157  0.2519 -1.0383 -1.1649
  596TIP3    H223204   3.736   6.295   2.115  0.2431 -0.3177 -0.3047
  597TIP3   OH223205   2.248   1.299  13.197 -0.6796  0.1277 -0.0166
  597TIP3    H123206   2.256   1.306  13.293  1.4922  0.9594 -0.1981
  597TIP3    H223207   2.222   1.208  13.182  3.0599 -1.3600  1.2801
  598TIP3   OH223208   3.801   2.449  14.535  0.3087  0.1089 -0.3925
  598TIP3    H123209   3.848   2.366  14.534  1.5737  0.7959 -0.4610
  598TIP3    H223210   3.852   2.505  14.593 -0.0102  1.1178 -1.0537
  599TIP3   OH223211   5.013   3.441  16.002  0.4238  0.0711  0.2316
  599TIP3    H123212   5.051   3.516  15.957 -1.6592  1.5133  0.7696
  599TIP3    H223213   5.030   3.367  15.943 -0.2056  1.4879 -1.8398
  600TIP3   OH223214   5.581   4.911  13.486 -0.2223  0.6329 -0.5836
  600TIP3    H123215   5.536   4.958  13.556 -0.1462  0.6216 -0.5274
  600TIP3    H223216   5.664   4.882  13.525 -1.4449 -2.0011  0.2563
  601TIP3   OH223217   5.795   4.363   0.338 -0.1843  0.1091 -0.0632
  601TIP3    H123218   5.875   4.404   0.305 -0.9067  1.2378 -0.4512
  601TIP3    H223219   5.726   4.394   0.279 -1.1202  0.2456  1.0771
  602TIP3   OH223220   6.743   5.202   2.431 -0.2135  0.0050 -0.6173
  602TIP3    H123221   6.720   5.245   2.348  1.4328 -0.8671 -1.5674
  602TIP3    H223222   6.824   5.155   2.412 -1.4521 -2.8439  0.5818
  603TIP3   OH223223   1.510   3.260   3.509  0.1522  0.4205 -0.9369
  603TIP3    H123224   1.568   3.217   3.571  2.0920  2.4988 -1.1488
  603TIP3    H223225   1.424   3.260   3.551  0.7486 -0.9113  0.3520
  604TIP3   OH223226   4.356   5.986   1.302  0.3492 -0.5719 -0.1149
  604TIP3    H123227   4.317   5.924   1.363  0.3616 -1.5819 -1.1086
  604TIP3    H223228   4.333   6.072   1.337 -2.2394 -1.0996 -0.2803
  605TIP3   OH223229   6.239   1.176  15.908 -0.4392 -0.0390  0.4353
  605TIP3    H123230   6.296   1.112  15.865  0.7123  0.4565  1.1690
  605TIP3    H223231   6.299   1.234  15.954 -1.5414  0.6719  1.0188
  606TIP3   OH223232   3.545   3.237  16.200  0.5594  0.5860 -0.0583
  606TIP3    H123233   3.597   3.157  16.210  0.3140  0.5174  0.7578
  606TIP3    H223234   3.537   3.249  16.105  0.1935 -0.6356 -0.2047
  607TIP3   OH223235   6.510   2.830  14.125  0.8551 -0.4174  0.3401
  607TIP3    H123236   6.465   2.829  14.210  0.2025  1.5330  0.0677
  607TIP3    H223237   6.444   2.801  14.062  1.0405 -0.8949  0.3601
  608TIP3   OH223238   2.348   4.024   2.247  0.7224 -0.3798 -0.2984
  608TIP3    H123239   2.261   4.052   2.219  0.5235 -0.7449 -0.0648
  608TIP3    H223240   2.353   4.051   2.339  0.9588 -0.1283 -0.3831
  609TIP3   OH223241   3.582   4.776  12.624 -0.7171 -0.4115  0.0469
  609TIP3    H123242   3.611   4.864  12.601  0.3085 -0.4320  1.1578
  609TIP3    H223243   3.643   4.717  12.579 -0.1161 -0.4922  0.9375
  610TIP3   OH223244   2.921   4.497  16.874  0.1635  0.2919 -0.2273
  610TIP3    H123245   2.906   4.410  16.837 -0.5493  1.3840 -2.7417
  610TIP3    H223246   2.836   4.541  16.869  1.1970  2.3409 -2.7068
  611TIP3   OH223247   4.580   5.738   1.862  0.1353  0.0682  0.3571
  611TIP3    H123248   4.646   5.714   1.927 -0.2191 -1.5791  0.1639
  611TIP3    H223249   4.506   5.769   1.914 -0.1588 -1.2600  0.7879
  612TIP3   OH223250   0.479   0.830   0.588 -0.1945  0.2036 -0.0977
  612TIP3    H123251   0.468   0.821   0.493 -1.8870 -1.0992  0.1791
  612TIP3    H223252   0.532   0.755   0.613  1.9151  1.5705 -0.2004
  613TIP3   OH223253   4.544   0.592   3.170  0.0739  0.0669  0.4925
  613TIP3    H123254   4.548   0.510   3.219 -1.2812 -0.7159 -0.6566
  613TIP3    H223255   4.515   0.656   3.235  2.2433 -0.0563  1.6886
  614TIP3   OH223256   0.040   0.577  11.513 -0.2486  0.1169 -0.5557
  614TIP3    H123257   0.077   0.599  11.599 -0.4993  0.7927 -0.6187
  614TIP3    H223258  -0.033   0.637  11.502 -0.2512 -0.0019 -1.2226
  615TIP3   OH223259   3.649   3.225   0.936  0.3260  0.0950 -0.1627
  615TIP3    H123260   3.683   3.143   0.900 -1.4525  0.6797 -3.5791
  615TIP3    H223261   3.567   3.240   0.888 -0.6780  2.6643  2.1096
  616TIP3   OH223262   2.141   1.099  12.423 -0.6921 -0.0073  0.1926
  616TIP3    H123263   2.140   1.166  12.354 -0.0901  1.2417  1.3580
  616TIP3    H223264   2.223   1.051  12.408  0.1234  1.1464  0.8286
  617TIP3   OH223265   3.017   3.080   2.241  0.6830  0.0521 -0.0896
  617TIP3    H123266   3.007   3.144   2.170 -0.1975 -0.2160 -0.2157
  617TIP3    H223267   2.956   3.010   2.219  0.6207 -0.1765  0.7817
  618TIP3   OH223268   5.388   2.129  12.165  0.5536 -0.1456 -0.9712
  618TIP3    H123269   5.357   2.149  12.076 -2.5749  0.3056  0.0793
  618TIP3    H223270   5.397   2.033  12.165  1.7213 -0.0643 -2.0516
  619TIP3   OH223271   3.127   2.836   0.381  0.4158  0.5897  0.8256
  619TIP3    H123272   3.049   2.793   0.344  1.7856 -1.8079  0.4770
  619TIP3    H223273   3.167   2.881   0.306  0.3230  0.2900  0.5923
  620TIP3   OH223274   4.007   2.559  14.730 -0.0421  0.7222 -0.3851
  620TIP3    H123275   3.979   2.650  14.729  2.9411  1.7509 -0.5334
  620TIP3    H223276   4.011   2.535  14.822  0.7519  1.3149 -0.2582
  621TIP3   OH223277   5.627   0.038   3.991  0.1407 -0.2066 -0.2111
  621TIP3    H123278   5.688   0.010   4.059 -2.3891 -1.9245  1.4809
  621TIP3    H223279   5.572   0.104   4.033 -0.6241 -0.3237 -0.9964
  622TIP3   OH223280   6.708   6.662   5.615 -0.8103  0.1709  0.3951
  622TIP3    H123281   6.700   6.571   5.644 -0.3737  0.7311  2.4381
  622TIP3    H223282   6.779   6.698   5.669 -0.4905  1.5409 -0.8811
  623TIP3   OH223283   5.043   4.985   3.176 -0.1762 -0.0531  0.2041
  623TIP3    H123284   5.059   4.971   3.083  1.0909  2.1550  0.0235
  623TIP3    H223285   4.957   5.026   3.179 -1.2602 -2.2112  0.2559
  624TIP3   OH223286   4.543   5.096   0.888 -0.5680 -0.6150  0.4397
  624TIP3    H123287   4.549   5.170   0.828 -0.1179 -0.3828  0.7664
  624TIP3    H223288   4.451   5.068   0.883 -0.3716 -1.0933 -0.9379
  625TIP3   OH223289   0.401   3.639  15.406 -0.3798 -0.3758 -0.1986
  625TIP3    H123290   0.322   3.585  15.401  0.6074 -1.8756 -0.0606
  625TIP3    H223291   0.385   3.698  15.479 -0.5239 -2.1151  1.2375
  626TIP3   OH223292   3.299   2.884  16.304 -0.1368 -0.0448  0.1250
  626TIP3    H123293   3.329   2.913  16.390  1.1703 -0.6684 -0.0944
  626TIP3    H223294   3.225   2.826  16.323  1.0701 -1.3734  0.9511
  627TIP3   OH223295   3.280   1.059   1.497 -0.5600  0.0067  0.2049
  627TIP3    H123296   3.345   1.059   1.427 -1.5396  0.9298 -0.7561
  627TIP3    H223297   3.254   0.967   1.507  0.5037 -0.2945  0.2483
  628TIP3   OH223298   0.582   6.274  11.053 -0.2179 -0.2206  0.0568
  628TIP3    H123299   0.568   6.364  11.024 -1.7003 -0.3248  0.3924
  628TIP3    H223300   0.514   6.223  11.009 -1.4397 -0.6466  2.2836
  629TIP3   OH223301   0.451   1.134   0.550 -0.2560  0.0790 -0.0286
  629TIP3    H123302   0.458   1.046   0.586  0.9609  0.7215  1.4355
  629TIP3    H223303   0.465   1.123   0.456  0.0187 -1.2634  0.1482
  630TIP3   OH223304   0.246   0.795   5.209  0.7863  0.3690 -0.3072
  630TIP3    H123305   0.207   0.871   5.166 -0.9765  0.6951  1.6933
  630TIP3    H223306   0.197   0.786   5.291  3.9486 -0.1523  1.7070
  631TIP3   OH223307   2.889   6.344  14.102 -1.0670  0.0909 -0.5243
  631TIP3    H123308   2.918   6.260  14.139  2.1840  1.1042 -0.4065
  631TIP3    H223309   2.870   6.398  14.179  1.7952  0.9436 -0.3064
  632TIP3   OH223310   6.081   1.064  11.802 -0.4654  0.0308  0.7033
  632TIP3    H123311   6.003   1.017  11.772 -2.5625  1.3234  3.6542
  632TIP3    H223312   6.098   1.029  11.889 -0.0403  2.3045  1.5996
  633TIP3   OH223313   0.594   4.141  14.788  0.3949  0.4741  0.1378
  633TIP3    H123314   0.648   4.064  14.775  1.3321  1.0897  0.2739
  633TIP3    H223315   0.507   4.115  14.759  0.8944 -0.3554 -0.6447
  634TIP3   OH223316   1.543   1.109  16.297  0.7182  0.4134  0.3957
  634TIP3    H123317   1.581   1.131  16.212 -1.3124 -0.0759 -0.6931
  634TIP3    H223318   1.619   1.090  16.353  2.1343  1.7303 -0.9963
  635TIP3   OH223319   1.234   2.601   3.713  0.2734 -0.0552  0.1824
  635TIP3    H123320   1.181   2.522   3.700  0.5410 -0.3486  0.8764
  635TIP3    H223321   1.244   2.637   3.624 -2.2750  0.7983  0.1553
  636TIP3   OH223322   4.639   6.042  11.218  0.1396  0.2789  0.4014
  636TIP3    H123323   4.586   6.009  11.145 -0.5645  0.6624  0.7216
  636TIP3    H223324   4.577   6.046  11.292  0.8801 -0.2604  1.0591
  637TIP3   OH223325   5.995   3.465   3.903 -0.3618  0.4961  0.3823
  637TIP3    H123326   6.004   3.466   3.808 -0.8156  1.2476  0.3383
  637TIP3    H223327   6.026   3.379   3.930  0.4846  0.5622 -0.3739
  638TIP3   OH223328   5.313   5.054   2.570  0.1324  0.1476  0.2017
  638TIP3    H123329   5.320   5.128   2.510 -1.0967  0.4322  0.3710
  638TIP3    H223330   5.348   5.087   2.653  0.3702  0.2637  0.0564
  639TIP3   OH223331   1.418   2.907  10.728  0.5518 -0.4801 -0.7928
  639TIP3    H123332   1.430   2.847  10.802  1.3983  0.2086 -0.3486
  639TIP3    H223333   1.499   2.898  10.678  0.6507  0.2212 -0.7652
  640TIP3   OH223334   5.423   4.053  11.689 -0.3859 -0.2018 -0.1564
  640TIP3    H123335   5.517   4.058  11.706 -0.6691 -0.0184  1.5723
  640TIP3    H223336   5.383   4.067  11.774 -2.0467  1.3807 -1.1395
  641TIP3   OH223337   3.438   5.044   6.431  0.3383  0.0387 -0.0593
  641TIP3    H123338   3.390   5.127   6.426  0.9049  0.3249 -0.9191
  641TIP3    H223339   3.463   5.037   6.523 -0.7167  0.2473  0.2479
  642TIP3   OH223340   2.210   0.949   1.447 -0.5762 -0.0383 -0.0377
  642TIP3    H123341   2.256   0.888   1.390 -0.5069 -1.0233  1.0397
  642TIP3    H223342   2.277   0.983   1.506 -1.2050 -1.7102  1.7401
  643TIP3   OH223343   4.230   4.491  15.208  0.3719  0.3335  0.0065
  643TIP3    H123344   4.259   4.527  15.291  1.3361 -2.7687  1.1635
  643TIP3    H223345   4.163   4.427  15.231  2.0166 -2.0157 -1.2895
  644TIP3   OH223346   2.552   1.071  14.590  0.0886 -0.3190  0.0267
  644TIP3    H123347   2.599   1.127  14.652 -1.6608  1.0977  0.1508
  644TIP3    H223348   2.460   1.099  14.597 -0.1630  0.1826 -3.4227
  645TIP3   OH223349   2.783   0.513  16.383 -0.2221 -0.5475  0.5953
  645TIP3    H123350   2.833   0.568  16.443  0.2330 -0.2460 -0.0472
  645TIP3    H223351   2.849   0.473  16.326 -0.6989 -0.1542 -0.2528
  646TIP3   OH223352   4.465   0.872   1.203 -0.3523 -0.1243 -0.2271
  646TIP3    H123353   4.410   0.829   1.269 -0.1745  0.3165  0.2202
  646TIP3    H223354   4.440   0.832   1.120 -1.0674 -0.2089  0.0211
  647TIP3   OH223355   2.185   0.450   2.734 -0.0858 -0.2575  0.1612
  647TIP3    H123356   2.142   0.482   2.655  2.3142  2.8260 -0.0751
  647TIP3    H223357   2.130   0.481   2.806 -0.1090  0.6047 -0.2148
  648TIP3   OH223358   2.520   5.907   4.542  0.6235 -0.2826 -0.2673
  648TIP3    H123359   2.559   5.993   4.559  0.2670  0.0648 -1.1621
  648TIP3    H223360   2.594   5.852   4.516  1.0432 -0.5872  1.4200
  649TIP3   OH223361   6.729   3.320   3.748  0.6423  0.6253  0.3417
  649TIP3    H123362   6.717   3.403   3.793  3.5584  1.5499 -0.3844
  649TIP3    H223363   6.779   3.266   3.810 -1.3553 -0.7489  0.8784
  650TIP3   OH223364   6.722   4.165  15.792  0.5971  0.1225  0.5301
  650TIP3    H123365   6.782   4.233  15.760 -1.4605  1.2462 -1.1808
  650TIP3    H223366   6.674   4.207  15.863  0.6051 -0.1955  0.7272
  651TIP3   OH223367   0.302   2.827   1.274  0.4269 -0.1067  0.3673
  651TIP3    H123368   0.334   2.795   1.189 -0.4217  0.1117 -0.0457
  651TIP3    H223369   0.271   2.748   1.319  0.2295 -0.1375  0.1823
  652TIP3   OH223370   3.916   5.087   2.360 -0.4503  0.5422  0.2218
  652TIP3    H123371   3.934   5.122   2.447  3.1445 -0.0259 -0.1582
  652TIP3    H223372   3.861   5.010   2.376  2.1838 -1.0700  2.3447
  653TIP3   OH223373   1.097   0.361  11.562  0.3854  0.8250 -0.0041
  653TIP3    H123374   1.066   0.356  11.471  1.1119 -0.5454 -0.1984
  653TIP3    H223375   1.097   0.271  11.592  3.1435  0.8511  0.3153
  654TIP3   OH223376   6.150   4.274  13.739 -0.0888  0.4977 -0.1195
  654TIP3    H123377   6.093   4.198  13.751  0.5508  0.0053 -0.1063
  654TIP3    H223378   6.170   4.275  13.645 -1.4534  1.6646 -0.4195
  655TIP3   OH223379   1.581   2.880   4.942 -0.3619  0.5269  0.4045
  655TIP3    H123380   1.567   2.902   5.034 -1.4956  2.8087 -0.2407
  655TIP3    H223381   1.610   2.789   4.943  1.2809  0.9677  3.1211
  656TIP3   OH223382   6.351   5.996  15.466  0.1265  0.9100 -0.7393
  656TIP3    H123383   6.445   6.001  15.448 -0.2726  1.9619 -2.8160
  656TIP3    H223384   6.310   5.993  15.380 -1.7124 -1.4267  0.1036
  657TIP3   OH223385   1.413   4.459  13.623  0.4871 -0.2980 -0.2576
  657TIP3    H123386   1.426   4.523  13.692  1.3787 -0.5182 -0.2139
  657TIP3    H223387   1.367   4.386  13.666  1.0048 -0.4188  0.0972
  658TIP3   OH223388   0.066   1.158   1.013  0.8063  0.2516  0.0966
  658TIP3    H123389   0.025   1.084   1.058  1.7664  0.0285  0.6221
  658TIP3    H223390   0.074   1.226   1.080  0.7218  0.5218 -0.1640
  659TIP3   OH223391   2.786   3.242  14.499 -0.0888 -0.0040 -0.6466
  659TIP3    H123392   2.752   3.328  14.473 -1.4652 -0.7635 -1.4859
  659TIP3    H223393   2.755   3.230  14.589  0.9803  0.7980 -0.1612
  660TIP3   OH223394   2.602   0.992  12.813  0.1918 -0.4845 -0.0817
  660TIP3    H123395   2.598   1.082  12.845  0.3461 -0.7041  0.5656
  660TIP3    H223396   2.696   0.975  12.801  0.1036 -0.0080 -1.8292
  661TIP3   OH223397   0.515   6.185   3.973 -0.0654  0.3471  0.2873
  661TIP3    H123398   0.430   6.225   3.989  0.5417  2.0339 -0.4746
  661TIP3    H223399   0.508   6.098   4.012 -1.7960  0.8027  1.1063
  662TIP3   OH223400   6.238   6.749   2.683 -0.2074  0.1463  0.3728
  662TIP3    H123401   6.153   6.725   2.720 -0.8854  0.2534 -1.0601
  662TIP3    H223402   6.301   6.694   2.730 -1.3837 -2.1324 -0.5772
  663TIP3   OH223403   3.734   2.728  15.156  0.1560 -0.4949  0.2782
  663TIP3    H123404   3.792   2.791  15.113 -1.8231  0.1440 -1.5980
  663TIP3    H223405   3.646   2.751  15.127 -1.3002 -0.6433  3.9304
  664TIP3   OH223406   3.728   6.041   2.535 -0.1981  0.4922 -0.3947
  664TIP3    H123407   3.702   5.953   2.566 -0.4458  0.6524 -0.1386
  664TIP3    H223408   3.690   6.100   2.600  0.0268  0.7851 -0.5339
  665TIP3   OH223409   4.201   2.168   2.853  0.4474  0.7001  0.3082
  665TIP3    H123410   4.257   2.121   2.791 -0.1191 -1.2011  1.1654
  665TIP3    H223411   4.244   2.157   2.938 -0.1582  0.9833  0.6622
  666TIP3   OH223412   3.343   2.597  10.580 -0.2129 -0.1903  0.0916
  666TIP3    H123413   3.287   2.542  10.525 -0.9501  0.1563  0.4771
  666TIP3    H223414   3.302   2.594  10.666  0.3833  0.0528  0.3853
  667TIP3   OH223415   5.303   5.832  15.429 -0.4469  0.4039  0.5188
  667TIP3    H123416   5.374   5.839  15.493  0.6961 -1.6160 -0.4229
  667TIP3    H223417   5.251   5.757  15.458 -0.2316 -0.1921 -0.5790
  668TIP3   OH223418   5.333   6.329   6.412  0.0012  0.5527 -0.0089
  668TIP3    H123419   5.326   6.420   6.384 -1.7512  0.0241 -1.4865
  668TIP3    H223420   5.312   6.278   6.333 -0.7570 -1.0967  1.2076
  669TIP3   OH223421   1.471   1.266  11.043 -0.3670  0.2083  0.4794
  669TIP3    H123422   1.403   1.305  10.988  0.4345  0.5300 -0.3065
  669TIP3    H223423   1.454   1.172  11.040  2.3162 -0.4320 -4.2136
  670TIP3   OH223424   3.830   5.884   1.682  0.4589 -0.0976  0.2988
  670TIP3    H123425   3.779   5.840   1.750 -1.1582 -1.4495 -1.6711
  670TIP3    H223426   3.812   5.977   1.695 -1.8835 -0.4825  0.2123
  671TIP3   OH223427   2.782   4.880  14.494  0.4047  0.8864 -0.1467
  671TIP3    H123428   2.784   4.833  14.577  2.6928 -0.4637 -0.8606
  671TIP3    H223429   2.710   4.839  14.445  0.7442 -0.1646  0.2029
  672TIP3   OH223430   6.189   1.571  15.758 -0.1774 -0.4248  0.1989
  672TIP3    H123431   6.232   1.566  15.844 -0.0877 -1.6085  0.0961
  672TIP3    H223432   6.109   1.621  15.775  0.0712 -0.2446  0.8821
  673TIP3   OH223433   3.553   5.000   6.688 -0.0677  0.1782  0.2684
  673TIP3    H123434   3.499   4.937   6.737  0.2153 -0.4893 -0.2698
  673TIP3    H223435   3.639   4.958   6.681  0.1019  0.5885 -0.1668
  674TIP3   OH223436   0.693   1.475   4.263  0.1195  0.2618  0.1407
  674TIP3    H123437   0.696   1.468   4.358 -0.5101 -1.2916  0.0799
  674TIP3    H223438   0.775   1.433   4.233 -0.8811 -1.6952 -0.0441
  675TIP3   OH223439   3.781   6.021  14.289 -0.1582  0.4624 -0.0383
  675TIP3    H123440   3.840   5.988  14.357  0.6776  1.1020 -0.4323
  675TIP3    H223441   3.837   6.037  14.214 -0.7193  1.6593 -0.2347
  676TIP3   OH223442   4.723   2.021   2.206  0.1897 -0.3470 -0.2215
  676TIP3    H123443   4.742   1.980   2.291 -1.1036  0.8491  0.6995
  676TIP3    H223444   4.740   1.953   2.142  1.3829 -1.2317  0.9909
  677TIP3   OH223445   3.987   4.746  15.134  0.0124 -0.1189  0.1038
  677TIP3    H123446   4.060   4.807  15.139 -0.5068  0.4372  1.6307
  677TIP3    H223447   4.027   4.659  15.146  0.5064  0.1243  0.2425
  678TIP3   OH223448   1.009   1.769   3.606  0.4688  0.2177  0.7807
  678TIP3    H123449   0.978   1.702   3.545 -0.2009  0.9649  0.2829
  678TIP3    H223450   1.012   1.725   3.691 -0.6473 -0.2506  0.5896
  679TIP3   OH223451   6.581   2.378   2.870  0.6121 -0.0416  0.5830
  679TIP3    H123452   6.660   2.433   2.870  0.7732 -0.2689  0.9329
  679TIP3    H223453   6.564   2.362   2.963  1.1785 -1.4647  0.4546
  680TIP3   OH223454   1.622   2.283  14.817  0.1903 -0.5111  0.5699
  680TIP3    H123455   1.690   2.317  14.876  0.3384 -1.6020  1.0575
  680TIP3    H223456   1.645   2.317  14.731 -0.3202  1.5511  1.1939
  681TIP3   OH223457   3.271   5.925  16.881 -0.2519  0.4416  0.1810
  681TIP3    H123458   3.184   5.946  16.914 -0.0739  0.5352  0.5961
  681TIP3    H223459   3.331   5.974  16.937 -0.0021  1.8154 -1.2163
  682TIP3   OH223460   1.053   2.256  17.062 -0.2131  0.4606  0.4583
  682TIP3    H123461   0.997   2.333  17.057  0.8219  1.1406 -1.4252
  682TIP3    H223462   1.081   2.253  17.153 -2.5617  0.5776  1.2720
  683TIP3   OH223463   1.966   0.479  13.506  0.9458  0.0955  0.3173
  683TIP3    H123464   2.051   0.444  13.477 -0.3329 -2.0637 -1.0854
  683TIP3    H223465   1.913   0.402  13.523 -0.7037  1.4017  1.3917
  684TIP3   OH223466   1.059   6.060  13.840 -0.4463  0.5352  0.1782
  684TIP3    H123467   1.006   6.115  13.781 -1.1858  0.0152  0.3532
  684TIP3    H223468   1.075   5.980  13.790 -2.5651 -0.6502  1.2906
  685TIP3   OH223469   4.217   1.601  17.424 -0.0218  0.1724 -0.0510
  685TIP3    H123470   4.229   1.507  17.435 -0.8431  0.1242  0.4609
  685TIP3    H223471   4.181   1.631  17.507 -1.9113  0.5564 -0.9478
  686TIP3   OH223472   2.381   0.380   4.117 -0.7568  0.4028 -0.7309
  686TIP3    H123473   2.447   0.422   4.173  0.9746  0.4265 -2.6586
  686TIP3    H223474   2.431   0.316   4.065 -2.3454  0.0465 -1.8967
  687TIP3   OH223475   3.900   5.999  14.001 -0.1113  0.0862  0.5101
  687TIP3    H123476   3.853   6.016  13.920 -0.3399  1.3565  0.8796
  687TIP3    H223477   3.879   6.075  14.057 -1.1706 -1.4367  2.3086
  688TIP3   OH223478   0.935   0.981   3.796  0.6433 -0.4614 -0.1406
  688TIP3    H123479   1.010   1.003   3.852 -0.2576 -0.3179  1.0482
  688TIP3    H223480   0.974   0.961   3.711  1.7701  3.2224 -0.6567
  689TIP3   OH223481   5.844   1.393  11.418 -0.0707  0.5124  0.3541
  689TIP3    H123482   5.824   1.458  11.485  2.5271  2.7846 -0.8756
  689TIP3    H223483   5.821   1.435  11.335 -0.3514 -1.0153 -0.3907
  690TIP3   OH223484   4.254   1.794  12.166 -0.1204 -0.0060 -0.3904
  690TIP3    H123485   4.260   1.768  12.073  0.0711 -2.1036  0.1471
  690TIP3    H223486   4.229   1.713  12.211 -0.9964  1.1700  1.3110
  691TIP3   OH223487   4.163   6.268   5.214  0.2265  0.4796 -0.3770
  691TIP3    H123488   4.198   6.184   5.185  1.0604  0.5470  0.3721
  691TIP3    H223489   4.215   6.290   5.291 -0.8368  1.0679  0.2060
  692TIP3   OH223490   4.472   6.675  13.442 -0.7633  0.4428 -0.0709
  692TIP3    H123491   4.379   6.657  13.455 -0.4807 -0.8433  0.2669
  692TIP3    H223492   4.497   6.618  13.370  0.0147 -0.0647  0.5859
  693TIP3   OH223493   2.249   1.688  15.022  0.0354  0.3006 -0.0217
  693TIP3    H123494   2.277   1.608  14.977  1.0757  0.2638  0.6676
  693TIP3    H223495   2.304   1.757  14.987 -0.4895  0.6257 -0.2178
  694TIP3   OH223496   0.003   3.197  14.239 -0.0966 -0.2791  0.4975
  694TIP3    H123497  -0.054   3.144  14.295 -1.7723  0.5201 -0.3572
  694TIP3    H223498  -0.056   3.260  14.197  1.0934 -0.5995 -1.8792
  695TIP3   OH223499   5.131   4.348  13.281  0.0707  0.4281 -0.0163
  695TIP3    H123500   5.036   4.340  13.272  0.0289  0.9880 -0.0813
  695TIP3    H223501   5.144   4.437  13.313  0.5376  0.1582  0.5539
  696TIP3   OH223502   4.145   6.636   5.730  0.1773 -0.1328 -0.3167
  696TIP3    H123503   4.076   6.630   5.795 -0.0624 -0.8187 -0.6323
  696TIP3    H223504   4.166   6.546   5.707  1.3375  0.0534 -0.0660
  697TIP3   OH223505   4.170   2.515   1.841  0.2821 -0.9235  0.5595
  697TIP3    H123506   4.176   2.442   1.780 -0.8071 -0.3090 -0.3051
  697TIP3    H223507   4.170   2.474   1.927  1.0412 -1.8446  0.1439
  698TIP3   OH223508   3.003   0.012   0.339 -0.4492  0.2670  0.1883
  698TIP3    H123509   3.094  -0.006   0.316 -0.6839  0.2954 -0.7858
  698TIP3    H223510   3.007   0.046   0.428  0.3583 -1.1124  0.7068
  699TIP3   OH223511   4.694   0.085   5.003 -0.5428 -0.2204 -0.6546
  699TIP3    H123512   4.635   0.041   5.064 -1.8160 -1.0531 -2.4007
  699TIP3    H223513   4.762   0.020   4.985  0.7774  0.6052  1.0639
  700TIP3   OH223514   5.779   1.048   5.342 -0.7722 -0.0010 -0.0071
  700TIP3    H123515   5.707   1.053   5.279 -0.0024  0.5338 -0.8887
  700TIP3    H223516   5.842   0.988   5.302 -0.5810 -0.2133  0.6003
  701TIP3   OH223517   2.047   3.479   1.527  0.2089  0.6237 -0.8979
  701TIP3    H123518   2.010   3.391   1.538 -0.2028  0.8846 -0.1420
  701TIP3    H223519   2.121   3.466   1.467 -0.0308 -0.1864 -1.0398
  702TIP3   OH223520   6.298   3.021   5.170 -0.2423  0.0339  0.0155
  702TIP3    H123521   6.314   3.109   5.204  0.6429 -0.3017  0.5209
  702TIP3    H223522   6.204   3.007   5.182 -0.5114  1.1643 -0.7167
  703TIP3   OH223523   6.567   0.067  16.624  0.4210 -0.3362  0.4740
  703TIP3    H123524   6.535   0.155  16.606  1.9212  0.7121  2.4361
  703TIP3    H223525   6.546   0.053  16.717  1.0388 -1.6602  0.4384
  704TIP3   OH223526   4.395   5.716   0.723  0.1547 -0.1974  0.2626
  704TIP3    H123527   4.415   5.768   0.645  1.3484 -1.3662 -0.2514
  704TIP3    H223528   4.423   5.770   0.797 -0.5874  0.7456 -0.1241
  705TIP3   OH223529   0.986   0.899   1.351  0.2056 -0.4687 -0.2613
  705TIP3    H123530   1.042   0.957   1.299 -0.4313 -0.4107 -0.8989
  705TIP3    H223531   0.959   0.953   1.425 -2.1108  0.8354 -1.9174
  706TIP3   OH223532   5.699   6.293   5.494  0.1140  0.3509  0.4140
  706TIP3    H123533   5.771   6.321   5.551  1.1265  0.9898 -1.1015
  706TIP3    H223534   5.737   6.222   5.441 -0.2882  0.8144 -0.5242
  707TIP3   OH223535   2.793   4.535  15.995 -1.0664 -0.4332  0.3614
  707TIP3    H123536   2.831   4.580  16.071 -1.5868  0.1935  0.2559
  707TIP3    H223537   2.795   4.442  16.019 -0.5669 -0.3003  0.8459
  708TIP3   OH223538   4.739   5.078  13.441  0.0519 -0.5402  0.2540
  708TIP3    H123539   4.727   5.159  13.391  1.8255 -0.5458 -0.2480
  708TIP3    H223540   4.693   5.011  13.390  0.8410 -0.3261 -0.7797
  709TIP3   OH223541   1.470   5.183   2.247 -0.3053 -0.2735 -0.3038
  709TIP3    H123542   1.563   5.202   2.243 -0.1705 -1.0815 -1.4360
  709TIP3    H223543   1.432   5.231   2.173 -0.7350 -0.2808 -0.0962
  710TIP3   OH223544   2.362   6.475  15.659  0.1413  0.3603 -0.1413
  710TIP3    H123545   2.408   6.504  15.580  0.2835 -2.6105 -1.2612
  710TIP3    H223546   2.270   6.495  15.642  0.3570  1.1893 -0.3600
  711TIP3   OH223547   1.530   6.446   2.676  0.3136  0.2090 -0.0575
  711TIP3    H123548   1.520   6.352   2.688  0.1627  0.4603  2.2295
  711TIP3    H223549   1.441   6.481   2.677  0.3796  0.3975 -0.6644
  712TIP3   OH223550   1.203   5.160   4.210  0.5143  0.2344  0.3033
  712TIP3    H123551   1.257   5.205   4.145  0.3494  0.1574  0.1090
  712TIP3    H223552   1.128   5.129   4.160  1.3697 -1.6252  0.0901
  713TIP3   OH223553   5.052   4.378  11.209 -0.6644  0.6636 -0.1777
  713TIP3    H123554   5.035   4.317  11.138  0.8836 -0.1457  0.0930
  713TIP3    H223555   5.141   4.356  11.238 -1.0500  1.3415  1.6327
  714TIP3   OH223556   2.246   5.523   2.378  0.2116  0.2483  0.0276
  714TIP3    H123557   2.263   5.488   2.291  1.5014 -0.1230  0.3997
  714TIP3    H223558   2.151   5.533   2.382  0.0738 -0.3598 -1.1690
  715TIP3   OH223559   4.015   5.934  10.851  0.0878  0.0739  0.7846
  715TIP3    H123560   3.956   5.977  10.789  3.3170 -1.0236 -3.5461
  715TIP3    H223561   3.977   5.847  10.864 -0.1615 -0.0419 -0.5677
  716TIP3   OH223562   3.825   1.440  15.586  0.6415  0.0003  0.3872
  716TIP3    H123563   3.904   1.386  15.582 -0.0694 -1.1102  0.8904
  716TIP3    H223564   3.850   1.522  15.543  3.0737  0.9655  3.2277
  717TIP3   OH223565   6.474   0.351   2.753  0.3627  0.4294 -0.0742
  717TIP3    H123566   6.453   0.413   2.823  1.1179  0.2038  0.3606
  717TIP3    H223567   6.566   0.368   2.733  0.1677  0.4677 -0.9957
  718TIP3   OH223568   2.600   1.113   4.716  0.2814 -1.0500  0.2626
  718TIP3    H123569   2.603   1.090   4.624  1.4423  0.5383 -0.1409
  718TIP3    H223570   2.689   1.140   4.737 -0.4370  0.6965  1.2701
  719TIP3   OH223571   3.056   0.788   2.055 -0.7324 -0.5757 -0.2048
  719TIP3    H123572   3.138   0.824   2.088  1.0770 -1.0088 -3.7340
  719TIP3    H223573   3.015   0.747   2.131  2.3845 -0.5027  1.6794
  720TIP3   OH223574   1.730   1.920  16.729  0.7314 -0.2935 -0.0295
  720TIP3    H123575   1.708   1.829  16.749  0.8268 -0.3653 -0.2397
  720TIP3    H223576   1.703   1.969  16.806 -1.3562 -0.1954 -0.7432
  721TIP3   OH223577   2.344   0.958   2.289  0.0783  0.4470  0.1137
  721TIP3    H123578   2.300   0.876   2.267 -2.1417  0.8345  2.6267
  721TIP3    H223579   2.300   1.024   2.235  0.5838  0.2891 -0.5155
  722TIP3   OH223580   4.292   1.725  12.776 -0.5185  0.0996  0.4359
  722TIP3    H123581   4.357   1.666  12.814 -1.5608 -1.2022  0.2609
  722TIP3    H223582   4.344   1.790  12.729  0.6663 -1.7831 -1.0192
  723TIP3   OH223583   2.188   5.664   5.782 -0.6814  0.0125 -0.1501
  723TIP3    H123584   2.157   5.753   5.794 -0.3917  0.2296 -0.9658
  723TIP3    H223585   2.110   5.614   5.757 -0.8294  0.0462  0.2384
  724TIP3   OH223586   6.746   2.735  15.054  0.3020 -0.1888  0.3238
  724TIP3    H123587   6.769   2.828  15.056  1.0169 -0.3660  1.3496
  724TIP3    H223588   6.825   2.692  15.020  0.9300 -0.6467  2.2613
  725TIP3   OH223589   1.862   2.881   3.384  0.5444  0.1636  0.2212
  725TIP3    H123590   1.782   2.828   3.375 -0.2888  1.2207  1.1247
  725TIP3    H223591   1.852   2.951   3.321  1.0909 -0.0861 -0.1445
  726TIP3   OH223592   0.639   1.967  16.965  0.3338  0.0389  0.1564
  726TIP3    H123593   0.709   1.907  16.940 -0.8936 -1.0752 -0.7451
  726TIP3    H223594   0.664   1.999  17.052  1.6849 -0.7419  0.0655
  727TIP3   OH223595   6.049   5.140   5.561  0.0309  0.0033 -0.2818
  727TIP3    H123596   6.077   5.073   5.623 -0.0670  1.7441  1.7478
  727TIP3    H223597   6.062   5.223   5.607 -1.4366  1.3134 -2.0593
  728TIP3   OH223598   1.292   4.665  17.289  0.1142 -0.4235 -0.0154
  728TIP3    H123599   1.357   4.669  17.218  0.1619 -1.0695 -0.0128
  728TIP3    H223600   1.224   4.606  17.256 -1.6379  1.9792 -0.9675
  729TIP3   OH223601   1.513   5.937  14.417 -0.4502  0.2440 -0.0367
  729TIP3    H123602   1.516   6.032  14.406 -0.0371  0.2794  0.3885
  729TIP3    H223603   1.539   5.903  14.331  0.3275  0.5221  0.0773
  730TIP3   OH223604   0.441   2.374  11.546  0.2136  0.0537  0.0836
  730TIP3    H123605   0.498   2.339  11.477  0.4870  1.0105 -0.1910
  730TIP3    H223606   0.358   2.328  11.534  0.7645 -1.0054  0.1821
  731TIP3   OH223607   6.223   2.999   0.214  0.3448  0.5429  0.2452
  731TIP3    H123608   6.310   3.031   0.240  0.2685  0.1216  1.0424
  731TIP3    H223609   6.165   3.026   0.285 -0.4713  2.0501 -0.9319
  732TIP3   OH223610   1.007   4.700  12.212  0.4099  0.1445 -0.0894
  732TIP3    H123611   0.989   4.609  12.231 -0.8290  0.5836  0.9851
  732TIP3    H223612   1.033   4.738  12.296  1.0696  0.7397 -0.5543
  733TIP3   OH223613   1.804   2.055   3.503 -0.5466 -0.3275  0.0147
  733TIP3    H123614   1.825   2.147   3.486 -0.0133  0.0688  2.4647
  733TIP3    H223615   1.859   2.006   3.442  0.5277  0.9231 -0.0547
  734TIP3   OH223616   6.377   0.176   3.917  0.1351  0.6449 -0.3273
  734TIP3    H123617   6.284   0.154   3.909  0.3226 -0.5605  0.4864
  734TIP3    H223618   6.392   0.181   4.012  0.8077  1.2819 -0.4573
  735TIP3   OH223619   4.013   0.386   1.573 -0.2877 -0.5744  0.5594
  735TIP3    H123620   3.954   0.450   1.532 -1.8210 -1.2086  1.6556
  735TIP3    H223621   4.049   0.337   1.499 -1.9948 -0.8598 -0.1493
  736TIP3   OH223622   5.642   5.089  13.204  0.4267  0.1359 -0.2986
  736TIP3    H123623   5.697   5.095  13.282  0.4167 -0.9143 -0.1992
  736TIP3    H223624   5.553   5.086  13.238  0.4765 -2.2508 -0.1807
  737TIP3   OH223625   4.886   4.044  14.377  0.5845 -0.1084  0.5843
  737TIP3    H123626   4.878   4.016  14.286 -0.1495 -0.5011  0.7645
  737TIP3    H223627   4.979   4.034  14.397  0.6842 -0.3837 -0.0015
  738TIP3   OH223628   0.649   5.550   6.441  0.3102 -0.0616 -0.1821
  738TIP3    H123629   0.659   5.611   6.369  1.6162 -1.0479 -0.8785
  738TIP3    H223630   0.619   5.603   6.515 -0.2668  1.0904 -1.2355
  739TIP3   OH223631   1.045   2.689   2.306 -0.3926 -0.2306 -0.0127
  739TIP3    H123632   1.130   2.647   2.321 -0.5585 -0.8106 -0.6737
  739TIP3    H223633   1.066   2.765   2.252 -0.3245 -0.5321 -0.4160
  740TIP3   OH223634   1.803   4.404   5.552  0.2502 -0.0589 -0.0893
  740TIP3    H123635   1.783   4.459   5.476  0.9377 -0.2574 -0.4183
  740TIP3    H223636   1.893   4.427   5.575  0.7139 -1.3938 -0.5224
  741TIP3   OH223637   0.371   2.008  13.637 -0.2796  0.0905 -0.6100
  741TIP3    H123638   0.417   2.023  13.554  1.7140  0.4035  0.4855
  741TIP3    H223639   0.356   2.096  13.672 -0.0805 -0.0724 -0.1124
  742TIP3   OH223640   5.177   2.743   2.966  0.4451  0.0231 -0.4663
  742TIP3    H123641   5.168   2.838   2.963  2.9488  0.3631  0.6176
  742TIP3    H223642   5.139   2.717   3.050  0.8173  0.2025 -0.2449
  743TIP3   OH223643   3.258   6.541  10.811  0.1166 -0.1724 -0.3631
  743TIP3    H123644   3.352   6.519  10.808  1.7343  4.9228  1.7864
  743TIP3    H223645   3.222   6.482  10.877  2.5474 -0.2850  0.9870
  744TIP3   OH223646   3.909   5.840   6.155  0.0039  0.3144 -0.5979
  744TIP3    H123647   3.827   5.889   6.144 -1.4223 -1.8637 -0.3191
  744TIP3    H223648   3.902   5.801   6.242  0.1737 -1.8327 -1.4878
  745TIP3   OH223649   2.298   4.018   0.667  0.3192  0.3222  0.0275
  745TIP3    H123650   2.312   4.020   0.762 -0.7538 -2.0259  0.3143
  745TIP3    H223651   2.203   4.029   0.657  0.6948  3.7525 -1.0594
  746TIP3   OH223652   4.005   1.568  16.146 -0.4579 -0.5126 -0.1654
  746TIP3    H123653   3.929   1.584  16.202 -1.3397  1.1959 -1.7173
  746TIP3    H223654   3.978   1.496  16.089 -0.2374 -1.0709  0.4313
  747TIP3   OH223655   0.833   2.271   2.300 -0.0331  0.0568 -0.1114
  747TIP3    H123656   0.828   2.205   2.230 -3.1460 -0.1764  0.1779
  747TIP3    H223657   0.843   2.354   2.255 -1.2298 -0.1683 -0.8301
  748TIP3   OH223658   4.512   6.487  14.355  0.0960  0.2318 -0.0196
  748TIP3    H123659   4.528   6.579  14.333  1.8110  0.0479  0.3226
  748TIP3    H223660   4.426   6.487  14.396  1.0451  2.1146  2.2008
  749TIP3   OH223661   0.394   1.838   2.114 -0.3389 -0.2655  0.3439
  749TIP3    H123662   0.315   1.792   2.144 -1.8269  0.6775 -1.8163
  749TIP3    H223663   0.426   1.785   2.040 -0.2134  0.4679 -0.1365
  750TIP3   OH223664   4.578   3.874   6.546 -0.1377 -0.3551 -0.1521
  750TIP3    H123665   4.497   3.923   6.528 -0.3898  0.0969  1.9290
  750TIP3    H223666   4.610   3.911   6.628  1.6624 -1.2211 -0.4250
  751TIP3   OH223667   4.756   4.872  16.293  0.0392 -0.2105  0.0806
  751TIP3    H123668   4.680   4.930  16.284 -1.3702 -2.1130 -0.8769
  751TIP3    H223669   4.798   4.874  16.207  1.1381  0.8815  0.6261
  752TIP3   OH223670   6.460   3.623   1.660  0.4647  0.3547  0.3501
  752TIP3    H123671   6.505   3.543   1.685 -0.9028  0.0112  1.9364
  752TIP3    H223672   6.465   3.679   1.738 -1.7458  0.2986  0.6020
  753TIP3   OH223673   4.081   1.021   1.937  0.3079 -0.0482 -0.1295
  753TIP3    H123674   4.158   1.020   1.993 -0.3574  0.3884  0.8079
  753TIP3    H223675   4.097   1.093   1.875  0.7253 -0.0648 -0.0373
  754TIP3   OH223676   5.570   4.664  14.086  0.2092 -0.3667  0.2937
  754TIP3    H123677   5.580   4.691  13.994  2.0279 -1.6644  0.0464
  754TIP3    H223678   5.480   4.633  14.092 -0.9793  2.6974 -0.1751
  755TIP3   OH223679   1.691   0.343   4.248 -0.9086 -0.1879 -0.5289
  755TIP3    H123680   1.694   0.252   4.277  0.1480  0.2020  0.6833
  755TIP3    H223681   1.702   0.339   4.153 -0.1613 -1.2854 -0.4057
  756TIP3   OH223682   1.887   5.845  16.794 -0.2305  0.2604  0.0432
  756TIP3    H123683   1.866   5.763  16.839  1.2448  0.7342  1.7154
  756TIP3    H223684   1.828   5.910  16.834  0.0405  0.3962  0.2274
  757TIP3   OH223685   4.355   0.484   0.480 -0.1262 -0.3066 -0.0525
  757TIP3    H123686   4.277   0.515   0.526  0.6852  1.8131  0.0096
  757TIP3    H223687   4.376   0.400   0.521 -1.3529 -0.0679  1.1243
  758TIP3   OH223688   6.249   2.512   4.782  0.1969 -0.1212  0.0222
  758TIP3    H123689   6.198   2.587   4.751 -0.3228 -0.7008 -0.5495
  758TIP3    H223690   6.336   2.548   4.801 -0.3737  0.8487  0.8533
  759TIP3   OH223691   4.080   4.235   5.506 -0.2222 -0.2251  0.1573
  759TIP3    H123692   4.109   4.325   5.490  1.5290 -0.8007 -0.1820
  759TIP3    H223693   4.128   4.183   5.441  0.3043 -1.6119  1.5991
  760TIP3   OH223694   2.265   2.958   4.434  0.9266 -0.1477  0.7450
  760TIP3    H123695   2.292   2.867   4.447  0.7518 -0.2020  0.7350
  760TIP3    H223696   2.347   3.007   4.428  1.0347 -0.0472  2.5357
  761TIP3   OH223697   2.398   6.460  12.227 -0.4825 -0.4109  0.0749
  761TIP3    H123698   2.325   6.483  12.284 -0.8905  0.2216 -0.6843
  761TIP3    H223699   2.423   6.371  12.254 -1.0129 -0.3285  0.8624
  762TIP3   OH223700   0.964   0.433   5.965 -0.1805  1.2252 -0.3006
  762TIP3    H123701   0.979   0.525   5.943  3.7404  1.0312  0.8049
  762TIP3    H223702   1.020   0.385   5.904  0.8090 -0.0854  1.5333
  763TIP3   OH223703   6.023   0.124  14.140  0.1259 -0.0424  0.0635
  763TIP3    H123704   5.940   0.079  14.152  0.3850 -0.5913 -0.1584
  763TIP3    H223705   6.037   0.172  14.222  0.0123 -0.6479  0.4407
  764TIP3   OH223706   4.037   1.404  16.775  0.2093  0.3527 -0.3733
  764TIP3    H123707   4.087   1.341  16.825  0.0204  0.6605  0.2209
  764TIP3    H223708   4.096   1.434  16.706  0.3145 -0.4236 -0.6217
  765TIP3   OH223709   5.306   4.840  15.527 -0.5406 -0.2057  0.0431
  765TIP3    H123710   5.301   4.785  15.606 -2.0373  1.0397  0.8774
  765TIP3    H223711   5.399   4.843  15.506  0.2263  1.1309  3.0327
  766TIP3   OH223712   6.003   5.359   3.305  0.0595  0.3008 -0.3392
  766TIP3    H123713   5.957   5.363   3.220  1.7658 -0.8750 -1.3889
  766TIP3    H223714   6.019   5.450   3.328 -0.3990  0.6412 -1.2937
  767TIP3   OH223715   3.722   3.995  14.047  0.0774  0.1982  0.4497
  767TIP3    H123716   3.671   3.915  14.033 -0.1306 -0.0934  2.5409
  767TIP3    H223717   3.782   3.998  13.973  1.2920 -2.8513  1.1526
  768TIP3   OH223718   0.764   6.684   4.168 -0.7654  0.2806  0.3936
  768TIP3    H123719   0.743   6.774   4.144 -1.0379  0.1957  0.3072
  768TIP3    H223720   0.851   6.689   4.206 -0.6314  0.5282  0.0587
  769TIP3   OH223721   3.894   0.579   2.349  0.0466  0.0763 -0.3607
  769TIP3    H123722   3.903   0.609   2.439 -2.8852 -2.3564  0.9398
  769TIP3    H223723   3.971   0.524   2.334  0.2695  0.0204  0.8928
  770TIP3   OH223724   1.045   2.578  13.895 -0.2917  0.1022  0.2066
  770TIP3    H123725   1.065   2.532  13.813 -0.7874  0.1095  0.0721
  770TIP3    H223726   1.029   2.508  13.958  0.1396  0.0968  0.3063
  771TIP3   OH223727   5.443   0.723  17.268  0.5637 -0.0140  0.6194
  771TIP3    H123728   5.370   0.695  17.324 -0.5761  0.5409 -0.5227
  771TIP3    H223729   5.404   0.786  17.208  2.1869  0.8957  0.4715
  772TIP3   OH223730   4.075   6.464  14.315 -0.1114 -0.8002  0.6040
  772TIP3    H123731   4.097   6.412  14.238  0.4852  1.1020 -0.5876
  772TIP3    H223732   3.992   6.506  14.293  0.0488 -0.2611  1.0085
  773TIP3   OH223733   2.582   2.618  11.687  0.0476 -0.3078  0.1724
  773TIP3    H123734   2.616   2.636  11.775 -0.3057 -0.5828  0.3646
  773TIP3    H223735   2.641   2.667  11.629  0.5066 -0.4193  0.5324
  774TIP3   OH223736   4.185   3.945  14.594 -0.0622 -0.3490 -0.3804
  774TIP3    H123737   4.269   3.964  14.634 -0.9939 -0.2331  1.6509
  774TIP3    H223738   4.206   3.909  14.508  2.0725 -1.1182  0.4150
  775TIP3   OH223739   4.435   5.801  13.855 -0.8051 -0.3557  0.3540
  775TIP3    H123740   4.506   5.864  13.842  0.0268 -1.3048  0.1726
  775TIP3    H223741   4.365   5.851  13.896 -0.5583  0.9305 -0.7432
  776TIP3   OH223742   0.003   1.473  15.776 -0.4825  0.3519 -0.0231
  776TIP3    H123743   0.075   1.529  15.749  0.2611  0.0451  1.2091
  776TIP3    H223744  -0.051   1.528  15.832 -0.2965  0.1218  0.3857
  777TIP3   OH223745   6.168   2.589   5.276  0.0781  0.1174 -0.1406
  777TIP3    H123746   6.209   2.657   5.329  1.0850 -1.5478  1.3290
  777TIP3    H223747   6.240   2.551   5.225 -0.2984 -0.3777 -0.3125
  778TIP3   OH223748   0.359   5.455  11.897 -0.0470 -0.1910  0.1503
  778TIP3    H123749   0.435   5.495  11.939  0.8849 -0.2747 -1.4040
  778TIP3    H223750   0.288   5.467  11.960  1.2138 -0.0149  1.5861
  779TIP3   OH223751   1.711   0.484  10.987  0.0391 -0.4863 -0.2642
  779TIP3    H123752   1.722   0.392  10.961  0.6671 -0.2701 -0.7896
  779TIP3    H223753   1.653   0.521  10.920  0.0422 -0.4223 -0.2306
  780TIP3   OH223754   3.459   4.811  11.222  0.1975 -0.6872 -0.0174
  780TIP3    H123755   3.436   4.901  11.198 -0.5618 -1.1229 -0.9880
  780TIP3    H223756   3.460   4.764  11.139  0.2174 -1.6530  0.5239
  781TIP3   OH223757   1.108   4.937  16.783  0.1235  0.1943 -0.8333
  781TIP3    H123758   1.083   4.954  16.874 -0.0843  1.7654 -1.1734
  781TIP3    H223759   1.178   4.871  16.791  0.1825  0.3722  0.4645
  782TIP3   OH223760   1.025   1.949  11.908  0.2947  0.1682 -0.0469
  782TIP3    H123761   1.039   2.001  11.829  1.7537 -0.1383 -0.0142
  782TIP3    H223762   0.947   1.988  11.949 -0.7982  0.0020 -1.8739
  783TIP3   OH223763   3.036   5.283   5.394 -0.2919  0.0805 -0.2624
  783TIP3    H123764   2.975   5.326   5.455 -0.6944 -1.1198  0.2176
  783TIP3    H223765   3.103   5.245   5.450 -0.8764 -1.3772 -0.5021
  784TIP3   OH223766   2.772   1.104   5.973 -0.5285  0.1650 -0.1663
  784TIP3    H123767   2.791   1.095   6.066 -0.8346  0.1957 -0.1020
  784TIP3    H223768   2.677   1.112   5.967 -0.4312  1.6147 -0.3563
  785TIP3   OH223769   4.006   6.527  11.664  0.2695  0.2756  0.0390
  785TIP3    H123770   4.099   6.548  11.656  0.0597  1.4220  0.4353
  785TIP3    H223771   3.968   6.604  11.707 -0.8003 -0.3296  0.1967
  786TIP3   OH223772   4.577   0.245   1.059 -0.3128  0.4338 -0.2638
  786TIP3    H123773   4.558   0.331   1.097 -0.5711  0.1572  0.2331
  786TIP3    H223774   4.594   0.264   0.966  1.1802  1.2241  0.1401
  787TIP3   OH223775   0.696   6.087   5.885  0.3488 -0.7048 -0.0713
  787TIP3    H123776   0.663   6.162   5.836  0.4820 -0.4341  0.2451
  787TIP3    H223777   0.622   6.027   5.890 -0.5205  0.4075  1.6638
  788TIP3   OH223778   4.778   5.973   5.565  0.0415  0.5080  0.1309
  788TIP3    H123779   4.870   5.968   5.590  0.5855  2.7484 -1.2098
  788TIP3    H223780   4.731   5.936   5.640  2.0082 -1.0634  0.6646
  789TIP3   OH223781   3.084   3.644  10.981 -0.1715  0.1753  0.8283
  789TIP3    H123782   3.076   3.642  11.076 -0.0465 -2.3609  0.8618
  789TIP3    H223783   3.057   3.732  10.956 -0.0728  0.9445  3.2069
  790TIP3   OH223784   3.114   2.511  12.756  0.1987 -0.2573  0.0613
  790TIP3    H123785   3.208   2.524  12.762  0.2791  1.2074 -2.6913
  790TIP3    H223786   3.081   2.535  12.843  2.2233  0.5782  0.6557
  791TIP3   OH223787   4.146   4.023  12.441 -0.7955  0.3766  0.0434
  791TIP3    H123788   4.230   4.007  12.397 -0.2958  1.2282  0.6614
  791TIP3    H223789   4.144   3.959  12.513  0.7763  2.2954  1.9388
  792TIP3   OH223790   0.440   0.813  11.699 -0.5409 -0.1314 -0.3430
  792TIP3    H123791   0.439   0.896  11.745  1.7998  0.5904 -1.4400
  792TIP3    H223792   0.502   0.758  11.748 -1.6201 -1.0582  0.0360
  793TIP3   OH223793   5.152   0.662   1.200  0.0454 -0.3204  0.2711
  793TIP3    H123794   5.226   0.713   1.232 -0.4373  0.2776  0.4636
  793TIP3    H223795   5.161   0.664   1.105  2.4441 -3.5243  0.2618
  794TIP3   OH223796   3.213   1.218  17.157 -0.2869 -0.2691 -0.1192
  794TIP3    H123797   3.154   1.292  17.142 -0.7001 -1.0857 -3.0394
  794TIP3    H223798   3.155   1.142  17.161  0.3002 -0.6837  0.7625
  795TIP3   OH223799   6.320   6.182  17.402 -0.2962 -0.0238 -0.4221
  795TIP3    H123800   6.390   6.191  17.337  0.5274  2.2242  0.6884
  795TIP3    H223801   6.365   6.169  17.485 -1.0520  2.7245  0.5168
  796TIP3   OH223802   4.431   5.360   4.801  0.0086 -0.4351  0.1150
  796TIP3    H123803   4.351   5.361   4.853 -0.6552  0.9952 -0.8712
  796TIP3    H223804   4.451   5.452   4.785  1.9828 -0.7388  0.4944
  797TIP3   OH223805   5.631   2.223   3.193 -0.0467  0.8866 -0.2250
  797TIP3    H123806   5.670   2.137   3.176 -1.1792  0.0654  1.1474
  797TIP3    H223807   5.648   2.238   3.286 -1.7255  1.1554  0.0537
  798TIP3   OH223808   5.305   5.553   6.233 -0.0241 -0.4083  0.3408
  798TIP3    H123809   5.348   5.556   6.318 -0.1673  2.3096  0.3770
  798TIP3    H223810   5.369   5.509   6.176  0.6754 -0.9326  1.4977
  799TIP3   OH223811   2.067   4.428   1.966 -0.1477  0.1038 -0.1225
  799TIP3    H123812   1.987   4.382   1.941 -0.5692 -0.0339  1.3630
  799TIP3    H223813   2.061   4.435   2.061  0.6919  1.7955 -0.1612
  800TIP3   OH223814   3.301   1.596  16.077  0.0799  0.0377 -0.1230
  800TIP3    H123815   3.396   1.608  16.072  0.1006  2.0876  2.6865
  800TIP3    H223816   3.290   1.508  16.113  0.9524  0.0480  0.1960
  801TIP3   OH223817   1.060   4.651   3.143 -0.1429  0.3576 -0.5499
  801TIP3    H123818   1.110   4.570   3.128  0.0816  0.0030  1.8110
  801TIP3    H223819   1.117   4.720   3.109  0.5808 -0.2925 -0.7037
  802TIP3   OH223820   4.458   3.701  14.827  0.6429 -0.5312 -0.2035
  802TIP3    H123821   4.405   3.688  14.905  1.6892 -1.7216  0.3603
  802TIP3    H223822   4.398   3.689  14.754 -0.4829  1.1821  0.3815
  803TIP3   OH223823   4.431   6.482  15.756 -0.2417 -0.3941  0.5860
  803TIP3    H123824   4.384   6.566  15.764  0.4845 -0.0261  1.1252
  803TIP3    H223825   4.523   6.506  15.753 -0.0912 -0.9115 -3.4057
  804TIP3   OH223826   5.111   2.804   2.360 -0.4070 -0.3310 -0.4805
  804TIP3    H123827   5.192   2.775   2.317 -0.2200  0.3857 -0.6221
  804TIP3    H223828   5.043   2.795   2.293 -0.3727 -0.5441 -0.4874
  805TIP3   OH223829   1.283   0.061   3.833 -0.0431 -0.8849 -0.1353
  805TIP3    H123830   1.208   0.010   3.801  1.0996 -0.9850 -2.9647
  805TIP3    H223831   1.357   0.002   3.824  0.5771 -0.3790  1.4730
  806TIP3   OH223832   1.857   6.066  12.382  0.3117  0.4163 -0.0341
  806TIP3    H123833   1.859   6.008  12.458  0.8333  0.8378  0.2819
  806TIP3    H223834   1.778   6.041  12.335  1.1866 -1.4511 -0.6068
  807TIP3   OH223835   5.056   0.426  15.166  0.1855  0.6880 -0.1297
  807TIP3    H123836   5.014   0.368  15.229  0.8752 -0.1716 -0.4519
  807TIP3    H223837   5.138   0.383  15.144  0.5700  1.6333 -0.6142
  808TIP3   OH223838   0.602   6.306   6.055  0.0524 -0.1834 -0.0347
  808TIP3    H123839   0.519   6.304   6.103 -1.4314 -1.7620 -2.4299
  808TIP3    H223840   0.661   6.355   6.111 -2.8210  2.1289  1.2656
  809TIP3   OH223841   0.509   4.900   4.130  0.4863 -0.0188  0.0267
  809TIP3    H123842   0.445   4.969   4.146  0.5835 -0.3865  2.3489
  809TIP3    H223843   0.457   4.823   4.107  0.1357 -0.0682  0.9632
  810TIP3   OH223844   3.607   0.669   3.463  0.1968 -0.2307 -0.0285
  810TIP3    H123845   3.638   0.750   3.505  1.0535 -0.3590 -0.3743
  810TIP3    H223846   3.517   0.659   3.493  1.0089 -0.7599  2.4492
  811TIP3   OH223847   2.076   6.420   0.158 -0.7110  0.1201  0.4444
  811TIP3    H123848   2.153   6.477   0.150  1.5193 -2.5503  1.0919
  811TIP3    H223849   2.069   6.402   0.252 -0.8646 -1.2066  0.1981
  812TIP3   OH223850   2.463   1.896  12.710  0.2407  0.3428  0.3809
  812TIP3    H123851   2.380   1.927  12.672  0.4188  0.4266  0.0568
  812TIP3    H223852   2.472   1.806  12.678 -1.0305 -0.6441  2.5282
  813TIP3   OH223853   5.272   3.643  15.638 -0.1765 -0.1098 -0.6751
  813TIP3    H123854   5.347   3.655  15.696  1.0304  0.2368 -2.2578
  813TIP3    H223855   5.267   3.724  15.587 -2.3439  0.3592  0.1256
  814TIP3   OH223856   3.447   2.906  13.194  0.2247  0.3628 -0.5244
  814TIP3    H123857   3.526   2.955  13.174  0.1281  1.0928  0.8289
  814TIP3    H223858   3.476   2.837  13.254  0.1943 -0.7387 -1.7059
  815TIP3   OH223859   3.929   6.147   1.125  0.4060 -0.7821 -0.2587
  815TIP3    H123860   3.987   6.211   1.083 -0.8496  0.7320  0.1950
  815TIP3    H223861   3.935   6.167   1.218 -2.0753  0.6411 -0.2920
  816TIP3   OH223862   2.180   3.199   3.995  0.0270  0.0132 -0.2587
  816TIP3    H123863   2.171   3.176   4.088 -0.5012 -2.4433 -0.8557
  816TIP3    H223864   2.264   3.160   3.969  0.9772  2.0658 -0.5018
  817TIP3   OH223865   3.093   6.049  17.230  0.5179 -0.0203  0.0472
  817TIP3    H123866   3.127   6.115  17.290  0.1954 -0.2713  0.5170
  817TIP3    H223867   3.009   6.085  17.200 -0.8553 -1.2140  2.1568
  818TIP3   OH223868   1.785   0.653  17.391 -0.6561 -0.2092 -0.7039
  818TIP3    H123869   1.793   0.746  17.411  1.1224 -0.6059  0.6245
  818TIP3    H223870   1.803   0.608  17.474  0.8067 -1.7738 -1.7929
  819TIP3   OH223871   3.247   1.184  15.408 -0.0540 -0.0897  0.5897
  819TIP3    H123872   3.332   1.163  15.369  1.4304  3.4739  1.5464
  819TIP3    H223873   3.206   1.245  15.346 -1.8605 -1.4937  0.3009
  820TIP3   OH223874   0.061   5.416  16.652  0.0799 -0.2392 -0.3544
  820TIP3    H123875   0.010   5.472  16.594 -0.7992  0.1915  0.8202
  820TIP3    H223876   0.080   5.338  16.599 -0.6049  0.1936 -1.2576
  821TIP3   OH223877   1.421   5.485   5.794 -0.2054 -0.0393 -0.2696
  821TIP3    H123878   1.469   5.436   5.861  0.3808  0.7749 -0.0671
  821TIP3    H223879   1.353   5.425   5.764 -1.3425 -0.0023  1.9867
  822TIP3   OH223880   5.936   5.713  13.955  0.1022 -0.2922  0.3638
  822TIP3    H123881   5.930   5.789  13.896 -2.9268 -0.9090 -0.2717
  822TIP3    H223882   5.988   5.649  13.905  0.9581  0.5971  0.0703
  823TIP3   OH223883   3.061   5.749  14.670  0.0623  0.7101 -0.2757
  823TIP3    H123884   2.982   5.772  14.720  2.0777  1.9292  2.6739
  823TIP3    H223885   3.125   5.725  14.737  3.1359  2.8243 -2.2079
  824TIP3   OH223886   5.907   6.717   2.617  0.4901 -0.5549  0.0317
  824TIP3    H123887   5.945   6.731   2.704  2.7342 -1.3368 -0.7572
  824TIP3    H223888   5.852   6.639   2.626 -0.0303 -0.1026  0.9238
  825TIP3   OH223889   2.007   5.075  11.475 -0.0824  0.3041  0.2190
  825TIP3    H123890   1.923   5.102  11.439  0.3901  1.1764 -0.2609
  825TIP3    H223891   2.055   5.157  11.488  0.6382 -0.1721  0.6204
  826TIP3   OH223892   4.387   2.644   0.380  0.2942  0.2635  0.9653
  826TIP3    H123893   4.295   2.672   0.379 -0.4206 -1.8548  1.7560
  826TIP3    H223894   4.399   2.596   0.299  0.3885 -0.3362  1.3257
  827TIP3   OH223895   0.501   4.633   2.974  0.6388 -0.9736 -0.4865
  827TIP3    H123896   0.562   4.707   2.965  1.3467 -1.1130  2.2675
  827TIP3    H223897   0.415   4.675   2.984  0.7436 -0.6220 -1.0030
  828TIP3   OH223898   0.919   6.738  12.571  1.0892  0.5409 -0.2894
  828TIP3    H123899   0.864   6.709  12.644  1.1500 -1.5296 -1.0098
  828TIP3    H223900   1.005   6.700  12.590  0.8989 -0.7823 -1.8200
  829TIP3   OH223901   0.348   0.604   2.412 -0.5324  0.3789 -0.3531
  829TIP3    H123902   0.332   0.671   2.346  0.0066  0.7273 -0.1451
  829TIP3    H223903   0.266   0.596   2.460 -0.4510  1.2712 -0.0510
  830TIP3   OH223904   1.424   0.446  13.125 -0.3863 -0.1349 -0.4496
  830TIP3    H123905   1.488   0.385  13.088  1.2659  1.5358 -0.4929
  830TIP3    H223906   1.453   0.532  13.094 -1.5008  0.8803  1.1970
  831TIP3   OH223907   5.183   2.832  17.392 -0.1441 -0.1786 -0.2679
  831TIP3    H123908   5.102   2.842  17.342  0.2391  0.0177 -0.8668
  831TIP3    H223909   5.248   2.808  17.327  0.6140  1.2124 -0.0633
  832TIP3   OH223910   4.765   4.363   0.981  0.5135  0.1863 -0.3631
  832TIP3    H123911   4.723   4.360   0.895  0.7545  1.9918 -0.5788
  832TIP3    H223912   4.807   4.449   0.985 -0.6002  0.7163  2.0564
  833TIP3   OH223913   2.462   2.673  10.200 -0.1406 -0.0345  0.2146
  833TIP3    H123914   2.533   2.694  10.261  0.7167  0.4748 -0.9206
  833TIP3    H223915   2.382   2.694  10.247  0.3287 -2.1340  2.1562
  834TIP3   OH223916   1.337   0.890   4.908 -0.3985  0.3297  0.1241
  834TIP3    H123917   1.307   0.814   4.858  0.9840 -0.2562  0.1491
  834TIP3    H223918   1.429   0.902   4.881 -0.6154  2.0705  0.0214
  835TIP3   OH223919   1.615   2.627   0.711  0.1152  0.0494 -0.1751
  835TIP3    H123920   1.608   2.566   0.638 -0.5989 -0.5882  0.4030
  835TIP3    H223921   1.616   2.571   0.789 -1.1663  0.7873  0.3997
  836TIP3   OH223922   6.415   5.044   3.015  0.0671 -0.1461 -0.2881
  836TIP3    H123923   6.399   5.129   2.973  0.1685  1.6091  2.8552
  836TIP3    H223924   6.499   5.055   3.060 -1.8234 -0.1788  3.7191
  837TIP3   OH223925   4.786   6.258   2.175 -0.1525  0.5534  0.1132
  837TIP3    H123926   4.719   6.287   2.112 -1.8680  0.9192  2.0108
  837TIP3    H223927   4.765   6.166   2.191 -0.2828  0.7060  0.8153
  838TIP3   OH223928   3.850   3.037  16.848  0.4698  0.4573  0.0630
  838TIP3    H123929   3.804   3.058  16.930 -1.4149 -2.2143 -0.1752
  838TIP3    H223930   3.809   3.092  16.782  0.1507  0.7240  0.4791
  839TIP3   OH223931   4.476   2.257  13.052 -0.1456  0.3118 -0.6761
  839TIP3    H123932   4.557   2.305  13.073 -1.4980  2.0635  1.0074
  839TIP3    H223933   4.453   2.286  12.964  0.8261  0.1503 -0.9891
  840TIP3   OH223934   6.502   6.225   1.475  0.4731 -0.3203 -0.0563
  840TIP3    H123935   6.444   6.290   1.514  1.5771 -0.4045  1.8551
  840TIP3    H223936   6.581   6.273   1.451  0.6044 -0.6333 -0.2660
  841TIP3   OH223937   2.066   3.825   4.811  0.3367 -0.6961 -0.1232
  841TIP3    H123938   2.133   3.838   4.744 -0.4180 -3.1486 -1.5031
  841TIP3    H223939   2.114   3.795   4.888  1.0424  0.1741 -0.2176
  842TIP3   OH223940   2.341   2.724  13.183  0.4693  0.2237 -0.0455
  842TIP3    H123941   2.270   2.676  13.226  2.6204 -0.0727  3.6069
  842TIP3    H223942   2.406   2.657  13.164  0.9541  0.8720 -0.7095
  843TIP3   OH223943   6.570   5.468   2.973 -0.0055 -0.3195 -0.0796
  843TIP3    H123944   6.516   5.389   2.966  1.6112 -1.6055  1.0967
  843TIP3    H223945   6.578   5.500   2.883 -1.1347 -1.1762 -0.5077
  844TIP3   OH223946   0.154   2.324  11.539 -0.2556  0.1413  0.2245
  844TIP3    H123947   0.074   2.276  11.518  0.1715 -0.8344  0.7456
  844TIP3    H223948   0.152   2.402  11.483 -1.6924  0.2713  0.4307
  845TIP3   OH223949   5.228   4.251   2.701 -0.8253  0.8586 -0.1319
  845TIP3    H123950   5.149   4.302   2.719  0.0323  1.9889  0.5256
  845TIP3    H223951   5.300   4.311   2.716  0.2537 -0.6417  1.0655
  846TIP3   OH223952   4.713   3.646  16.610  0.7075  0.3349 -0.7362
  846TIP3    H123953   4.658   3.567  16.611 -1.6284  1.8259 -1.8100
  846TIP3    H223954   4.794   3.618  16.568  0.1214 -1.5771 -0.7157
  847TIP3   OH223955   1.550   4.879   2.946 -0.0224 -0.2236  0.0724
  847TIP3    H123956   1.500   4.825   2.884  0.1636  0.0438 -0.3207
  847TIP3    H223957   1.603   4.816   2.995  2.0448 -0.2753 -2.0351
  848TIP3   OH223958   5.068   4.928  14.449 -0.1431 -0.4515  0.2203
  848TIP3    H123959   4.985   4.882  14.460 -0.4781  0.1473  0.2098
  848TIP3    H223960   5.059   5.007  14.503 -0.9395  1.3884 -2.4417
  849TIP3   OH223961   5.234   4.188   5.840  0.3392 -0.7401 -0.0065
  849TIP3    H123962   5.212   4.138   5.761  0.2459 -0.6760 -0.0215
  849TIP3    H223963   5.274   4.123   5.898  0.3905 -0.7918 -0.0982
  850TIP3   OH223964   1.760   0.810  12.771  0.6555 -0.2767  0.2849
  850TIP3    H123965   1.706   0.883  12.800  1.2500  0.5988 -0.7515
  850TIP3    H223966   1.825   0.849  12.713  1.1985 -1.5831 -0.0326
  851TIP3   OH223967   1.552   0.235  11.302  0.4283 -0.6075 -0.6299
  851TIP3    H123968   1.550   0.196  11.389 -1.5031  0.3958 -0.1520
  851TIP3    H223969   1.489   0.182  11.252  0.2037 -0.1036 -0.8846
  852TIP3   OH223970   4.412   4.875  12.462 -0.0887 -0.0541  0.0787
  852TIP3    H123971   4.428   4.829  12.544 -0.2698 -1.9758 -0.8987
  852TIP3    H223972   4.325   4.912  12.471  0.0247  0.0290  0.8640
  853TIP3   OH223973   0.331   2.873  12.698  0.1653 -0.6374  0.4699
  853TIP3    H123974   0.287   2.883  12.782 -2.5779 -4.0732 -0.3313
  853TIP3    H223975   0.302   2.949  12.647 -0.6487 -0.1285  1.6419
  854TIP3   OH223976   5.779   0.823  12.327  0.7742 -0.0758 -0.3602
  854TIP3    H123977   5.721   0.881  12.377  0.4481  0.2101 -1.0503
  854TIP3    H223978   5.756   0.735  12.356  0.3843  0.0686 -0.2184
  855TIP3   OH223979   6.483   6.486   4.496  0.1757 -0.0339  0.2832
  855TIP3    H123980   6.558   6.479   4.554 -0.1179 -0.1215  0.6549
  855TIP3    H223981   6.481   6.403   4.449  1.0505  0.4456 -0.6417
  856TIP3   OH223982   0.480   6.498   2.479  0.4462  0.3482 -0.4307
  856TIP3    H123983   0.546   6.566   2.492 -0.3157  1.0689 -0.2303
  856TIP3    H223984   0.506   6.427   2.537  0.5749  0.9729  0.2872
  857TIP3   OH223985   3.051   1.936   0.271 -0.5667 -0.5529 -0.1953
  857TIP3    H123986   3.119   1.981   0.222 -0.7593  0.7925  0.7239
  857TIP3    H223987   3.062   1.844   0.247  1.3681 -0.3408 -0.3206
  858TIP3   OH223988   5.957   1.285  13.666 -0.6325  0.5950 -0.0808
  858TIP3    H123989   5.928   1.302  13.577 -1.8860  2.2323  0.5796
  858TIP3    H223990   5.912   1.204  13.690  1.5587 -1.2153 -1.6471
  859TIP3   OH223991   0.242   6.011  16.090 -0.0928  0.3272 -0.0008
  859TIP3    H123992   0.329   6.017  16.051 -0.5038 -0.6855 -1.1630
  859TIP3    H223993   0.207   5.929  16.055 -2.4580  1.8866 -1.5505
  860TIP3   OH223994   2.441   0.182   1.760 -0.1748  0.0877 -0.3195
  860TIP3    H123995   2.390   0.256   1.792 -1.9515 -0.9250 -0.6941
  860TIP3    H223996   2.442   0.192   1.665  0.1566 -0.0113 -0.3290
  861TIP3   OH223997   3.889   3.801   5.182 -0.5120  0.4566 -0.1178
  861TIP3    H123998   3.849   3.841   5.259 -0.3634 -0.2824  0.3603
  861TIP3    H223999   3.819   3.750   5.142 -0.0011 -1.1088  0.9088
  862TIP3   OH224000   1.385   4.282  11.611  0.1131 -0.0847  0.3243
  862TIP3    H124001   1.457   4.266  11.549 -0.5481 -1.1414 -0.1992
  862TIP3    H224002   1.395   4.213  11.677 -1.9132 -1.9628 -1.1707
  863TIP3   OH224003   1.721   6.495  14.284 -0.3775 -0.0255  0.3269
  863TIP3    H124004   1.703   6.403  14.263 -1.0340 -0.2153  1.6443
  863TIP3    H224005   1.647   6.522  14.338  1.3780  0.3093  2.7246
  864TIP3   OH224006   5.745   5.813  15.609 -0.9480 -0.6584 -0.3090
  864TIP3    H124007   5.755   5.853  15.695 -4.0577  0.6387 -0.4411
  864TIP3    H224008   5.835   5.802  15.577  0.1936  1.4775  1.8781
  865TIP3   OH224009   0.763   4.396  12.018 -0.0383 -0.0525 -0.0939
  865TIP3    H124010   0.712   4.452  12.076 -1.2258 -1.3086  0.1290
  865TIP3    H224011   0.826   4.353  12.076 -0.0534  0.0155 -0.0265
  866TIP3   OH224012   4.186   4.294   6.592 -0.4082 -0.1072  0.5481
  866TIP3    H124013   4.187   4.266   6.501 -1.9331  0.8698  0.1862
  866TIP3    H224014   4.188   4.212   6.642  1.2866 -0.6397 -0.2984
  867TIP3   OH224015   1.855   0.919  17.380 -0.4356  0.3487  0.6409
  867TIP3    H124016   1.838   1.014  17.381 -1.5452  0.2434 -1.6944
  867TIP3    H224017   1.851   0.895  17.288  1.4796 -1.7457  1.0260
  868TIP3   OH224018   6.009   0.632  14.522 -0.1884  0.0130 -0.0724
  868TIP3    H124019   6.103   0.631  14.503 -0.2887 -1.1089 -0.5934
  868TIP3    H224020   5.997   0.705  14.582  1.4247 -1.3103  2.0161
  869TIP3   OH224021   0.778   1.316   2.050 -0.4110 -0.5323 -0.3254
  869TIP3    H124022   0.804   1.282   2.136 -0.8508 -1.1521 -0.4272
  869TIP3    H224023   0.855   1.302   1.995 -0.1935 -0.3099 -0.0804
  870TIP3   OH224024   5.646   3.003   3.007 -0.6451  0.0146 -0.1522
  870TIP3    H124025   5.733   3.028   3.037 -0.4563 -0.5332 -0.2203
  870TIP3    H224026   5.648   2.907   3.006 -1.2057 -0.0013 -0.2827
  871TIP3   OH224027   1.720   0.220   0.186 -0.3940  0.5298  0.2052
  871TIP3    H124028   1.758   0.280   0.250  1.0745  0.0771 -0.2236
  871TIP3    H224029   1.737   0.259   0.101 -0.2312 -0.0464 -0.0331
  872TIP3   OH224030   6.559   2.291   3.114  0.6087  0.5737  0.6852
  872TIP3    H124031   6.621   2.220   3.098  0.3868  0.6763 -0.7332
  872TIP3    H224032   6.478   2.247   3.138  0.7399  0.3837  0.7800
  873TIP3   OH224033   5.917   1.340  11.943 -0.4809  0.4307 -0.3722
  873TIP3    H124034   5.902   1.279  11.871  0.6501 -1.4819  0.9516
  873TIP3    H224035   6.009   1.367  11.933  0.2727 -1.2974  1.3425
  874TIP3   OH224036   5.750   5.135  12.069  0.1439 -0.0908  0.0956
  874TIP3    H124037   5.809   5.133  12.144  1.3771  0.2295 -0.8372
  874TIP3    H224038   5.712   5.223  12.072  3.3679  1.5854 -1.9414
  875TIP3   OH224039   2.988   2.514   3.658  0.1357  0.0738 -0.8591
  875TIP3    H124040   2.967   2.432   3.611  2.2471  0.0451 -1.8387
  875TIP3    H224041   3.016   2.485   3.744 -1.9444  0.0086 -0.1397
  876TIP3   OH224042   3.165   6.654   1.197 -0.3271 -0.3092  0.0308
  876TIP3    H124043   3.194   6.584   1.138  0.5347 -0.4954  0.6473
  876TIP3    H224044   3.226   6.649   1.271 -0.4555  0.8890  0.2308
  877TIP3   OH224045   0.685   0.963  14.260 -0.7942  0.4288  0.3172
  877TIP3    H124046   0.668   1.041  14.206 -0.8593  0.1700 -0.0369
  877TIP3    H224047   0.768   0.982  14.303  0.1544 -0.0739 -1.2061
  878TIP3   OH224048   1.426   4.886  16.744 -0.4524 -0.1934  0.0466
  878TIP3    H124049   1.518   4.878  16.721 -0.3544  0.2562  0.2636
  878TIP3    H224050   1.381   4.898  16.660 -0.3749 -0.9100 -0.1023
  879TIP3   OH224051   4.024   4.595   4.935  0.4962 -0.0809 -0.3093
  879TIP3    H124052   4.029   4.514   4.987 -1.3870  0.2970  0.5561
  879TIP3    H224053   4.113   4.608   4.903  1.3425 -1.3280  1.3277
  880TIP3   OH224054   1.293   5.022   5.334  0.4165 -0.6658  0.3991
  880TIP3    H124055   1.252   5.014   5.248 -0.4504 -1.7372  0.8892
  880TIP3    H224056   1.383   4.993   5.321 -0.0513 -2.0641  0.0939
  881TIP3   OH224057   2.391   3.721  11.280  0.0244 -0.0707 -0.4966
  881TIP3    H124058   2.476   3.763  11.271 -0.3809  1.2480  1.1112
  881TIP3    H224059   2.399   3.668  11.359 -0.8170  0.5927  0.0521
  882TIP3   OH224060   5.663   4.742   1.109 -0.1757  0.4002 -0.2734
  882TIP3    H124061   5.653   4.787   1.025 -0.9710 -0.6425 -0.7523
  882TIP3    H224062   5.584   4.765   1.158  0.7800  1.9019  0.6609
  883TIP3   OH224063   4.566   6.368   2.027  0.3930 -0.5968 -0.1440
  883TIP3    H124064   4.510   6.434   2.066 -0.3522 -1.2799 -0.0273
  883TIP3    H224065   4.528   6.284   2.055  1.8480 -1.0920  0.5040
  884TIP3   OH224066   1.429   2.923   1.440 -0.6399 -0.1825  0.1643
  884TIP3    H124067   1.348   2.966   1.466 -1.1822 -0.1529 -1.4440
  884TIP3    H224068   1.481   2.918   1.520 -2.9709 -1.9576  1.7067
  885TIP3   OH224069   4.217   6.113  15.199  0.6150 -0.0279 -0.1229
  885TIP3    H124070   4.225   6.027  15.239 -0.6178 -0.3108 -0.4436
  885TIP3    H224071   4.193   6.171  15.272 -1.4801 -0.5157 -0.3507
  886TIP3   OH224072   1.239   4.017  11.469 -0.4833  0.8012  0.0806
  886TIP3    H124073   1.327   4.053  11.456 -0.9203  1.5298 -0.9441
  886TIP3    H224074   1.251   3.949  11.535  0.9961  0.3484 -0.6067
  887TIP3   OH224075   1.187   4.432   5.447  0.0209 -0.3144  0.7404
  887TIP3    H124076   1.157   4.498   5.510 -1.9873 -0.1565 -0.3040
  887TIP3    H224077   1.141   4.352   5.473 -0.8471 -0.2392 -0.4964
  888TIP3   OH224078   2.245   4.685  17.375 -0.2424 -0.1128  0.4582
  888TIP3    H124079   2.204   4.753  17.321 -1.6577 -1.0949  0.2362
  888TIP3    H224080   2.326   4.664  17.329 -1.1244 -0.4988 -0.9903
  889TIP3   OH224081   5.438   4.093   4.334  0.0534  0.0269 -0.6517
  889TIP3    H124082   5.371   4.030   4.362 -0.6027  0.4017 -1.3353
  889TIP3    H224083   5.505   4.087   4.401 -1.2909  0.6300  0.8208
  890TIP3   OH224084   6.222   0.243   4.249  0.6489 -0.6824 -0.4749
  890TIP3    H124085   6.253   0.304   4.316  0.8006 -0.2169 -0.9616
  890TIP3    H224086   6.143   0.204   4.287 -0.8083  1.5251 -1.0479
  891TIP3   OH224087   2.489   2.979   4.996 -0.0916  0.3863  0.4405
  891TIP3    H124088   2.487   2.918   4.923 -1.3191  0.8896  0.0375
  891TIP3    H224089   2.555   2.942   5.056  0.0083 -0.7055 -0.3141
  892TIP3   OH224090   5.858   6.175   1.306  0.0032  0.0297  0.3493
  892TIP3    H124091   5.792   6.238   1.281 -0.7790 -1.0318 -0.3479
  892TIP3    H224092   5.811   6.111   1.359  0.7828  0.0345  1.0646
  893TIP3   OH224093   0.556   2.423  16.595  0.0121 -0.3160  0.3835
  893TIP3    H124094   0.568   2.394  16.685 -0.1278 -0.7222  0.2702
  893TIP3    H224095   0.642   2.456  16.568 -0.2296  0.9267  1.0643
  894TIP3   OH224096   4.711   4.983   1.806  0.2017  0.0031 -0.0851
  894TIP3    H124097   4.782   4.950   1.860  0.0874  1.1077  0.7864
  894TIP3    H224098   4.735   4.959   1.716 -0.1931 -2.9199  0.4970
  895TIP3   OH224099   5.998   4.928  15.798  0.4878 -0.1967  0.2376
  895TIP3    H124100   6.013   5.011  15.842 -1.5715  1.1458 -1.3605
  895TIP3    H224101   6.084   4.900  15.768  1.2538  1.2775  0.9823
  896TIP3   OH224102   6.428   2.949   4.924 -0.1277 -0.5745 -0.4093
  896TIP3    H124103   6.499   3.003   4.958  0.2208 -0.9167 -0.5853
  896TIP3    H224104   6.354   2.966   4.982  0.0884 -0.1841 -0.2513
  897TIP3   OH224105   5.480   0.614  13.926 -0.4671 -0.6072 -0.1958
  897TIP3    H124106   5.557   0.660  13.892 -0.3130 -0.2383  0.6253
  897TIP3    H224107   5.408   0.677  13.916 -0.6141 -0.8495 -0.7047
  898TIP3   OH224108   0.531   3.193   0.314  0.4422 -0.1036 -0.2030
  898TIP3    H124109   0.444   3.178   0.350 -1.8852  1.2060 -4.5122
  898TIP3    H224110   0.581   3.116   0.339 -1.7473 -0.7226  2.8372
  899TIP3   OH224111   6.398   6.194   2.212  0.0870  0.2012 -0.2012
  899TIP3    H124112   6.384   6.233   2.126 -0.8422 -0.0587 -0.1797
  899TIP3    H224113   6.426   6.105   2.193  0.0787  0.2057 -0.2367
  900TIP3   OH224114   4.374   4.595   6.483  0.1603  0.0913 -0.3990
  900TIP3    H124115   4.428   4.627   6.411  1.1747 -0.4142  0.1109
  900TIP3    H224116   4.349   4.506   6.456 -0.9134  0.5227 -0.8839
  901TIP3   OH224117   4.360   0.541   5.442  0.1160 -0.3093 -0.4261
  901TIP3    H124118   4.454   0.550   5.426  0.2950 -2.1757 -0.6091
  901TIP3    H224119   4.323   0.514   5.358 -0.3991 -0.7842 -0.0553
  902TIP3   OH224120   1.098   4.067   6.771 -0.2915 -0.2366  0.4658
  902TIP3    H124121   1.006   4.045   6.761 -0.2047  0.0689 -1.4662
  902TIP3    H224122   1.100   4.162   6.778 -0.0359 -0.0262 -1.7405
  903TIP3   OH224123   5.803   0.866  17.192 -0.4711 -0.4603 -0.4514
  903TIP3    H124124   5.762   0.859  17.278 -2.9831  2.7363 -1.1814
  903TIP3    H224125   5.750   0.811  17.135 -1.5506  0.7662 -0.6843
  904TIP3   OH224126   0.761   5.713   3.547 -0.0695  0.3133 -0.4876
  904TIP3    H124127   0.689   5.658   3.515  0.1281 -0.2465  0.0060
  904TIP3    H224128   0.769   5.689   3.640  1.6569 -0.6502 -0.8451
  905TIP3   OH224129   5.813   2.997   0.509  0.2412 -0.1596  0.6656
  905TIP3    H124130   5.798   2.960   0.596 -1.2630 -0.4075  0.3244
  905TIP3    H224131   5.796   3.091   0.520 -1.1855 -0.3553  0.4140
  906TIP3   OH224132   0.065   4.483  15.232 -0.2076 -0.4172 -0.4796
  906TIP3    H124133   0.131   4.551  15.228  0.6580 -1.2150 -0.1784
  906TIP3    H224134   0.066   4.442  15.146 -1.3333  0.4774 -0.9462
  907TIP3   OH224135   4.684   0.678   1.319 -0.2972 -0.3487 -0.4352
  907TIP3    H124136   4.772   0.681   1.357 -0.4487  0.1506 -0.1185
  907TIP3    H224137   4.658   0.770   1.310 -0.3547 -0.4622 -1.5538
  908TIP3   OH224138   3.731   1.606  13.708 -0.2461 -0.0136 -0.3409
  908TIP3    H124139   3.781   1.527  13.686 -0.2762 -0.0776 -0.1808
  908TIP3    H224140   3.778   1.676  13.664 -0.7820 -0.2441 -1.2942
  909TIP3   OH224141   1.496   6.544   6.232 -0.2619  0.5977  0.7966
  909TIP3    H124142   1.495   6.450   6.251 -1.7959  0.2968 -0.5219
  909TIP3    H224143   1.471   6.585   6.314 -2.4149 -0.3661  0.6853
  910TIP3   OH224144   0.245   2.843  15.251  0.0811 -0.1932  0.1668
  910TIP3    H124145   0.320   2.882  15.206  0.6160 -1.3445  0.0129
  910TIP3    H224146   0.257   2.869  15.343 -0.1279  0.8172 -0.0852
  911TIP3   OH224147   6.161   1.544   1.133  0.1133 -0.4508 -0.0667
  911TIP3    H124148   6.137   1.464   1.086  0.0962 -2.1485  2.5976
  911TIP3    H224149   6.081   1.597   1.132  0.4471  0.1510 -2.8228
  912TIP3   OH224150   4.875   4.313   3.624 -0.3484 -0.8537 -0.1301
  912TIP3    H124151   4.942   4.369   3.586 -0.2774  1.1093  2.6149
  912TIP3    H224152   4.807   4.308   3.557 -0.6008  3.0604 -0.4087
  913TIP3   OH224153   4.727   3.844   1.626  0.1140 -0.1293 -0.0771
  913TIP3    H124154   4.707   3.797   1.545  0.1861  1.8399 -1.3154
  913TIP3    H224155   4.726   3.777   1.694  0.3896 -1.9187 -1.7487
  914TIP3   OH224156   1.722   5.931   3.417  0.5841 -0.3519  0.4359
  914TIP3    H124157   1.795   5.986   3.444  0.1010 -0.2098  1.5150
  914TIP3    H224158   1.731   5.851   3.469  0.0037 -0.3461  0.5584
  915TIP3   OH224159   6.479   4.557  11.070  1.0426 -0.2410  0.4681
  915TIP3    H124160   6.481   4.614  10.992 -0.1786 -1.3663 -0.4373
  915TIP3    H224161   6.411   4.596  11.125 -1.1574 -1.7760 -1.0029
  916TIP3   OH224162   4.511   3.769  12.451  0.3717 -0.1992  0.0615
  916TIP3    H124163   4.438   3.749  12.509  1.2415 -2.8557  0.3790
  916TIP3    H224164   4.588   3.767  12.508  0.7421  3.2753 -0.1228
  917TIP3   OH224165   6.651   2.122   3.718 -0.4642  0.3428  0.1777
  917TIP3    H124166   6.651   2.081   3.805 -2.4841 -0.7505 -0.2728
  917TIP3    H224167   6.721   2.078   3.671 -0.0278  0.2125  0.9369
  918TIP3   OH224168   2.017   0.463  16.424 -0.1541  0.2342  0.1828
  918TIP3    H124169   2.099   0.512  16.437  0.4127 -0.7853  0.5891
  918TIP3    H224170   2.008   0.457  16.329  0.2703  0.3103  0.1349
  919TIP3   OH224171   1.653   3.333  16.345  0.3030 -0.2217  0.0691
  919TIP3    H124172   1.593   3.375  16.282  0.0004 -1.4622 -0.4971
  919TIP3    H224173   1.728   3.306  16.292  1.6906  1.8200  0.8713
  920TIP3   OH224174   5.260   0.297  13.491  0.4396  0.2293 -0.0312
  920TIP3    H124175   5.295   0.306  13.402  0.0132  2.4913 -0.0245
  920TIP3    H224176   5.303   0.366  13.541  0.0020 -0.4437  1.3213
  921TIP3   OH224177   6.067   0.109  10.994  0.1077 -0.1680  0.6296
  921TIP3    H124178   6.014   0.049  11.047 -1.7077  3.0549  2.8383
  921TIP3    H224179   6.005   0.146  10.931 -0.0320  2.3824  2.1094
  922TIP3   OH224180   1.560   5.730   4.591  0.2260  0.0374 -0.1880
  922TIP3    H124181   1.502   5.695   4.658 -0.0493 -1.1191 -1.0080
  922TIP3    H224182   1.648   5.726   4.631 -0.2070  2.0971  1.1780
  923TIP3   OH224183   6.228   5.525  17.253 -0.3234 -0.1905  0.0526
  923TIP3    H124184   6.317   5.490  17.246  0.6497  2.2494 -1.0309
  923TIP3    H224185   6.193   5.522  17.163 -0.2088  1.4557 -0.0810
  924TIP3   OH224186   4.300   3.217  13.399  0.1628  0.1618  0.2372
  924TIP3    H124187   4.221   3.208  13.345  0.3968  0.3707 -0.1454
  924TIP3    H224188   4.334   3.304  13.377  0.3350  0.1948  0.6239
  925TIP3   OH224189   6.365   4.525  16.382  0.3769  0.5121 -0.2591
  925TIP3    H124190   6.341   4.612  16.416  0.5844  0.4992 -0.0773
  925TIP3    H224191   6.289   4.498  16.330  0.2193  0.7063 -0.1319
  926TIP3   OH224192   1.094   6.501  11.515 -0.0398  0.0872  0.5567
  926TIP3    H124193   1.170   6.470  11.466 -0.8996  0.2943 -0.9779
  926TIP3    H224194   1.058   6.571  11.461 -1.6364 -0.3789  0.9594
  927TIP3   OH224195   5.773   3.741  12.323  0.1600  0.0805  0.0669
  927TIP3    H124196   5.833   3.813  12.345  1.1671 -0.6986 -0.0854
  927TIP3    H224197   5.744   3.708  12.408 -0.5307  0.8371  0.1373
  928TIP3   OH224198   3.029   1.714   4.249 -0.5473  0.5642 -0.5992
  928TIP3    H124199   3.096   1.777   4.275 -0.6574  1.0234 -1.3826
  928TIP3    H224200   2.967   1.714   4.322  0.1051  0.4108 -0.0336
  929TIP3   OH224201   5.797   2.521  10.893  0.7181  0.2696  0.0653
  929TIP3    H124202   5.789   2.448  10.831 -1.6157  1.1417 -0.7867
  929TIP3    H224203   5.746   2.591  10.853 -2.4126  0.3651  3.7175
  930TIP3   OH224204   2.884   5.610  14.296 -0.7012  0.0857  0.2538
  930TIP3    H124205   2.959   5.640  14.349  1.6083 -0.9149 -2.2081
  930TIP3    H224206   2.867   5.682  14.236  1.7403 -1.4112 -2.5013
  931TIP3   OH224207   3.955   6.235  16.546  0.0689 -0.3223  0.0451
  931TIP3    H124208   4.022   6.209  16.609  1.2409 -2.0497 -1.8097
  931TIP3    H224209   3.939   6.156  16.494 -2.0427  0.5834 -0.7976
  932TIP3   OH224210   5.625   4.921   6.046 -0.3544 -0.3241  0.2188
  932TIP3    H124211   5.678   4.872   6.109 -0.3727 -0.5117  0.0928
  932TIP3    H224212   5.655   4.889   5.960  0.3189  0.6047  0.0996
  933TIP3   OH224213   0.480   4.618  17.073 -0.3240 -0.2197  0.8254
  933TIP3    H124214   0.545   4.575  17.016 -2.0004 -0.9514 -0.6317
  933TIP3    H224215   0.519   4.703  17.093  0.2525  0.1888 -1.6834
  934TIP3   OH224216   0.780   4.873  14.064 -0.2512  0.2685 -0.0916
  934TIP3    H124217   0.711   4.842  14.006 -1.1228  2.3447 -0.2488
  934TIP3    H224218   0.802   4.797  14.118 -1.2595 -0.9777 -1.3501
  935TIP3   OH224219   1.183   3.391   5.933  0.0271 -0.4990  0.1691
  935TIP3    H124220   1.190   3.308   5.885 -0.0783 -0.5059  0.1663
  935TIP3    H224221   1.097   3.388   5.973  0.0121 -0.3775  0.1455
  936TIP3   OH224222   6.182   3.937   1.436  0.5223  0.0851 -0.3920
  936TIP3    H124223   6.207   3.935   1.528  1.1494 -1.3063 -0.5649
  936TIP3    H224224   6.262   3.963   1.390  0.2177  0.7563 -0.5607
  937TIP3   OH224225   4.446   0.029  13.162 -0.5104 -0.1588 -0.1262
  937TIP3    H124226   4.381   0.097  13.147 -0.4271 -0.3448 -1.4770
  937TIP3    H224227   4.521   0.074  13.200 -0.6368  0.4152 -0.5551
  938TIP3   OH224228   1.583   3.034  15.340  0.0880  0.0271 -0.8036
  938TIP3    H124229   1.666   3.081  15.335 -0.0439  0.4147  0.3675
  938TIP3    H224230   1.575   3.009  15.432 -1.7229  1.1722 -0.6023
  939TIP3   OH224231   1.308   3.505   0.090  0.1253  0.4998 -0.1777
  939TIP3    H124232   1.372   3.575   0.106 -1.7854  2.1081  0.8183
  939TIP3    H224233   1.250   3.540   0.022 -0.2664 -0.5504 -0.4050
  940TIP3   OH224234   5.566   3.169  16.154 -0.2221  0.3954  0.0645
  940TIP3    H124235   5.484   3.177  16.104  0.4625  0.3654 -1.0899
  940TIP3    H224236   5.618   3.245  16.126  0.1923  0.3438  0.6989
  941TIP3   OH224237   0.381   2.526  11.061  0.3721  0.4380  0.2842
  941TIP3    H124238   0.348   2.438  11.082 -0.7878  0.8649  0.2870
  941TIP3    H224239   0.475   2.513  11.046  0.1860 -0.8306  0.1268
  942TIP3   OH224240   4.321   0.323  16.197  0.2868  0.2644 -0.2457
  942TIP3    H124241   4.300   0.327  16.290 -1.1901 -1.3579 -0.4624
  942TIP3    H224242   4.409   0.284  16.193  0.2714  0.1519  0.4490
  943TIP3   OH224243   6.237   5.051  16.841 -0.0483  0.4083  0.0333
  943TIP3    H124244   6.219   5.052  16.935 -0.4267  0.3771 -0.0363
  943TIP3    H224245   6.173   5.111  16.803  1.5512  2.1900  0.0212
  944TIP3   OH224246   0.551   0.174   2.015 -0.1907 -0.4319 -0.2192
  944TIP3    H124247   0.490   0.140   1.950 -2.3821 -0.7297  1.8516
  944TIP3    H224248   0.587   0.253   1.974 -1.8330 -0.3360 -1.6057
  945TIP3   OH224249   3.898   2.791   6.376 -0.3062  0.1389  0.0849
  945TIP3    H124250   3.813   2.831   6.398  0.0816  0.6966  0.6373
  945TIP3    H224251   3.903   2.714   6.433  0.0178  0.7152  0.8634
  946TIP3   OH224252   5.003   6.684  13.628 -0.2513 -0.3327 -0.6765
  946TIP3    H124253   5.085   6.712  13.587 -0.0178 -0.9789 -0.6705
  946TIP3    H224254   4.939   6.750  13.602  0.1156 -0.2046 -1.2734
  947TIP3   OH224255   1.276   6.106  13.343 -0.5334 -0.3925 -0.1891
  947TIP3    H124256   1.237   6.184  13.383 -0.5625 -0.9468  0.8837
  947TIP3    H224257   1.291   6.131  13.251  2.2684  1.9607  0.7401
  948TIP3   OH224258   4.637   2.860  11.207 -0.7867  0.3114 -0.1283
  948TIP3    H124259   4.733   2.852  11.206 -0.5963  2.0406  0.3494
  948TIP3    H224260   4.615   2.889  11.119 -1.0642 -1.5785 -0.7125
  949TIP3   OH224261   5.071   1.106   0.928 -0.2485 -0.2468 -0.1552
  949TIP3    H124262   5.145   1.046   0.921 -0.4904 -0.3816 -2.0762
  949TIP3    H224263   4.998   1.051   0.957  0.3696 -0.0875  1.8915
  950TIP3   OH224264   6.404   4.358   0.742 -0.2931  0.3438  0.4431
  950TIP3    H124265   6.446   4.272   0.740 -0.2653  0.2799  2.0182
  950TIP3    H224266   6.336   4.349   0.809  0.0071  1.6669  0.9522
  951TIP3   OH224267   6.533   2.863   3.052 -0.0677  0.0461 -0.1567
  951TIP3    H124268   6.626   2.861   3.029 -0.0725 -1.3096 -0.1216
  951TIP3    H224269   6.522   2.944   3.103  0.8494  0.7921 -1.1257
  952TIP3   OH224270   2.156   0.371  14.474  0.2932 -0.1697  0.1472
  952TIP3    H124271   2.186   0.282  14.453 -2.3923 -0.8368 -1.3299
  952TIP3    H224272   2.231   0.427  14.455  0.6373 -1.6526 -3.7848
  953TIP3   OH224273   2.004   5.861  11.208 -0.0579  0.5482 -0.3436
  953TIP3    H124274   2.095   5.870  11.234 -0.1702  0.3260  0.1542
  953TIP3    H224275   1.956   5.854  11.291 -0.5419  0.8069 -0.5925
  954TIP3   OH224276   3.339   6.717   0.333  0.4099  0.2739  0.0923
  954TIP3    H124277   3.313   6.694   0.244 -0.7915  1.8587 -0.0068
  954TIP3    H224278   3.426   6.756   0.323 -0.4564  2.1488 -0.7053
  955TIP3   OH224279   3.625   1.986  15.996 -0.4450 -0.4242  0.1291
  955TIP3    H124280   3.648   2.079  16.005 -0.1020 -0.4626 -0.3078
  955TIP3    H224281   3.691   1.940  16.048 -0.1698 -0.4643 -0.2460
  956TIP3   OH224282   3.305   6.528  13.774 -0.2173  0.3391 -0.1121
  956TIP3    H124283   3.374   6.547  13.709  0.8614  0.9421  1.1702
  956TIP3    H224284   3.334   6.449  13.817  0.1718  1.1057  1.0723
  957TIP3   OH224285   6.311   1.157  11.239 -0.1778  0.4713 -0.0703
  957TIP3    H124286   6.221   1.167  11.270  0.7713  0.3667  3.0998
  957TIP3    H224287   6.333   1.066  11.260  0.9984  0.8074  0.1925
  958TIP3   OH224288   5.048   1.348   4.904 -0.2124  0.3975  0.1436
  958TIP3    H124289   4.959   1.330   4.873 -0.2607  0.8238  0.0310
  958TIP3    H224290   5.045   1.330   4.998  0.3065 -2.3561 -0.2779
  959TIP3   OH224291   3.729   0.196   4.110 -0.0549  0.3187 -0.7644
  959TIP3    H124292   3.726   0.249   4.031  1.0033  1.5606 -0.0120
  959TIP3    H224293   3.822   0.182   4.127 -0.2972 -1.7580 -0.8808
  960TIP3   OH224294   1.341   1.027   6.080  0.2749  0.1458  0.0475
  960TIP3    H124295   1.284   1.013   6.156 -1.5652  0.5173 -1.2004
  960TIP3    H224296   1.321   0.954   6.021  0.2203  0.9084 -0.9046
  961TIP3   OH224297   3.050   1.884   3.275  0.4281  0.2328  0.3855
  961TIP3    H124298   3.114   1.901   3.206  1.0507  1.9309  1.3092
  961TIP3    H224299   3.030   1.791   3.267  2.9791 -0.3519  0.0196
  962TIP3   OH224300   0.361   6.527   3.551  0.4466 -0.5576  0.1932
  962TIP3    H124301   0.419   6.554   3.623  0.2483  0.4795 -0.0137
  962TIP3    H224302   0.360   6.603   3.492 -0.3489 -0.9373 -0.2952
  963TIP3   OH224303   1.329   3.907  16.014  0.0729  0.1517  0.2564
  963TIP3    H124304   1.253   3.957  15.986  0.0396 -0.1820 -0.2639
  963TIP3    H224305   1.378   3.967  16.070  0.0736  0.7866 -0.4151
  964TIP3   OH224306   4.001   4.349   5.114 -0.4222 -0.0122  0.1631
  964TIP3    H124307   4.035   4.310   5.195  0.2172  1.3198  0.5643
  964TIP3    H224308   4.074   4.340   5.052 -0.1003  0.9271  0.3928
  965TIP3   OH224309   5.600   0.103   5.274  0.4457  0.1582 -0.2172
  965TIP3    H124310   5.690   0.080   5.255  1.2147  1.7533  1.1697
  965TIP3    H224311   5.559   0.113   5.188  1.5141 -0.7676 -0.8676
  966TIP3   OH224312   1.784   4.261  10.891  0.2732 -0.6613 -0.0086
  966TIP3    H124313   1.877   4.282  10.880  0.2960 -0.9779 -0.4691
  966TIP3    H224314   1.779   4.167  10.873 -0.2539 -0.4984 -0.7768
  967TIP3   OH224315   2.480   2.465  13.489 -0.7996  0.2751 -0.4465
  967TIP3    H124316   2.468   2.406  13.415  0.4720 -0.5337 -0.0308
  967TIP3    H224317   2.504   2.408  13.562  0.4123  1.2780 -0.0257
  968TIP3   OH224318   0.674   2.261   1.112  0.3205  0.2390  0.1700
  968TIP3    H124319   0.593   2.311   1.122  0.1561 -0.1685  0.9651
  968TIP3    H224320   0.648   2.182   1.065  0.7106  1.1825 -1.7574
  969TIP3   OH224321   1.696   2.529   4.786  0.5632 -0.5417 -0.3520
  969TIP3    H124322   1.724   2.598   4.847 -0.4652 -0.4014 -0.0235
  969TIP3    H224323   1.604   2.547   4.770  0.6231 -1.0531 -1.3381
  970TIP3   OH224324   1.934   0.411   3.778 -0.2779  0.4675  0.1287
  970TIP3    H124325   1.879   0.463   3.838 -2.1250 -0.8570 -0.3482
  970TIP3    H224326   1.876   0.387   3.707  1.2176 -0.1774 -0.9239
  971TIP3   OH224327   6.257   0.671   2.862  0.3737 -0.0222 -0.0615
  971TIP3    H124328   6.208   0.752   2.854 -0.6763 -0.5637  0.6717
  971TIP3    H224329   6.193   0.602   2.843  1.3325 -0.6792 -1.0472
  972TIP3   OH224330   1.204   3.703  17.156  0.6756  0.5180  0.3068
  972TIP3    H124331   1.233   3.790  17.182 -0.2707  0.7726  0.5324
  972TIP3    H224332   1.179   3.660  17.238  1.1350  0.0317  0.1998
  973TIP3   OH224333   3.921   4.429  14.992  0.0202  0.3479 -0.6808
  973TIP3    H124334   3.857   4.494  14.963 -0.3667 -0.3694 -1.4802
  973TIP3    H224335   3.870   4.365  15.042  0.4886  0.9305  0.5848
  974TIP3   OH224336   4.101   1.852  11.780  0.5099 -0.4262  0.9449
  974TIP3    H124337   4.025   1.803  11.809  0.9536 -0.9115  1.3010
  974TIP3    H224338   4.175   1.792  11.791  1.0223  0.2230  1.1291
  975TIP3   OH224339   0.168   1.567   5.819  0.2844  0.2196  0.4542
  975TIP3    H124340   0.183   1.537   5.909 -3.3841 -0.0896  1.0978
  975TIP3    H224341   0.165   1.487   5.767  2.3469  0.3957 -0.0364
  976TIP3   OH224342   4.639   5.597   5.207 -0.3163  0.1909  0.8212
  976TIP3    H124343   4.721   5.641   5.227 -0.2201  1.5913 -2.1418
  976TIP3    H224344   4.664   5.528   5.144 -1.3813  0.8334 -0.3511
  977TIP3   OH224345   3.554   1.639   6.901  0.5375 -0.1343  0.0489
  977TIP3    H124346   3.649   1.650   6.896  0.4401  0.2151 -1.8335
  977TIP3    H224347   3.525   1.645   6.810 -1.1123 -1.9781  0.3992
  978TIP3   OH224348   4.887   5.198  13.917  0.0646  0.4200  0.1201
  978TIP3    H124349   4.918   5.118  13.875 -0.1212 -0.0914  0.9351
  978TIP3    H224350   4.966   5.245  13.942  0.1739  0.4849 -0.3383
  979TIP3   OH224351   1.714   5.190   1.467  0.2708 -0.3963  0.3522
  979TIP3    H124352   1.785   5.195   1.531 -0.4718  0.4337  1.1375
  979TIP3    H224353   1.735   5.256   1.401  0.3057 -0.2535  0.5057
  980TIP3   OH224354   6.285   2.656  16.369 -0.5357 -0.1379 -0.6429
  980TIP3    H124355   6.369   2.674  16.327 -0.2878 -0.0546 -0.1197
  980TIP3    H224356   6.298   2.683  16.460 -1.3642  0.5900 -0.7247
  981TIP3   OH224357   4.028   2.545   4.186 -0.9327 -0.0781 -0.2572
  981TIP3    H124358   4.058   2.578   4.270 -0.9895  0.0495 -0.2860
  981TIP3    H224359   3.937   2.519   4.202 -1.1885  0.6616 -0.4660
  982TIP3   OH224360   0.542   1.956   1.564  0.4982  0.3384 -0.2395
  982TIP3    H124361   0.551   1.866   1.534  0.6597 -0.0928  1.0440
  982TIP3    H224362   0.540   1.950   1.659 -2.4891  1.4146 -0.1269
  983TIP3   OH224363   0.434   0.165   5.880 -0.1933  0.0985  0.8497
  983TIP3    H124364   0.444   0.070   5.878 -0.5732  0.0185  1.9594
  983TIP3    H224365   0.523   0.199   5.871  0.2959 -0.4359  3.0503
  984TIP3   OH224366   1.905   3.586  14.375 -0.2796 -0.4554 -0.3484
  984TIP3    H124367   1.973   3.591  14.308  1.1809 -0.2761  1.1094
  984TIP3    H224368   1.831   3.634  14.337 -0.5620 -2.7348 -3.0090
  985TIP3   OH224369   0.604   6.489  13.722  0.0736 -0.1868  0.1490
  985TIP3    H124370   0.642   6.401  13.714  0.9166  0.0895  1.0314
  985TIP3    H224371   0.571   6.493  13.811  0.6553  0.6332  0.3377
  986TIP3   OH224372   6.455   2.430  11.956 -0.4195 -0.2400 -0.2808
  986TIP3    H124373   6.540   2.386  11.958  0.9741  2.2356 -1.0864
  986TIP3    H224374   6.405   2.382  11.889  0.7439 -1.0489 -0.6042
  987TIP3   OH224375   1.552   1.358  14.611 -0.4015 -0.0421 -0.3339
  987TIP3    H124376   1.457   1.368  14.603 -0.2768  1.2129 -0.5483
  987TIP3    H224377   1.565   1.265  14.626 -1.9169  0.1928  3.6236
  988TIP3   OH224378   2.311   0.326  10.989  0.5031 -0.0920 -0.3947
  988TIP3    H124379   2.403   0.302  10.998  0.4984  0.0951  0.1663
  988TIP3    H224380   2.291   0.377  11.068 -0.1554 -0.3744 -0.3718
  989TIP3   OH224381   0.439   4.313   2.998  0.4216 -0.0651  0.6652
  989TIP3    H124382   0.420   4.336   2.907 -0.1483  1.0386  1.0497
  989TIP3    H224383   0.368   4.255   3.024 -0.1336  0.6618  0.7968
  990TIP3   OH224384   3.039   4.492   2.294  0.1253  0.0782 -0.0915
  990TIP3    H124385   3.102   4.435   2.337 -0.5913 -0.7115 -0.0601
  990TIP3    H224386   3.064   4.580   2.321  1.4437 -0.1757 -0.3959
  991TIP3   OH224387   1.828   3.787  16.961 -0.4314  0.5621 -0.3327
  991TIP3    H124388   1.827   3.706  16.909  1.2820  0.7248 -0.6562
  991TIP3    H224389   1.794   3.854  16.902  0.0832  0.4596 -0.7507
  992TIP3   OH224390   0.091   5.962  14.465 -0.0629 -0.2628 -0.0940
  992TIP3    H124391   0.060   6.051  14.446  0.9838  0.0192 -0.5524
  992TIP3    H224392   0.091   5.957  14.561  0.3360  0.4092 -0.0528
  993TIP3   OH224393   3.756   3.294  13.094  0.0537 -0.1562 -0.2410
  993TIP3    H124394   3.753   3.322  13.185 -0.5848 -1.3404  0.1111
  993TIP3    H224395   3.672   3.253  13.078  0.3512 -0.4151 -1.2186
  994TIP3   OH224396   6.557   5.984  12.147 -0.0448  0.3816  0.3176
  994TIP3    H124397   6.549   5.956  12.238 -0.9963 -2.7512 -0.5882
  994TIP3    H224398   6.485   5.940  12.103  0.5878  1.5514 -2.0305
  995TIP3   OH224399   6.522   0.798   2.540 -0.1540  0.2393  0.1622
  995TIP3    H124400   6.582   0.726   2.559  0.8110  1.0445  0.2431
  995TIP3    H224401   6.437   0.768   2.574  0.1264 -1.0214 -0.1794
  996TIP3   OH224402   1.692   1.699   0.486 -0.2561 -0.3590  0.0287
  996TIP3    H124403   1.610   1.736   0.519  0.7342  2.2262 -0.1166
  996TIP3    H224404   1.752   1.774   0.483  1.6527 -1.8393 -1.3362
  997TIP3   OH224405   4.951   4.784   4.659 -0.7749  0.1819  0.0274
  997TIP3    H124406   5.032   4.742   4.632 -1.6116 -0.4248 -1.6634
  997TIP3    H224407   4.979   4.858   4.713  0.9510  0.5506 -1.2870
  998TIP3   OH224408   0.389   5.584  13.178  0.1404  0.0246  0.0159
  998TIP3    H124409   0.387   5.618  13.267  0.3693  0.1085 -0.0110
  998TIP3    H224410   0.327   5.639  13.130 -0.2226 -0.2260  0.1955
  999TIP3   OH224411   2.071   3.111  11.290  0.6590 -0.4931 -0.6599
  999TIP3    H124412   2.038   3.075  11.373  2.2908 -2.2221 -0.6947
  999TIP3    H224413   2.101   3.034  11.242 -0.8674  0.3822 -3.1894
 1000TIP3   OH224414   5.308   5.245   4.925  0.1095  0.2624  0.2907
 1000TIP3    H124415   5.277   5.334   4.944  0.2882  0.3360  0.2491
 1000TIP3    H224416   5.258   5.218   4.848 -0.5485 -0.0019  0.8001
 1001TIP3   OH224417   0.376   1.498  12.035  0.3780 -0.3629 -0.2266
 1001TIP3    H124418   0.331   1.431  11.984 -2.3835  0.1075  1.4241
 1001TIP3    H224419   0.370   1.577  11.982 -0.8665 -0.2941 -0.0025
 1002TIP3   OH224420   5.253   3.516  16.543 -0.4091 -0.8477 -0.0352
 1002TIP3    H124421   5.217   3.454  16.607 -0.8866 -0.3006  0.2440
 1002TIP3    H224422   5.233   3.478  16.458  0.4605 -1.7142  0.1310
 1003TIP3   OH224423   2.522   4.422   2.263 -0.3291 -0.0385 -0.1405
 1003TIP3    H124424   2.617   4.413   2.266 -0.3786 -0.6431 -0.3629
 1003TIP3    H224425   2.494   4.362   2.194 -0.7557  1.1062 -1.0080
 1004TIP3   OH224426   1.626   0.987   3.533 -0.3437  0.8655  0.6522
 1004TIP3    H124427   1.571   1.049   3.582 -0.2269  2.0139 -0.5927
 1004TIP3    H224428   1.695   0.962   3.593 -0.7576  1.4618  1.3864
 1005TIP3   OH224429   5.862   5.556   5.587  0.0820  0.2883 -0.1896
 1005TIP3    H124430   5.791   5.536   5.526 -0.8447  0.5793  0.7571
 1005TIP3    H224431   5.890   5.644   5.563 -1.1635  0.9344  0.5857
 1006TIP3   OH224432   5.701   3.681   4.847  0.0906  0.4835 -0.6129
 1006TIP3    H124433   5.700   3.596   4.804 -0.0779  0.7343 -1.1094
 1006TIP3    H224434   5.786   3.719   4.824  0.2302  0.3871 -0.2641
 1007TIP3   OH224435   1.398   1.296  14.178 -0.2173 -0.5986  0.1828
 1007TIP3    H124436   1.358   1.215  14.145  0.9250 -0.9275 -0.4684
 1007TIP3    H224437   1.443   1.332  14.102 -0.0096  0.2117  0.6860
 1008TIP3   OH224438   2.947   4.304   6.034  0.1926 -0.1422  0.2565
 1008TIP3    H124439   2.926   4.397   6.034  2.8724  0.5825  1.2874
 1008TIP3    H224440   2.869   4.261   5.999 -1.9131  2.2870  1.6200
 1009TIP3   OH224441   0.805   1.541  11.505 -0.1308  0.2461 -0.8403
 1009TIP3    H124442   0.735   1.566  11.444 -0.4521 -0.0861 -0.6153
 1009TIP3    H224443   0.792   1.598  11.581  0.6555  1.0989 -1.3275
 1010TIP3   OH224444   2.044   1.573   3.178 -0.0974 -0.3781 -0.2098
 1010TIP3    H124445   2.072   1.584   3.087 -2.3923 -1.3850 -1.1290
 1010TIP3    H224446   2.122   1.541   3.223  0.9323 -0.4946 -1.9643
 1011TIP3   OH224447   5.168   5.289  14.551  0.6681  0.9601 -0.0182
 1011TIP3    H124448   5.104   5.358  14.566 -1.3312 -0.6475 -0.7406
 1011TIP3    H224449   5.141   5.218  14.609  0.1661 -0.7246 -2.1883
 1012TIP3   OH224450   5.666   5.433   0.907 -0.6130  0.2118 -0.2177
 1012TIP3    H124451   5.625   5.375   0.843 -0.6809  0.9066 -0.8122
 1012TIP3    H224452   5.669   5.381   0.987 -0.7861 -0.5708 -0.7049
 1013TIP3   OH224453   5.020   5.488   1.694  0.2343 -0.5269 -0.3543
 1013TIP3    H124454   5.096   5.486   1.636 -0.7570  2.3318 -1.9707
 1013TIP3    H224455   5.053   5.519   1.778  0.8329  1.3133 -1.2234
 1014TIP3   OH224456   1.748   3.345  11.526 -0.0829  0.4727  0.0203
 1014TIP3    H124457   1.734   3.390  11.443 -0.7986  2.9916  1.3982
 1014TIP3    H224458   1.699   3.264  11.518 -0.7500  1.0064 -1.7411
 1015TIP3   OH224459   3.072   6.645   3.457  0.5296 -0.0122 -0.0939
 1015TIP3    H124460   3.033   6.650   3.370  0.5510 -1.2908 -0.1853
 1015TIP3    H224461   3.071   6.736   3.488 -0.4398  0.3094 -0.9975
 1016TIP3   OH224462   6.211   2.641  15.091 -0.0188  0.7113 -0.4885
 1016TIP3    H124463   6.216   2.733  15.064 -0.8298  0.6940 -0.7363
 1016TIP3    H224464   6.185   2.645  15.183  0.3468  0.7344 -0.3854
 1017TIP3   OH224465   4.014   5.477   6.002 -0.0991  0.1885  0.6424
 1017TIP3    H124466   4.012   5.503   6.095 -1.4028  0.3727  0.5867
 1017TIP3    H224467   4.031   5.559   5.955  2.7293 -0.2259  0.7768
 1018TIP3   OH224468   3.107   5.513  11.611  0.3749 -0.5395 -0.1548
 1018TIP3    H124469   3.167   5.449  11.648  0.5091  1.1005  2.7781
 1018TIP3    H224470   3.021   5.488  11.645  0.1382 -0.2590 -0.5434
 1019TIP3   OH224471   2.763   3.165   2.642  0.3109 -1.0823 -0.5670
 1019TIP3    H124472   2.856   3.142   2.637  0.4849 -0.6015  0.2933
 1019TIP3    H224473   2.750   3.231   2.574  0.6154 -1.0954 -0.6372
 1020TIP3   OH224474   2.648   6.713  12.209  0.1709  0.1233 -1.0199
 1020TIP3    H124475   2.567   6.748  12.173  0.3414  0.5413 -1.0065
 1020TIP3    H224476   2.662   6.631  12.161 -1.3282 -1.0322  0.4023
 1021TIP3   OH224477   3.141   6.561  13.149  0.1864 -0.4623 -0.2454
 1021TIP3    H124478   3.179   6.604  13.226 -0.8833  0.1070 -0.0099
 1021TIP3    H224479   3.064   6.614  13.129 -0.3768 -1.4821 -0.8059
 1022TIP3   OH224480   0.432   5.318  16.880 -0.3999  0.0300  0.0089
 1022TIP3    H124481   0.447   5.322  16.786 -0.4753  1.2870  0.0329
 1022TIP3    H224482   0.518   5.296  16.917 -0.3605 -0.4214 -0.3404
 1023TIP3   OH224483   5.176   0.431   0.135  0.3008  0.4381  0.1385
 1023TIP3    H124484   5.162   0.337   0.122 -0.6206  0.4284  1.0989
 1023TIP3    H224485   5.259   0.437   0.181  1.3570  0.2259 -1.6557
 1024TIP3   OH224486   6.633   6.611   0.987  0.2937 -0.3424  0.2944
 1024TIP3    H124487   6.601   6.595   0.898 -1.6574  0.7298  0.7571
 1024TIP3    H224488   6.569   6.568   1.044  1.9475 -1.7012  1.2116
 1025TIP3   OH224489   3.157   5.720  12.912  0.5798  0.0423  0.2722
 1025TIP3    H124490   3.201   5.775  12.978 -2.3546  0.8412  1.7137
 1025TIP3    H224491   3.091   5.777  12.874  0.0971 -1.3804 -1.1318
 1026TIP3   OH224492   4.539   1.007   1.957  0.4921 -0.7099  0.1638
 1026TIP3    H124493   4.472   1.005   2.026  0.5709  0.2667  0.2926
 1026TIP3    H224494   4.501   0.957   1.885  0.0678 -1.0667  0.6280
 1027TIP3   OH224495   6.474   1.399   3.579 -0.0138  0.2119  0.4457
 1027TIP3    H124496   6.549   1.377   3.523 -0.6595  0.3735 -0.5081
 1027TIP3    H224497   6.510   1.459   3.645  0.7127  0.2384  0.0365
 1028TIP3   OH224498   3.154   1.362  15.231 -0.5310  0.3762  0.2562
 1028TIP3    H124499   3.084   1.371  15.166 -0.3823  1.8011  0.2441
 1028TIP3    H224500   3.153   1.446  15.277  1.5227  0.6378 -0.1087
 1029TIP3   OH224501   1.050   5.111  12.478 -0.4377 -0.5694 -0.1853
 1029TIP3    H124502   1.035   5.113  12.384 -0.6984  1.6881 -0.1477
 1029TIP3    H224503   1.049   5.018  12.501  0.8079 -1.2409 -2.5715
 1030TIP3   OH224504   0.355   5.764   5.263  0.3229  0.2795 -0.3233
 1030TIP3    H124505   0.320   5.851   5.281 -0.6387 -0.5676  2.3960
 1030TIP3    H224506   0.327   5.745   5.173 -1.5198  1.8353 -0.1436
 1031TIP3   OH224507   2.666   4.150  17.392  0.2785  0.8700 -0.4217
 1031TIP3    H124508   2.633   4.202  17.465 -1.2052  0.2204 -0.6026
 1031TIP3    H224509   2.692   4.066  17.431 -1.1449  0.2732 -0.7109
 1032TIP3   OH224510   5.584   6.378  13.891  0.6690  0.3587 -0.1639
 1032TIP3    H124511   5.501   6.421  13.913  1.4276  1.1554  1.3010
 1032TIP3    H224512   5.636   6.382  13.972  2.3313  0.3558 -1.1754
 1033TIP3   OH224513   3.122   4.660   5.244 -0.3576 -0.2415  0.1668
 1033TIP3    H124514   3.049   4.605   5.271 -0.8835  0.3683  0.0060
 1033TIP3    H224515   3.192   4.599   5.223 -1.2343 -0.9010 -0.9241
 1034TIP3   OH224516   5.753   0.434  17.164 -0.2281 -0.0278  0.1642
 1034TIP3    H124517   5.695   0.506  17.139 -0.2699 -0.2498 -0.4030
 1034TIP3    H224518   5.821   0.433  17.096  0.2671  0.0254  0.6453
 1035TIP3   OH224519   6.673   2.924  13.560 -0.3366  0.0985  0.5167
 1035TIP3    H124520   6.639   2.846  13.516 -1.4790  0.6374  0.4157
 1035TIP3    H224521   6.661   2.994  13.496  0.9358  0.3198  0.5036
 1036TIP3   OH224522   2.470   1.394   1.613  0.1179 -0.3706 -0.4305
 1036TIP3    H124523   2.564   1.379   1.626 -0.0497  0.6892  2.9406
 1036TIP3    H224524   2.428   1.328   1.668 -1.0473  0.6092 -0.1151
 1037TIP3   OH224525   1.714   2.034   2.915 -0.3981 -0.0017 -0.4102
 1037TIP3    H124526   1.764   1.952   2.915 -0.2893  0.0504  0.5152
 1037TIP3    H224527   1.762   2.092   2.857  0.4781 -0.0485  0.2443
 1038TIP3   OH224528   2.774   1.230   4.118  0.0012  0.1817 -0.6909
 1038TIP3    H124529   2.766   1.283   4.197 -2.1073 -0.8360 -0.1589
 1038TIP3    H224530   2.707   1.163   4.127  0.1891 -0.4078 -3.0202
 1039TIP3   OH224531   6.259   3.274   4.000 -0.1756 -0.0987 -0.5086
 1039TIP3    H124532   6.172   3.235   3.998 -0.8725  1.2552  1.0178
 1039TIP3    H224533   6.319   3.199   4.007 -1.3140 -0.9738  0.1691
 1040TIP3   OH224534   5.382   5.124   2.829  0.1493  0.5148 -0.5295
 1040TIP3    H124535   5.451   5.183   2.856 -0.5142  1.0441  0.0288
 1040TIP3    H224536   5.359   5.075   2.908  0.6320 -0.4542 -0.9594
 1041TIP3   OH224537   1.022   0.844  16.979 -0.5725 -1.0831  0.4087
 1041TIP3    H124538   1.100   0.867  16.929 -0.9872 -0.6328 -0.0340
 1041TIP3    H224539   0.957   0.821  16.913 -0.9016 -1.1981  0.7687
 1042TIP3   OH224540   0.848   5.360   0.981 -0.3072 -0.0661 -0.1957
 1042TIP3    H124541   0.924   5.308   0.954  0.3985  0.2262  1.1709
 1042TIP3    H224542   0.810   5.392   0.898 -0.3919 -2.1884 -1.0355
 1043TIP3   OH224543   5.281   3.073   2.748  1.0253  0.7376 -0.6866
 1043TIP3    H124544   5.266   3.159   2.709  0.2309  0.4706 -1.0024
 1043TIP3    H224545   5.216   3.016   2.706  0.4527  0.3451  0.6855
 1044TIP3   OH224546   6.707   6.420   1.409  0.3470  0.1762  0.8370
 1044TIP3    H124547   6.774   6.379   1.354 -0.6886 -0.4704  0.0273
 1044TIP3    H224548   6.693   6.506   1.368 -0.5075 -0.3496 -0.0212
 1045TIP3   OH224549   1.034   3.076   0.745 -0.4038  0.7822  0.5680
 1045TIP3    H124550   0.964   3.014   0.724  0.9748 -1.1826  1.4245
 1045TIP3    H224551   0.996   3.134   0.810 -1.2402 -0.2700  1.0530
 1046TIP3   OH224552   3.355   2.702  14.012 -0.3694  0.0617 -0.6901
 1046TIP3    H124553   3.423   2.634  14.007 -0.5076 -0.0799 -0.6424
 1046TIP3    H224554   3.385   2.770  13.951  1.5743  1.5787  1.7516
 1047TIP3   OH224555   2.174   2.516   3.899  0.3924 -0.5648  0.0203
 1047TIP3    H124556   2.203   2.526   3.990 -0.7830  0.0610  0.3470
 1047TIP3    H224557   2.125   2.596   3.881  0.4217 -0.7925 -1.0983
 1048TIP3   OH224558   1.077   1.248   0.571  0.4664  0.3489 -0.2546
 1048TIP3    H124559   1.163   1.208   0.583 -0.6566 -2.2671 -0.1106
 1048TIP3    H224560   1.049   1.219   0.484 -0.7448  0.0524  0.2004
 1049TIP3   OH224561   0.093   1.990  12.834 -0.1702 -0.2332 -0.3942
 1049TIP3    H124562   0.086   2.085  12.840  1.9169 -0.0697  0.3743
 1049TIP3    H224563   0.020   1.963  12.779 -2.3353  1.5421  1.4501
 1050TIP3   OH224564   5.490   6.664   4.623 -0.5512 -0.2991 -0.3213
 1050TIP3    H124565   5.466   6.622   4.541  0.3481 -0.3786 -0.5602
 1050TIP3    H224566   5.514   6.753   4.600  0.1206 -0.4440 -0.2262
 1051TIP3   OH224567   0.037   3.563  16.383  0.9545  0.0562  0.3857
 1051TIP3    H124568   0.112   3.612  16.414 -1.9657  3.1337  3.4508
 1051TIP3    H224569  -0.003   3.620  16.317 -0.2159 -0.1102  0.9201
 1052TIP3   OH224570   5.397   2.934   3.530 -0.6467 -0.6247 -0.0166
 1052TIP3    H124571   5.469   2.912   3.589  0.2036  1.3423 -0.2266
 1052TIP3    H224572   5.421   2.894   3.447 -0.5747 -1.2546  0.2998
 1053TIP3   OH224573   5.255   4.912   5.876  0.1277 -0.2642  0.2106
 1053TIP3    H124574   5.308   4.973   5.927  0.6961 -1.0222  0.5480
 1053TIP3    H224575   5.200   4.968   5.822  2.3904  0.6091 -1.3726
 1054TIP3   OH224576   0.115   6.594   2.427 -0.2801 -0.2107 -0.3400
 1054TIP3    H124577   0.190   6.648   2.402 -0.2601 -0.4965 -0.9000
 1054TIP3    H224578   0.077   6.564   2.345 -0.4276 -0.8631 -0.0454
 1055TIP3   OH224579   0.579   5.924   5.172 -0.3931  0.2747  0.0327
 1055TIP3    H124580   0.528   5.869   5.231  0.0058  1.7245  1.8212
 1055TIP3    H224581   0.668   5.922   5.207  0.2631 -0.1944 -1.5533
 1056TIP3   OH224582   3.289   1.166   3.930  0.3774  0.2051  0.3879
 1056TIP3    H124583   3.377   1.166   3.966  0.9003  0.0566 -0.8485
 1056TIP3    H224584   3.255   1.254   3.948  1.3914  0.8155 -0.5570
 1057TIP3   OH224585   3.004   0.933  16.102 -0.3803  0.0232 -0.4877
 1057TIP3    H124586   3.062   0.860  16.083  0.3655  0.1685  1.0265
 1057TIP3    H224587   2.920   0.908  16.064  0.1004 -1.1938 -0.7935
 1058TIP3   OH224588   1.060   3.031   0.420 -0.2921 -0.7434 -0.9070
 1058TIP3    H124589   1.068   2.955   0.361  0.8880 -0.3919 -1.2320
 1058TIP3    H224590   1.150   3.051   0.445 -0.6292  0.2850 -0.4756
 1059TIP3   OH224591   1.398   2.922  14.971  0.2581  0.2975 -1.0969
 1059TIP3    H124592   1.389   2.828  14.953 -0.8307 -0.2558  1.7235
 1059TIP3    H224593   1.492   2.937  14.972  0.4366 -0.5168 -2.5465
 1060TIP3   OH224594   3.555   5.335  16.521 -0.0405  0.2176  0.1103
 1060TIP3    H124595   3.605   5.326  16.602  0.1364 -0.7637 -0.1018
 1060TIP3    H224596   3.501   5.413  16.535  2.4376  2.0875 -0.1406
 1061TIP3   OH224597   5.391   6.314  12.823 -0.0400  0.3567  0.2995
 1061TIP3    H124598   5.336   6.249  12.780  1.2103  0.8281 -2.2102
 1061TIP3    H224599   5.480   6.295  12.791  0.5791  2.2945  0.7520
 1062TIP3   OH224600   5.991   5.392  12.899 -0.4110  0.0362 -0.4556
 1062TIP3    H124601   5.981   5.437  12.983 -2.7380  0.5863 -0.9477
 1062TIP3    H224602   5.979   5.299  12.921 -0.0673  0.0816 -0.0595
 1063TIP3   OH224603   0.007   2.712   6.229  0.2974 -0.3606 -0.2501
 1063TIP3    H124604   0.085   2.666   6.260  0.8115 -0.1619 -1.2019
 1063TIP3    H224605  -0.055   2.705   6.301 -0.1320 -3.6314 -0.7727
 1064TIP3   OH224606   0.147   1.233   0.352  0.0025  0.2985 -0.2871
 1064TIP3    H124607   0.057   1.200   0.357 -0.5940  1.6272 -1.4923
 1064TIP3    H224608   0.173   1.244   0.444 -0.1952 -2.2488  0.1377
 1065TIP3   OH224609   0.512   4.949  16.026  0.2145  0.1485  0.4009
 1065TIP3    H124610   0.542   5.016  15.964  3.3620 -0.2372  1.3445
 1065TIP3    H224611   0.497   4.998  16.108 -2.7315  0.4557 -0.2204
 1066TIP3   OH224612   3.757   2.815   2.667 -0.3376  0.3857  0.0165
 1066TIP3    H124613   3.770   2.731   2.623 -1.3451  0.2274  0.0137
 1066TIP3    H224614   3.702   2.795   2.742  0.8230  0.7716  0.9931
 1067TIP3   OH224615   6.509   4.628   5.860  0.4212  0.0848 -0.2313
 1067TIP3    H124616   6.449   4.667   5.924  1.4551  0.6824  0.4064
 1067TIP3    H224617   6.557   4.702   5.824  2.7727 -0.5386  1.3671
 1068TIP3   OH224618   1.647   2.300  13.224 -0.0520 -0.4191 -0.1564
 1068TIP3    H124619   1.647   2.391  13.253 -0.0375  0.1926 -1.9552
 1068TIP3    H224620   1.556   2.272  13.233  0.3321 -1.0536  2.6728
 1069TIP3   OH224621   2.042   2.934   5.777  0.0473  0.2441  0.0912
 1069TIP3    H124622   2.035   3.016   5.729  0.1105  0.7317  0.8942
 1069TIP3    H224623   2.108   2.951   5.845 -1.0602  0.0537  1.2690
 1070TIP3   OH224624   2.598   6.173   3.272 -0.3943  0.4792 -0.5038
 1070TIP3    H124625   2.596   6.104   3.339 -1.4562  0.9733 -0.0144
 1070TIP3    H224626   2.658   6.139   3.205 -1.5217 -1.3077 -0.6780
 1071TIP3   OH224627   3.315   6.445   1.936  0.0325 -0.3664 -0.1460
 1071TIP3    H124628   3.247   6.384   1.963 -1.0407  0.8534 -0.0091
 1071TIP3    H224629   3.334   6.420   1.845 -1.7519  0.2464 -0.7350
 1072TIP3   OH224630   5.781   3.332  16.055 -0.1237 -0.1243 -0.0068
 1072TIP3    H124631   5.835   3.258  16.084 -0.2663  0.1147  0.8985
 1072TIP3    H224632   5.765   3.315  15.962  1.4296 -0.2368 -0.2729
 1073TIP3   OH224633   0.746   3.586   0.669  0.1461  0.0888 -0.3973
 1073TIP3    H124634   0.737   3.535   0.750 -0.6663  0.1403 -0.4448
 1073TIP3    H224635   0.806   3.534   0.615  2.4496  1.0837  1.0292
 1074TIP3   OH224636   4.009   6.013   4.906  0.2754 -0.3316  0.4112
 1074TIP3    H124637   3.984   5.998   4.997 -0.9759 -0.7266  0.0229
 1074TIP3    H224638   4.073   6.084   4.910  0.0466 -0.1769  1.5768
 1075TIP3   OH224639   3.810   2.675  14.161  0.2119 -0.1718 -0.1530
 1075TIP3    H124640   3.836   2.721  14.241 -0.7238 -2.7562  1.7880
 1075TIP3    H224641   3.823   2.583  14.181 -2.2397 -1.0642 -2.1417
 1076TIP3   OH224642   4.749   5.533  12.232  0.0448  0.8803  0.3914
 1076TIP3    H124643   4.779   5.448  12.264 -0.3749  1.1750  1.6077
 1076TIP3    H224644   4.752   5.590  12.309  0.0976  1.9141 -0.3550
 1077TIP3   OH224645   3.952   3.935  13.105  0.7907  0.0291 -0.0544
 1077TIP3    H124646   3.920   3.869  13.043 -1.1229  0.8956 -0.0462
 1077TIP3    H224647   3.877   3.955  13.160  2.0211  0.4593  1.5284
 1078TIP3   OH224648   6.343   5.861   1.653 -0.3212 -0.4550 -0.3334
 1078TIP3    H124649   6.301   5.947   1.657  0.6713  0.1298 -1.5813
 1078TIP3    H224650   6.271   5.799   1.643 -1.0603  0.2032  0.6881
 1079TIP3   OH224651   1.081   6.707   0.657  0.6192 -0.0094 -0.3176
 1079TIP3    H124652   1.087   6.652   0.735  1.9599 -0.6196 -0.8156
 1079TIP3    H224653   1.035   6.786   0.686  0.6876 -0.4245  0.9698
 1080TIP3   OH224654   0.174   1.791  17.384 -0.6396 -0.0792 -0.3688
 1080TIP3    H124655   0.122   1.831  17.453  0.8776 -0.5692  1.1336
 1080TIP3    H224656   0.113   1.732  17.340 -1.0954 -1.7106  2.2293
 1081TIP3   OH224657   5.125   2.482  16.068  0.4474 -0.0756  0.0484
 1081TIP3    H124658   5.166   2.423  16.004 -0.6264 -0.6124 -0.1744
 1081TIP3    H224659   5.169   2.462  16.151  2.0290  0.8068 -0.5471
 1082TIP3   OH224660   0.936   4.271  14.995  0.6139  0.4935 -0.0685
 1082TIP3    H124661   1.016   4.323  14.988  2.4023 -1.7761  1.8631
 1082TIP3    H224662   0.917   4.268  15.089 -2.3012  1.6336 -0.5205
 1083TIP3   OH224663   2.649   2.328  12.513 -0.1383  0.3367 -0.4523
 1083TIP3    H124664   2.702   2.270  12.569 -2.4660  1.1525  2.9341
 1083TIP3    H224665   2.713   2.386  12.472  1.7955  0.2107  2.0876
 1084TIP3   OH224666   5.316   3.640   3.645 -0.1614  0.3311  0.7184
 1084TIP3    H124667   5.364   3.676   3.570  0.0572  0.1015  0.7470
 1084TIP3    H224668   5.342   3.548   3.648  1.1549  0.7013  2.0949
 1085TIP3   OH224669   1.703   6.539  11.622 -0.1486  0.0053  0.6247
 1085TIP3    H124670   1.627   6.597  11.619 -0.6587 -0.6501  0.7337
 1085TIP3    H224671   1.706   6.498  11.535  1.9784  2.3779 -0.5704
 1086TIP3   OH224672   4.932   3.685   0.043 -0.0585  0.1272 -0.0565
 1086TIP3    H124673   4.946   3.648  -0.044  0.2188  0.6955 -0.2642
 1086TIP3    H224674   4.872   3.758   0.029 -1.1725 -0.6588  0.4480
 1087TIP3   OH224675   2.408   0.642   2.580  0.7460  0.1597  0.3342
 1087TIP3    H124676   2.341   0.696   2.538 -1.6676 -2.0674  1.0959
 1087TIP3    H224677   2.411   0.562   2.528  0.6161 -0.9979  2.0277
 1088TIP3   OH224678   2.556   5.379  13.507 -0.0733 -0.4172 -0.1634
 1088TIP3    H124679   2.560   5.394  13.601  1.2345 -2.2270  0.1135
 1088TIP3    H224680   2.481   5.319  13.496 -0.7269  0.4240 -0.3918
 1089TIP3   OH224681   0.298   5.091   1.574 -0.1221 -0.0333  0.0855
 1089TIP3    H124682   0.277   5.045   1.493  0.1659 -0.1345  0.0675
 1089TIP3    H224683   0.297   5.023   1.641 -0.7094  0.1106  0.2237
 1090TIP3   OH224684   4.835   5.995   2.695 -0.1776  0.4607  0.1779
 1090TIP3    H124685   4.806   5.904   2.694 -0.3757  0.5069 -1.8884
 1090TIP3    H224686   4.765   6.044   2.653  0.7206  1.2804 -0.4245
 1091TIP3   OH224687   3.596   1.792   0.529  0.1947  0.3464 -0.3187
 1091TIP3    H124688   3.634   1.771   0.614 -0.1259 -2.0497 -0.6839
 1091TIP3    H224689   3.664   1.842   0.484  1.8533 -1.4028  0.0876
 1092TIP3   OH224690   5.581   3.162   0.887 -0.0284  0.0826 -0.5241
 1092TIP3    H124691   5.594   3.239   0.942 -0.5506  0.6799 -1.2080
 1092TIP3    H224692   5.486   3.154   0.879 -0.1252 -2.3106  1.7966
 1093TIP3   OH224693   4.591   2.232   6.224  0.5609  0.3770 -0.2592
 1093TIP3    H124694   4.640   2.190   6.153  0.0742  0.7569 -0.8323
 1093TIP3    H224695   4.525   2.167   6.249  0.5416  0.3570 -0.3602
 1094TIP3   OH224696   4.294   6.574   6.028 -0.5005  0.3936  0.5875
 1094TIP3    H124697   4.322   6.514   5.959 -0.9294  0.5014  0.3144
 1094TIP3    H224698   4.360   6.644   6.026  0.0361 -0.0933  0.9510
 1095TIP3   OH224699   1.010   2.732  17.403 -0.1718  0.3945 -0.0227
 1095TIP3    H124700   1.001   2.644  17.368 -0.1974  0.4853 -0.2427
 1095TIP3    H224701   1.068   2.722  17.478 -2.4830 -0.3305  1.8107
 1096TIP3   OH224702   5.952   1.085   1.154 -0.0035  0.0564  0.0643
 1096TIP3    H124703   5.862   1.075   1.185  0.4445 -0.3828  1.2950
 1096TIP3    H224704   6.000   1.121   1.229  0.8894  0.0982 -0.5043
 1097TIP3   OH224705   2.796   2.017  16.317  0.3382  0.7057  0.4929
 1097TIP3    H124706   2.730   2.042  16.382  0.1815  0.5139  0.4070
 1097TIP3    H224707   2.749   2.019  16.234 -0.0603 -1.2332  0.6168
 1098TIP3   OH224708   5.185   5.745  11.658 -1.0874  0.4510  0.7017
 1098TIP3    H124709   5.220   5.774  11.575 -0.6591 -1.9424 -0.0356
 1098TIP3    H224710   5.117   5.809  11.680 -1.0212  1.2682 -1.3326
 1099TIP3   OH224711   5.423   1.382   5.437 -0.6478  0.3295  0.7377
 1099TIP3    H124712   5.451   1.345   5.521  0.7573  0.1140  0.2024
 1099TIP3    H224713   5.495   1.439   5.410 -0.8471  0.0056 -0.5553
 1100TIP3   OH224714   4.899   5.509   3.772 -0.0190  0.2699  0.2667
 1100TIP3    H124715   4.935   5.426   3.742 -0.4153  0.3809 -0.5337
 1100TIP3    H224716   4.843   5.539   3.701 -2.3390 -0.2531  1.7590
 1101TIP3   OH224717   2.624   4.965   4.768  0.0967  0.0687  0.2860
 1101TIP3    H124718   2.623   4.881   4.722 -1.8612 -0.1570  0.6533
 1101TIP3    H224719   2.594   4.944   4.857  2.1646  0.7652  1.2062
 1102TIP3   OH224720   0.248   3.063  17.254 -0.7330 -0.0985  0.4608
 1102TIP3    H124721   0.245   2.967  17.245 -0.0939 -0.3414  2.4240
 1102TIP3    H224722   0.288   3.078  17.340 -2.4087  1.9069  0.9773
 1103TIP3   OH224723   4.798   1.961   5.716 -0.0283  0.4943 -0.1004
 1103TIP3    H124724   4.809   1.988   5.625 -0.7352 -0.1766 -0.3909
 1103TIP3    H224725   4.707   1.982   5.737 -0.1712 -0.3156  0.1190
 1104TIP3   OH224726   2.044   3.387  13.227  0.4721  0.2605 -0.1056
 1104TIP3    H124727   1.983   3.434  13.284 -0.4586  0.3305 -1.1131
 1104TIP3    H224728   2.045   3.438  13.146 -0.0391 -1.0558 -0.9778
 1105TIP3   OH224729   4.391   6.576  14.028  0.0726  0.4474 -1.3012
 1105TIP3    H124730   4.445   6.643  14.071  0.4756 -0.9169  0.4556
 1105TIP3    H224731   4.307   6.619  14.012 -0.3549  0.8811  1.5628
 1106TIP3   OH224732   2.526   0.150   0.990  0.2844 -0.1890  0.0007
 1106TIP3    H124733   2.607   0.187   0.955 -0.1223 -1.0046 -1.9084
 1106TIP3    H224734   2.553   0.067   1.030  0.4237 -0.4158 -0.5511
 1107TIP3   OH224735   4.764   2.164  13.388 -0.4394  0.0028  0.2036
 1107TIP3    H124736   4.696   2.208  13.337 -1.2069 -0.8259  0.4864
 1107TIP3    H224737   4.829   2.232  13.407  0.6641  0.0766 -3.1498
 1108TIP3   OH224738   4.740   5.764  11.705 -0.1517 -0.1347  0.0067
 1108TIP3    H124739   4.652   5.794  11.683  0.2592  0.6263 -0.6362
 1108TIP3    H224740   4.787   5.763  11.621  0.1881 -1.4610  0.1849
 1109TIP3   OH224741   2.685   2.255   1.085  0.2089  0.4112 -0.0520
 1109TIP3    H124742   2.635   2.191   1.136 -0.3706  0.7807 -0.1523
 1109TIP3    H224743   2.775   2.221   1.086 -0.1146 -0.4616 -0.1990
 1110TIP3   OH224744   4.693   1.941  17.013  0.0670  0.6747  0.3390
 1110TIP3    H124745   4.733   1.897  16.938  0.9593  2.0808 -0.0670
 1110TIP3    H224746   4.680   1.872  17.078  1.0935 -0.2297 -0.3837
 1111TIP3   OH224747   2.806   2.108   1.934 -0.2893 -0.3755  0.1626
 1111TIP3    H124748   2.773   2.092   2.022 -0.5277 -0.5266  0.0447
 1111TIP3    H224749   2.834   2.199   1.936  0.5369 -0.6249  0.6626
 1112TIP3   OH224750   4.474   5.464   1.750  0.4709  0.5425 -0.2953
 1112TIP3    H124751   4.508   5.512   1.825 -0.2312 -1.6853  1.5909
 1112TIP3    H224752   4.496   5.372   1.768 -0.8934 -0.2244 -2.1471
 1113TIP3   OH224753   2.192   6.613   6.381  0.7533  1.7636 -0.3740
 1113TIP3    H124754   2.280   6.608   6.419  0.0425  0.5250  1.2553
 1113TIP3    H224755   2.143   6.667   6.443 -0.3311  0.0454  0.3452
 1114TIP3   OH224756   2.091   0.998  11.453 -0.3691  0.1150  0.0289
 1114TIP3    H124757   2.182   0.983  11.479 -0.6251 -0.9948  0.3500
 1114TIP3    H224758   2.097   1.054  11.375  0.5204  1.1618  0.8084
 1115TIP3   OH224759   3.820   2.054  13.628 -0.1497  0.4478 -0.0317
 1115TIP3    H124760   3.902   2.035  13.672  1.3052 -1.1462 -3.1128
 1115TIP3    H224761   3.835   2.139  13.585  0.4365 -0.3832 -1.5657
 1116TIP3   OH224762   0.555   5.250  14.378 -0.0317 -0.0257 -0.2752
 1116TIP3    H124763   0.641   5.247  14.335  0.1298  2.2885 -0.2152
 1116TIP3    H224764   0.570   5.211  14.464  0.3918 -1.7106 -1.0543
 1117TIP3   OH224765   1.450   5.310   2.500  0.1135 -0.4093  0.3568
 1117TIP3    H124766   1.453   5.276   2.410  0.5177 -1.5712  0.7906
 1117TIP3    H224767   1.428   5.234   2.553  2.2175 -0.2817  1.4907
 1118TIP3   OH224768   2.876   4.157   0.593 -0.3143 -0.3244 -0.6024
 1118TIP3    H124769   2.782   4.142   0.580  0.0994 -3.5167 -0.6976
 1118TIP3    H224770   2.896   4.234   0.539 -2.8015  0.3049 -0.7428
 1119TIP3   OH224771   1.825   4.455  17.301 -0.3779 -0.8318  0.8509
 1119TIP3    H124772   1.905   4.453  17.249 -0.6497  1.4138  0.2286
 1119TIP3    H224773   1.854   4.443  17.392  0.8403  1.1564  0.7660
 1120TIP3   OH224774   3.480   1.005  14.004 -0.7162 -0.7208  0.2907
 1120TIP3    H124775   3.454   1.092  14.033  2.1371  1.3121 -2.4602
 1120TIP3    H224776   3.562   0.988  14.051  0.5421 -0.2482 -1.5934
 1121TIP3   OH224777   4.776   1.157   3.976 -0.0282 -0.2594 -0.3033
 1121TIP3    H124778   4.855   1.139   4.026 -0.6336 -2.5450 -0.0443
 1121TIP3    H224779   4.793   1.240   3.932  1.1664  1.0333  2.3691
 1122TIP3   OH224780   6.519   2.912   5.309 -0.1262  0.5641  0.4454
 1122TIP3    H124781   6.575   2.848   5.266  1.9018  2.7799 -0.4514
 1122TIP3    H224782   6.477   2.959   5.237 -0.1372  1.4407  1.0051
 1123TIP3   OH224783   4.967   3.703   6.645 -0.3078  0.7206  0.6539
 1123TIP3    H124784   5.015   3.786   6.643 -1.1224  1.1930 -0.0339
 1123TIP3    H224785   4.889   3.720   6.593  0.1157 -0.8590 -0.5565
 1124TIP3   OH224786   1.463   6.215   1.353  0.1215 -0.1312 -0.3505
 1124TIP3    H124787   1.428   6.232   1.266 -2.5162  1.7798  0.9496
 1124TIP3    H224788   1.400   6.155   1.393  0.7906 -0.2512  0.5587
 1125TIP3   OH224789   2.833   5.582   4.753 -0.1236  0.1628  0.0600
 1125TIP3    H124790   2.901   5.576   4.820 -0.4325 -0.6897  0.3146
 1125TIP3    H224791   2.779   5.504   4.768 -0.9263  0.6284 -0.3843
 1126TIP3   OH224792   6.487   6.536   1.208 -0.5289 -0.7010  0.3796
 1126TIP3    H124793   6.560   6.582   1.251  0.1338 -0.2425 -1.1773
 1126TIP3    H224794   6.409   6.580   1.239 -0.0587 -0.2716  0.9796
 1127TIP3   OH224795   3.169   5.840  14.210 -0.3412 -0.1091 -0.2640
 1127TIP3    H124796   3.123   5.814  14.131 -0.3197  0.0246 -0.3214
 1127TIP3    H224797   3.142   5.777  14.276  1.3057 -1.5690 -0.9155
 1128TIP3   OH224798   0.546   1.418   2.975 -0.3077  0.3637  0.5860
 1128TIP3    H124799   0.535   1.504   2.934 -0.3971  0.7371  1.3682
 1128TIP3    H224800   0.488   1.420   3.051 -0.9214 -0.6949  0.1662
 1129TIP3   OH224801   6.135   0.618   3.357  0.1412  0.2049  0.3895
 1129TIP3    H124802   6.210   0.588   3.409  0.6902  2.0494  0.7224
 1129TIP3    H224803   6.165   0.697   3.314 -1.7103  1.2215  0.8365
 1130TIP3   OH224804   2.207   6.120   1.159 -0.4785  0.0444 -0.2811
 1130TIP3    H124805   2.133   6.072   1.121 -1.0410  0.7769 -0.1253
 1130TIP3    H224806   2.177   6.210   1.165  0.6875  0.4904 -0.8631
 1131TIP3   OH224807   2.116   3.879  16.599  0.4453 -0.1343  0.6681
 1131TIP3    H124808   2.078   3.810  16.544  4.7236 -0.5012 -2.4150
 1131TIP3    H224809   2.179   3.832  16.654  1.1060  0.9732  0.8697
 1132TIP3   OH224810   2.437   4.880  11.898  0.2595  0.3681 -0.2371
 1132TIP3    H124811   2.369   4.814  11.912  0.3559 -0.2022 -2.1258
 1132TIP3    H224812   2.516   4.840  11.934 -0.4798  1.4835  2.9969
 1133TIP3   OH224813   5.335   2.576   0.988 -0.6982  0.1024 -0.3996
 1133TIP3    H124814   5.254   2.564   0.940  0.0948 -1.8821 -1.3479
 1133TIP3    H224815   5.401   2.530   0.936  0.7815  0.4782  1.0482
 1134TIP3   OH224816   3.623   0.037  12.435 -0.0411  0.4218  0.1568
 1134TIP3    H124817   3.642   0.060  12.525  1.4962 -0.4557  0.0808
 1134TIP3    H224818   3.673   0.100  12.383  0.0343  0.1678 -0.0799
 1135TIP3   OH224819   5.387   5.843  16.552 -0.5399 -0.4146 -0.2178
 1135TIP3    H124820   5.345   5.794  16.481  2.2504 -0.9041 -1.6995
 1135TIP3    H224821   5.419   5.923  16.510  0.7264 -0.4761  0.5862
 1136TIP3   OH224822   2.675   2.872  16.974  0.2189 -0.1711  0.1059
 1136TIP3    H124823   2.627   2.941  17.020  0.3445  1.5751 -2.1975
 1136TIP3    H224824   2.649   2.882  16.883  1.3135 -2.3313 -0.5019
 1137TIP3   OH224825   5.805   3.751  16.027  0.2875  0.7725 -0.0920
 1137TIP3    H124826   5.838   3.680  16.082  1.7816  0.9676 -0.6898
 1137TIP3    H224827   5.790   3.709  15.942  1.1689  1.1559 -0.4442
 1138TIP3   OH224828   3.428   6.171  11.579 -0.3338 -0.7150  0.4747
 1138TIP3    H124829   3.343   6.128  11.585  0.4164 -2.2087  1.0314
 1138TIP3    H224830   3.445   6.178  11.485 -1.7409  1.0764  0.2998
 1139TIP3   OH224831   0.923   3.637   1.318 -0.4839 -0.6254  0.0406
 1139TIP3    H124832   0.885   3.694   1.385 -0.7485 -0.7449 -0.0086
 1139TIP3    H224833   1.017   3.652   1.325 -0.4122 -1.5329  1.2680
 1140TIP3   OH224834   1.606   5.327   5.586  0.6207 -0.2434 -0.2226
 1140TIP3    H124835   1.641   5.353   5.501  0.3983 -0.6339 -0.4327
 1140TIP3    H224836   1.547   5.398   5.610 -1.7066 -1.5069 -1.8044
 1141TIP3   OH224837   0.683   2.265   4.961 -0.3872 -0.4191  0.0928
 1141TIP3    H124838   0.757   2.243   5.017 -1.3988 -1.8522  0.9168
 1141TIP3    H224839   0.720   2.267   4.873  0.7536 -0.4712  0.5518
 1142TIP3   OH224840   3.916   0.513  13.027  0.0913 -0.1050  0.5312
 1142TIP3    H124841   3.933   0.446  13.093  0.3755 -1.7872 -1.1663
 1142TIP3    H224842   3.822   0.510  13.013  0.3280 -1.7087 -1.0389
 1143TIP3   OH224843   3.858   0.042  13.106  0.3135  0.3149 -0.9244
 1143TIP3    H124844   3.916  -0.029  13.079 -0.4794 -0.0707 -1.6547
 1143TIP3    H224845   3.770   0.004  13.101 -0.1224  1.3460 -1.3399
 1144TIP3   OH224846   4.886   0.178   1.807  0.2047 -0.5620 -0.9606
 1144TIP3    H124847   4.928   0.179   1.893 -1.4747 -0.1915 -0.1174
 1144TIP3    H224848   4.792   0.175   1.825 -0.2385  0.5884 -2.7609
 1145TIP3   OH224849   1.487   3.945  12.526 -0.5206 -0.3376  0.3384
 1145TIP3    H124850   1.572   3.930  12.568 -0.2390 -2.2298 -0.8023
 1145TIP3    H224851   1.444   3.860  12.529 -2.0562  0.4118  0.1659
 1146TIP3   OH224852   2.638   1.005  14.103  0.1263  0.4601  0.2246
 1146TIP3    H124853   2.731   1.029  14.103  0.1964  0.2069 -0.1615
 1146TIP3    H224854   2.618   0.988  14.011 -0.3438  0.6621  0.2909
 1147TIP3   OH224855   2.593   0.185  13.880  0.2000  0.0262  0.1439
 1147TIP3    H124856   2.528   0.186  13.811 -0.6241 -0.6067  0.8868
 1147TIP3    H224857   2.600   0.092  13.905 -0.9854  0.4352  2.2272
 1148TIP3   OH224858   2.135   5.205   0.397  0.1441 -0.2142 -0.0090
 1148TIP3    H124859   2.079   5.280   0.378  1.4487  0.8890  0.4030
 1148TIP3    H224860   2.076   5.142   0.439 -1.3660 -0.1663 -1.9301
 1149TIP3   OH224861   4.690   0.525  12.877  0.1372  0.3231  0.1803
 1149TIP3    H124862   4.717   0.526  12.785  1.6566 -3.1944  0.4049
 1149TIP3    H224863   4.773   0.527  12.925 -0.5577  0.2683  1.4099
 1150TIP3   OH224864   3.762   3.276   3.319 -0.2788 -0.3777  0.1496
 1150TIP3    H124865   3.675   3.281   3.357  0.8121  0.3667  2.7545
 1150TIP3    H224866   3.773   3.359   3.271 -1.3135 -0.9069 -1.0566
 1151TIP3   OH224867   0.488   4.672  15.646  0.0054 -0.0800 -0.2959
 1151TIP3    H124868   0.398   4.702  15.631 -0.4599 -1.5215 -0.5240
 1151TIP3    H224869   0.484   4.577  15.637  1.7056 -0.1205 -1.0542
 1152TIP3   OH224870   3.859   0.505  16.107  0.8166  0.0387  0.4796
 1152TIP3    H124871   3.941   0.457  16.094  0.3295 -0.7441  0.2225
 1152TIP3    H224872   3.839   0.493  16.200  0.9187  0.1057  0.5106
 1153TIP3   OH224873   1.693   3.745  13.176 -0.3724 -0.2090 -0.1490
 1153TIP3    H124874   1.754   3.682  13.214  0.3173  0.2577 -0.4823
 1153TIP3    H224875   1.656   3.791  13.252 -1.8983 -1.8822  0.2200
 1154TIP3   OH224876   0.185   1.509   3.119 -0.1584 -0.5638 -0.4626
 1154TIP3    H124877   0.090   1.517   3.128 -0.2833 -2.3108  0.1061
 1154TIP3    H224878   0.203   1.539   3.030 -1.5056 -1.9069 -1.2450
 1155TIP3   OH224879   3.479   6.187   1.877 -0.5421 -0.0853 -0.0390
 1155TIP3    H124880   3.520   6.231   1.951 -0.1064 -2.4882  1.2751
 1155TIP3    H224881   3.421   6.253   1.839  2.4724  2.6240 -0.3426
 1156TIP3   OH224882   3.409   0.067   5.991 -0.2733  0.1428 -0.2277
 1156TIP3    H124883   3.366   0.136   6.042 -0.8115 -0.2506 -0.1331
 1156TIP3    H224884   3.423   0.105   5.905 -4.6600 -0.9586 -1.7108
 1157TIP3   OH224885   1.513   0.781  15.661  0.0730 -0.4138 -0.2645
 1157TIP3    H124886   1.480   0.762  15.573 -0.8752  0.6771 -0.1576
 1157TIP3    H224887   1.514   0.876  15.667 -0.0415 -0.4722  0.9653
 1158TIP3   OH224888   6.526   0.739   1.973  0.8989  0.3373  0.1790
 1158TIP3    H124889   6.481   0.808   2.022  0.4685  0.8361 -0.8827
 1158TIP3    H224890   6.613   0.775   1.955  0.4938  0.8606 -0.8446
 1159TIP3   OH224891   4.329   5.287  15.123  0.0378  0.3076 -0.0200
 1159TIP3    H124892   4.380   5.243  15.056 -1.2079 -0.0244 -0.7918
 1159TIP3    H224893   4.361   5.250  15.206  1.2460  0.3605 -0.4496
 1160TIP3   OH224894   6.195   0.676  12.876  0.2737 -0.1127  0.2606
 1160TIP3    H124895   6.274   0.701  12.924 -0.3640  1.1147  0.7165
 1160TIP3    H224896   6.187   0.582  12.890  1.5166 -0.2144  0.4036
 1161TIP3   OH224897   3.861   3.607   0.444  0.1851 -0.1022 -0.0406
 1161TIP3    H124898   3.807   3.542   0.399 -0.2692  0.8496 -0.9030
 1161TIP3    H224899   3.916   3.555   0.502 -1.6151 -1.1219  0.8504
 1162TIP3   OH224900   0.520   4.176   5.332  0.3313  0.3711 -0.0684
 1162TIP3    H124901   0.534   4.094   5.379  0.1760 -0.1147 -0.8475
 1162TIP3    H224902   0.584   4.237   5.370 -0.0317  0.1001  1.0014
 1163TIP3   OH224903   2.361   0.431   5.506 -0.1612  0.4563  0.2578
 1163TIP3    H124904   2.274   0.421   5.543 -0.7467 -0.3791 -1.2654
 1163TIP3    H224905   2.359   0.381   5.424  0.9812  2.3373 -1.0151
 1164TIP3   OH224906   6.488   1.007   2.346  0.8196 -0.4888  0.1824
 1164TIP3    H124907   6.511   0.945   2.416  0.3059 -1.5147 -0.5349
 1164TIP3    H224908   6.572   1.030   2.306  0.8742 -2.5287 -1.0181
 1165TIP3   OH224909   6.553   1.895  13.926 -0.3187  0.1609 -0.3800
 1165TIP3    H124910   6.515   1.922  14.010 -0.2123 -1.5826  0.2699
 1165TIP3    H224911   6.481   1.849  13.882  0.1685 -0.5635 -0.4242
 1166TIP3   OH224912   0.416   0.584   5.781  0.0439  0.2862 -0.0671
 1166TIP3    H124913   0.410   0.540   5.696  1.0295 -1.0004  0.4825
 1166TIP3    H224914   0.351   0.540   5.836 -2.0672  2.4827 -0.6457
 1167TIP3   OH224915   6.622   5.987   3.882  0.2321  0.4539  0.0525
 1167TIP3    H124916   6.602   5.951   3.796 -0.5784  2.0967 -0.4732
 1167TIP3    H224917   6.566   6.064   3.891  0.6296  0.5933  1.8644
 1168TIP3   OH224918   3.118   5.629   6.360  0.3216 -0.1402  0.0921
 1168TIP3    H124919   3.028   5.619   6.391  0.5470 -1.1271  0.4571
 1168TIP3    H224920   3.172   5.597   6.432  0.8939 -1.3710 -0.8394
 1169TIP3   OH224921   2.473   0.188   5.821  0.4732 -0.0977 -0.1662
 1169TIP3    H124922   2.411   0.128   5.778 -1.1115  1.2844  0.0610
 1169TIP3    H224923   2.522   0.133   5.881  0.6395 -1.5490 -1.5573
 1170TIP3   OH224924   4.937   5.868  16.016 -0.0543 -0.8908 -0.7912
 1170TIP3    H124925   4.947   5.836  15.927 -0.0822 -0.2471 -1.0302
 1170TIP3    H224926   5.027   5.876  16.049 -0.0137 -0.5610 -0.9728
 1171TIP3   OH224927   3.603   1.849   3.973 -0.0563 -0.3926 -0.2487
 1171TIP3    H124928   3.669   1.890   4.029 -0.5289 -0.3438  0.2786
 1171TIP3    H224929   3.573   1.774   4.023  0.7534 -1.3731 -1.1832
 1172TIP3   OH224930   2.715   5.704   2.159  0.3370 -0.2393 -0.5088
 1172TIP3    H124931   2.797   5.717   2.206  0.2663  1.1927 -0.7458
 1172TIP3    H224932   2.649   5.699   2.229  0.1173  2.7286 -0.3657
 1173TIP3   OH224933   3.728   6.744   0.099 -0.7978 -0.6497 -0.1256
 1173TIP3    H124934   3.751   6.783   0.183 -1.5383 -0.1106 -0.1638
 1173TIP3    H224935   3.702   6.819   0.045  0.3724 -0.9007 -1.0717
 1174TIP3   OH224936   3.719   1.448  16.978 -0.0908 -0.5107 -0.1253
 1174TIP3    H124937   3.680   1.452  17.066  0.0740  0.8586 -0.0902
 1174TIP3    H224938   3.812   1.433  16.994 -0.3480 -2.2539 -0.1549
 1175TIP3   OH224939   4.044   5.877  15.899 -0.4953 -0.1593  0.0923
 1175TIP3    H124940   4.046   5.894  15.805 -1.3676  0.9275  0.2539
 1175TIP3    H224941   4.084   5.954  15.939 -0.4748 -0.4477  0.6372
 1176TIP3   OH224942   3.070   0.024   6.204  0.2766  0.2642 -0.2288
 1176TIP3    H124943   3.130  -0.023   6.147 -1.3856 -0.3876 -1.5156
 1176TIP3    H224944   3.085  -0.013   6.291  1.4406 -0.1321 -0.5815
 1177TIP3   OH224945   4.916   3.160   2.923  0.3799  0.0072  0.2086
 1177TIP3    H124946   4.849   3.095   2.903  0.2527  0.2122 -0.0453
 1177TIP3    H224947   4.984   3.112   2.971  0.6552 -0.4854 -0.6588
 1178TIP3   OH224948   1.509   5.072  11.414 -0.2665  0.1334 -0.8127
 1178TIP3    H124949   1.491   4.978  11.413  0.1345 -0.0461  1.9594
 1178TIP3    H224950   1.430   5.112  11.375 -0.7764 -1.2796 -1.2857
 1179TIP3   OH224951   1.718   5.706  15.384  0.6483  0.8326  0.4073
 1179TIP3    H124952   1.698   5.676  15.296  0.5092 -0.2938  0.8023
 1179TIP3    H224953   1.814   5.708  15.388  0.7519 -1.8989  1.0744
 1180TIP3   OH224954   0.035   6.131   0.329 -0.7472  0.2462  0.8290
 1180TIP3    H124955   0.071   6.051   0.291 -0.6040  0.2862  0.8813
 1180TIP3    H224956  -0.045   6.103   0.373  0.5908 -0.3126  3.0442
 1181TIP3   OH224957   5.981   5.161   1.831 -0.1121 -0.8620 -0.3571
 1181TIP3    H124958   6.040   5.146   1.905  1.5703  4.3945 -0.2469
 1181TIP3    H224959   6.028   5.126   1.755  0.9485 -0.9818  0.3401
 1182TIP3   OH224960   1.819   3.170  15.342 -0.2337 -0.6934 -0.5590
 1182TIP3    H124961   1.889   3.104  15.341 -0.3719 -0.9168  1.0804
 1182TIP3    H224962   1.860   3.246  15.384 -0.5409 -0.3054 -0.9705
 1183TIP3   OH224963   5.332   1.396   0.074  0.1468  0.3326  0.0800
 1183TIP3    H124964   5.252   1.386   0.023 -0.4735 -0.3842  1.1380
 1183TIP3    H224965   5.302   1.428   0.159  1.0512  0.6607  0.2908
 1184TIP3   OH224966   3.129   3.367  16.916 -0.2693 -0.5610  0.1387
 1184TIP3    H124967   3.145   3.424  16.992  0.8370  1.1435 -1.2839
 1184TIP3    H224968   3.040   3.391  16.888 -0.0996 -0.0634  0.0052
 1185TIP3   OH224969   0.654   0.006   3.282  0.4733 -0.0714 -0.4302
 1185TIP3    H124970   0.646  -0.050   3.359  0.8000 -2.1681 -1.8448
 1185TIP3    H224971   0.667   0.094   3.318  0.0782 -0.8799  1.8816
 1186TIP3   OH224972   6.236   5.946   2.895 -0.0054  0.1177 -0.0730
 1186TIP3    H124973   6.210   5.926   2.985  0.1063  2.7045  0.5996
 1186TIP3    H224974   6.325   5.979   2.902  1.0618 -2.1762 -1.5421
 1187TIP3   OH224975   3.990   0.690  17.095  0.2194  0.2020  0.4902
 1187TIP3    H124976   3.916   0.629  17.088 -1.0386  1.5019  1.8441
 1187TIP3    H224977   4.040   0.675  17.014 -2.0256 -0.0413 -0.9616
 1188TIP3   OH224978   2.390   6.341   6.341  0.5154  0.4359  0.3220
 1188TIP3    H124979   2.381   6.287   6.420 -0.1619  0.0723  0.0024
 1188TIP3    H224980   2.467   6.305   6.296  2.3644  2.0895  1.9214
 1189TIP3   OH224981   2.353   6.693  14.051 -0.1381 -1.0511 -0.7607
 1189TIP3    H124982   2.257   6.696  14.058 -0.0812 -1.5457  0.4899
 1189TIP3    H224983   2.381   6.782  14.068 -0.3397 -1.0643 -0.3487
 1190TIP3   OH224984   4.844   2.013  13.705 -0.4081  0.7361 -0.0054
 1190TIP3    H124985   4.888   2.077  13.761 -0.7230  0.5648  0.4314
 1190TIP3    H224986   4.753   2.040  13.704 -0.4840  0.4808 -0.0806
 1191TIP3   OH224987   6.537   6.096  11.777 -0.0144  0.2111 -0.6401
 1191TIP3    H124988   6.471   6.026  11.782  0.0400  0.1368 -0.9490
 1191TIP3    H224989   6.540   6.132  11.866 -0.5528  0.2923 -0.6526
 1192TIP3   OH224990   4.779   5.004   3.789 -0.6079 -0.1130  0.1474
 1192TIP3    H124991   4.773   4.910   3.770 -0.3730  0.3816 -2.7454
 1192TIP3    H224992   4.839   5.039   3.723 -0.9076  2.1440  0.9669
 1193TIP3   OH224993   5.280   0.444   1.639  0.2711  0.3662  0.9104
 1193TIP3    H124994   5.191   0.452   1.675 -0.3636 -0.7859 -0.3459
 1193TIP3    H224995   5.298   0.350   1.640  0.0004  0.1885 -2.2088
 1194TIP3   OH224996   6.219   6.619  14.800 -0.1739 -0.6152  0.1237
 1194TIP3    H124997   6.237   6.622  14.706  0.4623  0.5184  0.2589
 1194TIP3    H224998   6.272   6.690  14.837 -0.7281 -0.7774  1.2858
 1195TIP3   OH224999   6.736   1.740   1.484  0.3533  0.6508  0.2602
 1195TIP3    H125000   6.691   1.823   1.471 -0.8283  0.2048  1.3220
 1195TIP3    H225001   6.687   1.678   1.430  1.6430  0.7219 -1.0811
 1196TIP3   OH225002   0.649   5.506  14.583 -0.2217  0.1009  0.1763
 1196TIP3    H125003   0.686   5.520  14.670  1.2656  0.9163 -0.5565
 1196TIP3    H225004   0.634   5.412  14.579  1.5861 -0.2546  0.6175
 1197TIP3   OH225005   3.141   4.589  17.009  0.1428  0.7097 -0.0119
 1197TIP3    H125006   3.063   4.545  16.977  0.1652  1.7654 -1.6525
 1197TIP3    H225007   3.214   4.543  16.967  0.2641  1.0868 -0.2258
 1198TIP3   OH225008   5.125   6.243   4.628  0.4755  0.2747  0.5872
 1198TIP3    H125009   5.038   6.217   4.598  0.7440 -2.6266  2.0272
 1198TIP3    H225010   5.109   6.302   4.701 -0.2064  1.1058 -0.1965
 1199TIP3   OH225011   2.255   3.754   5.841  0.5220  0.0276  0.1111
 1199TIP3    H125012   2.338   3.794   5.868  1.5662 -0.7070 -1.7677
 1199TIP3    H225013   2.206   3.826   5.800  0.3553  0.3964  0.9458
 1200TIP3   OH225014   4.384   1.754   0.777 -0.2735  0.3626  0.6702
 1200TIP3    H125015   4.354   1.820   0.839  0.0152  1.0922  0.0536
 1200TIP3    H225016   4.318   1.685   0.781 -1.2738  1.2663  0.3971
 1201TIP3   OH225017   0.780   6.634  12.784 -0.8631  0.0728 -0.1615
 1201TIP3    H125018   0.728   6.556  12.763 -1.4183  0.3222  0.2625
 1201TIP3    H225019   0.827   6.610  12.864  0.4164 -0.4894 -1.0527
 1202TIP3   OH225020   0.507   3.282  10.933 -0.2540 -0.1430  0.0875
 1202TIP3    H125021   0.445   3.271  10.860 -0.2045 -0.1909  0.0527
 1202TIP3    H225022   0.576   3.218  10.916  0.0840  0.2773 -0.1676
 1203TIP3   OH225023   0.293   5.343   1.650  0.0857 -0.0704 -0.1512
 1203TIP3    H125024   0.255   5.331   1.737 -0.8275  1.3121 -0.3286
 1203TIP3    H225025   0.287   5.256   1.609 -0.2177 -0.5461  0.8732
 1204TIP3   OH225026   4.236   5.525   2.881  0.0289 -0.1928 -0.6828
 1204TIP3    H125027   4.146   5.493   2.891 -0.1651  0.5258  0.0406
 1204TIP3    H225028   4.289   5.446   2.873 -0.4213 -0.7474  1.1854
 1205TIP3   OH225029   0.873   1.211   2.269  0.4950 -0.2738 -0.4224
 1205TIP3    H125030   0.872   1.146   2.339  0.0981  0.7949  0.5973
 1205TIP3    H225031   0.954   1.261   2.285 -0.3974  0.9957  0.2748
 1206TIP3   OH225032   0.132   4.226   0.666 -0.5498  0.0969 -0.3802
 1206TIP3    H125033   0.041   4.245   0.644 -1.3801 -0.6325  2.1718
 1206TIP3    H225034   0.183   4.271   0.598 -2.7853  0.1958 -2.0841
 1207TIP3   OH225035   4.260   4.653  14.616 -0.5637 -0.2292  0.5617
 1207TIP3    H125036   4.277   4.606  14.534  1.5521  1.8995 -0.3261
 1207TIP3    H225037   4.168   4.635  14.635 -0.7240 -1.9698 -1.4834
 1208TIP3   OH225038   0.671   0.735   5.078 -0.3630 -0.4479  0.4358
 1208TIP3    H125039   0.675   0.824   5.113  1.0350 -1.6318  3.6917
 1208TIP3    H225040   0.584   0.703   5.102 -0.4588 -0.3204  0.2577
 1209TIP3   OH225041   0.594   5.641  17.101  0.1689  0.0983  0.8960
 1209TIP3    H125042   0.672   5.638  17.045 -0.0538  0.7466  0.5349
 1209TIP3    H225043   0.607   5.719  17.155 -0.8568  1.0304 -0.1341
 1210TIP3   OH225044   1.210   2.494   2.958  0.4174  0.1879 -0.4666
 1210TIP3    H125045   1.120   2.524   2.957  0.7256  1.2019  0.2159
 1210TIP3    H225046   1.217   2.440   3.037  0.6996  1.1261  0.1682
 1211TIP3   OH225047   3.995   1.750   1.986 -0.1464  0.5449  0.6134
 1211TIP3    H125048   4.037   1.726   2.069  0.9605  1.4763  0.3531
 1211TIP3    H225049   4.061   1.802   1.940 -0.8185  0.2232 -0.7713
 1212TIP3   OH225050   0.599   3.659   3.045  0.2235 -0.2187 -0.5255
 1212TIP3    H125051   0.680   3.704   3.020  0.1373 -0.6267 -1.5630
 1212TIP3    H225052   0.531   3.707   2.998 -0.1734  0.2258  0.4721
 1213TIP3   OH225053   3.375   4.930  17.342 -0.4022 -0.1017 -0.3633
 1213TIP3    H125054   3.325   4.850  17.323 -0.8291 -0.2100  1.1064
 1213TIP3    H225055   3.310   4.990  17.380 -0.2967  1.3166 -2.2428
 1214TIP3   OH225056   6.119   6.156   3.408 -0.0363  0.1433 -0.2985
 1214TIP3    H125057   6.051   6.094   3.432  0.0188  0.7672  1.6494
 1214TIP3    H225058   6.142   6.201   3.490 -0.1193  2.7703 -1.5860
 1215TIP3   OH225059   4.100   3.807   4.784  0.1094  1.5476  0.7343
 1215TIP3    H125060   4.115   3.733   4.843 -0.2467  1.5072  0.7786
 1215TIP3    H225061   4.144   3.881   4.826  1.6173  1.0824  0.0244
 1216TIP3   OH225062   0.694   5.127  11.962 -0.1897  0.3479 -0.1275
 1216TIP3    H125063   0.697   5.079  11.880 -1.2842  0.6753 -0.3794
 1216TIP3    H225064   0.765   5.090  12.015  0.0830 -0.3347 -0.9583
 1217TIP3   OH225065   1.205   0.193   4.684  0.3347  0.7285 -0.1293
 1217TIP3    H125066   1.120   0.195   4.638 -0.4004 -0.0729  1.1400
 1217TIP3    H225067   1.183   0.167   4.773  2.0248 -0.3855  0.0016
 1218TIP3   OH225068   2.054   0.058  13.813  0.3501  0.0867 -0.2715
 1218TIP3    H125069   1.967   0.097  13.810  0.3553  0.1197 -0.0190
 1218TIP3    H225070   2.060   0.020  13.901  0.6813  0.2919 -0.2058
 1219TIP3   OH225071   3.417   2.357  15.540  0.6974 -0.4502 -0.2653
 1219TIP3    H125072   3.342   2.415  15.525  1.7986  0.9354 -0.6738
 1219TIP3    H225073   3.391   2.303  15.615 -1.0952 -0.7342 -1.0216
 1220TIP3   OH225074   5.253   5.527  14.999  0.1292 -0.0367  0.3792
 1220TIP3    H125075   5.289   5.571  15.076  1.5851  1.5582 -1.1160
 1220TIP3    H225076   5.252   5.434  15.023  0.0607  0.4540  2.4660
 1221TIP3   OH225077   3.433   1.898  15.402  0.0366  0.0142  0.2183
 1221TIP3    H125078   3.391   1.955  15.466  0.5613  0.3339  0.2859
 1221TIP3    H225079   3.408   1.809  15.429 -1.9443  0.2359 -0.7022
 1222TIP3   OH225080   4.853   3.669  15.577  0.0691  0.3659 -0.3282
 1222TIP3    H125081   4.886   3.589  15.619  0.3473  0.5695 -0.1623
 1222TIP3    H225082   4.908   3.680  15.500 -0.2405  0.1666 -0.5807
 1223TIP3   OH225083   2.338   2.518   4.381 -0.1323  0.1844  0.1150
 1223TIP3    H125084   2.246   2.495   4.389  0.1238 -1.1063 -0.4548
 1223TIP3    H225085   2.361   2.496   4.291  1.0338 -0.6868  0.6044
 1224TIP3   OH225086   1.766   1.902   1.266  0.1330  0.3888  0.2343
 1224TIP3    H125087   1.715   1.831   1.228  1.9874 -0.6890 -0.3503
 1224TIP3    H225088   1.799   1.867   1.349  1.0623  0.5494 -0.0558
 1225TIP3   OH225089   4.990   5.370   2.607 -0.0380 -0.1374 -0.0461
 1225TIP3    H125090   4.896   5.384   2.597  0.0555  0.4581 -0.0995
 1225TIP3    H225091   5.031   5.440   2.556  0.4335 -0.0607  0.4209
 1226TIP3   OH225092   5.670   1.190  12.908  0.4839 -0.0906  0.1044
 1226TIP3    H125093   5.674   1.097  12.930  0.0140 -0.1061  0.1521
 1226TIP3    H225094   5.584   1.200  12.865  0.3952  0.3775  0.3870
 1227TIP3   OH225095   2.509   3.808   5.942  0.4340 -0.2588 -0.0675
 1227TIP3    H125096   2.486   3.789   6.033 -0.1325 -0.0038 -0.1561
 1227TIP3    H225097   2.594   3.765   5.930  0.4173 -0.4704  0.5180
 1228TIP3   OH225098   4.276   0.268   4.200  0.6249  0.1662 -0.3617
 1228TIP3    H125099   4.234   0.335   4.254  0.1166 -0.6834  0.3383
 1228TIP3    H225100   4.315   0.316   4.127 -1.7378  0.9958 -1.1750
 1229TIP3   OH225101   3.474   4.425  13.365 -0.2360  0.1724  0.1417
 1229TIP3    H125102   3.533   4.486  13.322  3.1326  0.6013  4.6684
 1229TIP3    H225103   3.411   4.480  13.411  0.6060  0.1106  1.3931
 1230TIP3   OH225104   1.612   2.962   3.963  0.3439 -0.9935  0.4180
 1230TIP3    H125105   1.695   3.011   3.962 -0.6405  0.7686 -1.3566
 1230TIP3    H225106   1.545   3.029   3.953 -1.3248 -2.4173  1.6281
 1231TIP3   OH225107   1.369   3.417   2.582 -0.1372  0.5451 -0.8423
 1231TIP3    H125108   1.331   3.345   2.532 -0.2657  1.7344 -2.5507
 1231TIP3    H225109   1.330   3.409   2.669 -0.7988 -0.9321 -1.2486
 1232TIP3   OH225110   2.787   4.663  12.202  0.2499  0.0536 -0.1001
 1232TIP3    H125111   2.786   4.572  12.232  0.2713  0.8053  2.3494
 1232TIP3    H225112   2.750   4.713  12.275  1.7078  2.2105 -0.7436
 1233TIP3   OH225113   3.894   1.856  10.838  0.0020  0.2702  0.4363
 1233TIP3    H125114   3.854   1.871  10.924  0.2641  0.8993  0.4489
 1233TIP3    H225115   3.928   1.941  10.812  2.5289 -0.4979  1.0141
 1234TIP3   OH225116   4.252   5.123   5.823  0.2387  0.5098 -0.3585
 1234TIP3    H125117   4.172   5.136   5.772 -0.5073 -1.7342  0.1082
 1234TIP3    H225118   4.226   5.141   5.913 -0.2160 -1.5448 -0.0093
 1235TIP3   OH225119   4.937   5.176   5.356 -0.6417  0.2974 -0.5447
 1235TIP3    H125120   4.849   5.196   5.324 -1.2246 -0.4469  0.5145
 1235TIP3    H225121   4.961   5.252   5.409 -0.7362  0.4230 -0.6814
 1236TIP3   OH225122   3.108   2.930   1.509  0.6633 -0.1311 -0.0734
 1236TIP3    H125123   3.033   2.874   1.488 -0.0194  0.3918  0.8646
 1236TIP3    H225124   3.161   2.931   1.430 -1.2902  1.0035 -1.4442
 1237TIP3   OH225125   4.558   6.269   4.163 -0.3064  0.2740 -0.0433
 1237TIP3    H125126   4.481   6.295   4.214 -0.0164  1.7283 -0.3010
 1237TIP3    H225127   4.571   6.340   4.101  0.5556 -0.5167 -0.8083
 1238TIP3   OH225128   3.239   6.489   0.845 -0.1722 -0.2169  0.3687
 1238TIP3    H125129   3.195   6.407   0.822  1.2221 -1.3668  1.5993
 1238TIP3    H225130   3.249   6.535   0.762  0.3243 -1.9698 -0.5747
 1239TIP3   OH225131   1.165   1.174   2.876 -0.8776 -0.1393  0.1545
 1239TIP3    H125132   1.210   1.124   2.809 -0.2747 -0.0813  0.5054
 1239TIP3    H225133   1.081   1.196   2.837 -0.9381 -0.9634 -0.2014
 1240TIP3   OH225134   0.599   1.851  11.404 -0.1762 -0.0472 -0.1324
 1240TIP3    H125135   0.626   1.919  11.343  0.1663 -1.9135 -2.1878
 1240TIP3    H225136   0.595   1.771  11.351 -2.5339 -1.2832  1.7049
 1241TIP3   OH225137   5.538   0.282   0.121 -0.5254  0.0005  0.3177
 1241TIP3    H125138   5.453   0.239   0.111  1.1552 -3.4749 -0.8330
 1241TIP3    H225139   5.570   0.292   0.031  0.5153  0.7854  0.7497
 1242TIP3   OH225140   3.606   4.632  15.843  0.3943 -0.2134  0.1290
 1242TIP3    H125141   3.611   4.540  15.869 -1.6786 -0.5222 -0.3796
 1242TIP3    H225142   3.551   4.632  15.764  2.1428  1.2540 -1.1888
 1243TIP3   OH225143   3.979   4.243  12.457 -0.0527 -0.1509 -0.5968
 1243TIP3    H125144   3.939   4.211  12.538  1.8940  0.2236  0.5932
 1243TIP3    H225145   4.053   4.184  12.442  1.1219  1.2755 -0.6610
 1244TIP3   OH225146   5.374   4.664   1.411  0.0499  0.6283 -0.2245
 1244TIP3    H125147   5.446   4.653   1.473  1.2050  0.6429 -1.5146
 1244TIP3    H225148   5.376   4.584   1.358 -0.1346  1.1229 -1.0008
 1245TIP3   OH225149   3.780   0.741  15.781  0.0780 -0.3491 -0.2059
 1245TIP3    H125150   3.803   0.670  15.721 -1.7853  1.5193 -3.4296
 1245TIP3    H225151   3.847   0.808  15.766  0.2246 -0.2861  0.6774
 1246TIP3   OH225152   1.880   4.930  14.491  0.0239 -0.1771 -0.0668
 1246TIP3    H125153   1.903   4.991  14.422 -2.0541  0.3407 -0.3798
 1246TIP3    H225154   1.959   4.921  14.544  1.3193  0.2560 -1.8722
 1247TIP3   OH225155   0.305   0.686  16.416  0.2433  0.2182 -1.0190
 1247TIP3    H125156   0.392   0.658  16.445 -1.0906 -1.2882  2.0173
 1247TIP3    H225157   0.290   0.636  16.336  0.7700 -2.5013  0.4588
 1248TIP3   OH225158   2.192   3.135  13.956  0.5994  0.3979  0.3630
 1248TIP3    H125159   2.118   3.136  13.895  1.4431  0.9977 -0.6675
 1248TIP3    H225160   2.246   3.209  13.930  0.8343  0.8504  2.0372
 1249TIP3   OH225161   6.628   5.505   3.497 -0.4319  0.2044  0.2887
 1249TIP3    H125162   6.665   5.561   3.428  2.8898 -2.1261 -0.0704
 1249TIP3    H225163   6.541   5.482   3.464  0.4292  0.4124 -2.4241
 1250TIP3   OH225164   0.401   4.946  11.726 -0.0641  0.1464  0.0289
 1250TIP3    H125165   0.418   4.971  11.636 -2.8050  0.7966 -0.4022
 1250TIP3    H225166   0.377   4.853  11.722  0.5552 -0.0338  0.2399
 1251TIP3   OH225167   3.573   1.569  12.355 -0.0502  0.2666  0.7519
 1251TIP3    H125168   3.627   1.490  12.346 -2.1941 -1.1871 -0.3943
 1251TIP3    H225169   3.602   1.626  12.284  0.2397 -0.3301  0.3852
 1252TIP3   OH225170   2.240   6.548   4.730  0.8033 -0.1764 -0.5897
 1252TIP3    H125171   2.293   6.510   4.661  1.4893  0.0914 -0.2160
 1252TIP3    H225172   2.300   6.559   4.804  0.7823  2.0803 -0.8337
 1253TIP3   OH225173   0.426   1.935   5.829 -0.1434  0.5846 -0.1467
 1253TIP3    H125174   0.410   2.027   5.851 -0.4165 -0.0918  2.9618
 1253TIP3    H225175   0.521   1.925   5.835 -0.1713  0.5159  0.1739
 1254TIP3   OH225176   5.102   0.238  17.313  0.4304 -0.3634  0.2116
 1254TIP3    H125177   5.165   0.302  17.282 -0.2671  0.5822  0.6753
 1254TIP3    H225178   5.123   0.158  17.266  1.0499  0.3224 -0.7073
 1255TIP3   OH225179   3.690   4.966  11.704 -0.1175  0.0383 -0.0647
 1255TIP3    H125180   3.728   5.036  11.758  0.9329  0.9899 -1.9215
 1255TIP3    H225181   3.698   4.888  11.758  0.4087  1.0187  1.3518
 1256TIP3   OH225182   6.201   3.577  13.073 -0.1494 -0.8025 -1.0417
 1256TIP3    H125183   6.237   3.568  13.162  0.2534  1.5802 -0.8789
 1256TIP3    H225184   6.119   3.528  13.075 -0.6373 -0.0396  0.9861
 1257TIP3   OH225185   6.625   0.128  14.681  0.2047  0.1684 -0.4363
 1257TIP3    H125186   6.718   0.142  14.701  0.7561  1.1423 -3.2616
 1257TIP3    H225187   6.597   0.210  14.641 -1.6391 -0.4815 -0.5571
 1258TIP3   OH225188   3.216   5.212   5.572 -0.1605  0.3466 -0.3952
 1258TIP3    H125189   3.279   5.245   5.636 -1.8557  0.4915  1.2475
 1258TIP3    H225190   3.180   5.133   5.611 -0.7675  0.0740 -1.4621
 1259TIP3   OH225191   3.017   0.877  15.595  0.2385  0.0901  0.5112
 1259TIP3    H125192   3.087   0.878  15.529 -0.6896  0.7790 -0.4946
 1259TIP3    H225193   2.947   0.825  15.556 -0.6622  1.2156  0.5543
 1260TIP3   OH225194   2.790   0.678  11.706 -0.2350  0.1043 -0.6381
 1260TIP3    H125195   2.870   0.637  11.674 -1.6971 -1.2974 -2.7837
 1260TIP3    H225196   2.738   0.606  11.741 -1.8484  0.4266 -2.2262
 1261TIP3   OH225197   5.758   1.824  11.923  0.1336  0.2305 -0.0162
 1261TIP3    H125198   5.720   1.852  12.006  0.2962 -1.3370  0.6149
 1261TIP3    H225199   5.698   1.858  11.857 -0.1934  1.1845  0.7440
 1262TIP3   OH225200   4.618   2.593   2.201  0.7918  0.2885 -0.5591
 1262TIP3    H125201   4.643   2.527   2.265  1.3958 -1.0414 -2.0861
 1262TIP3    H225202   4.601   2.672   2.252  3.6434 -0.0063  1.0122
 1263TIP3   OH225203   5.383   5.334   4.082  0.4422  0.7982  0.2495
 1263TIP3    H125204   5.433   5.318   4.162  1.8101  0.9343 -0.5471
 1263TIP3    H225205   5.336   5.252   4.067  3.3294 -0.7694 -0.9678
 1264TIP3   OH225206   0.849   2.290  16.379 -0.3750  0.1352 -0.4991
 1264TIP3    H125207   0.939   2.293  16.347 -0.0859 -0.1606  0.2435
 1264TIP3    H225208   0.858   2.287  16.474 -1.2032  1.2243 -0.3713
 1265TIP3   OH225209   1.306   6.729  17.115 -0.1394  0.3743 -1.0087
 1265TIP3    H125210   1.277   6.648  17.157  1.8673 -0.4706 -1.1381
 1265TIP3    H225211   1.252   6.798  17.155 -0.7263 -0.8283  0.3424
 1266TIP3   OH225212   5.689   3.680  12.598  0.1458 -0.2624 -0.0441
 1266TIP3    H125213   5.648   3.630  12.668  1.0078  1.1155  1.5033
 1266TIP3    H225214   5.622   3.741  12.568  0.3084  0.3447  0.8115
 1267TIP3   OH225215   4.767   6.477   1.241  0.2145 -0.4246  0.0673
 1267TIP3    H125216   4.798   6.504   1.154 -1.2371 -0.7754 -0.5930
 1267TIP3    H225217   4.691   6.532   1.257  0.2207 -0.6657  0.9374
 1268TIP3   OH225218   2.859   3.493  16.517  0.3162 -0.4705  0.1662
 1268TIP3    H125219   2.938   3.443  16.495  1.0483  0.7715 -0.1130
 1268TIP3    H225220   2.891   3.574  16.554 -0.8024  0.4274 -0.7375
 1269TIP3   OH225221   4.034   3.919  14.849 -0.2800 -0.3870  0.1081
 1269TIP3    H125222   3.971   3.852  14.822 -0.1214 -0.4931 -0.0016
 1269TIP3    H225223   4.092   3.929  14.773  0.3243 -0.8717  0.5014
 1270TIP3   OH225224   2.700   4.160  17.109  0.0883  0.0992 -0.5106
 1270TIP3    H125225   2.687   4.151  17.203  0.1041 -0.5763 -0.5681
 1270TIP3    H225226   2.656   4.242  17.086 -0.6838 -0.1760 -0.0592
 1271TIP3   OH225227   3.528   2.928  13.788 -0.3454 -0.1776  0.4807
 1271TIP3    H125228   3.562   2.906  13.875 -0.3586 -1.1721  0.2370
 1271TIP3    H225229   3.539   3.023  13.782  4.0938 -0.5500 -0.2651
 1272TIP3   OH225230   5.753   1.891  13.071 -0.7890 -0.3808  0.0727
 1272TIP3    H125231   5.716   1.835  13.003 -0.4105  1.5870 -1.8575
 1272TIP3    H225232   5.729   1.980  13.045  2.0552  0.7004  0.7518
 1273TIP3   OH225233   4.709   5.987   0.682  0.0268 -0.2443  0.0192
 1273TIP3    H125234   4.804   5.999   0.687  0.3581 -1.3831 -2.2280
 1273TIP3    H225235   4.689   5.986   0.589 -2.3256  0.6031  0.4248
 1274TIP3   OH225236   4.567   6.000  13.272 -0.2294 -0.5088 -0.1379
 1274TIP3    H125237   4.514   6.016  13.350 -1.3822 -0.1467 -0.9688
 1274TIP3    H225238   4.551   6.075  13.216  1.2315 -0.3671 -0.3975
 1275TIP3   OH225239   4.292   3.467  15.466 -0.1554 -0.4094  0.3144
 1275TIP3    H125240   4.290   3.373  15.485  0.4198 -0.0898  2.0840
 1275TIP3    H225241   4.385   3.486  15.453 -0.3271 -0.1696 -0.6923
 1276TIP3   OH225242   5.096   4.515  16.264 -0.2276  0.4061 -0.2745
 1276TIP3    H125243   5.095   4.525  16.359 -0.4743 -3.2148  0.2601
 1276TIP3    H225244   5.018   4.461  16.245  1.2908 -1.2902 -2.1102
 1277TIP3   OH225245   3.467   6.151  11.938 -0.2687 -0.3637  0.0919
 1277TIP3    H125246   3.379   6.170  11.904 -1.6684 -3.5885  1.5504
 1277TIP3    H225247   3.464   6.059  11.961  3.9992 -0.9606 -1.0018
 1278TIP3   OH225248   2.450   4.502   3.971  0.0248 -0.0272  0.0323
 1278TIP3    H125249   2.374   4.524   3.917  0.0135 -1.1153 -0.4338
 1278TIP3    H225250   2.517   4.476   3.907  1.2584  2.1672  0.3452
 1279TIP3   OH225251   0.988   4.614   3.445 -0.2490 -0.4597  0.0610
 1279TIP3    H125252   0.920   4.560   3.404  0.7783 -1.3759 -0.5004
 1279TIP3    H225253   1.051   4.630   3.375  0.8599 -0.8908  0.9256
 1280TIP3   OH225254   2.500   2.869   0.097  0.6002 -0.0204  0.8979
 1280TIP3    H125255   2.541   2.819   0.027  2.6283  1.4044  0.9739
 1280TIP3    H225256   2.477   2.953   0.056 -2.0728 -0.6252  0.9500
 1281TIP3   OH225257   0.848   0.565  13.900 -0.1897  0.8870  0.7759
 1281TIP3    H125258   0.936   0.594  13.873 -0.0128 -0.2603  0.0129
 1281TIP3    H225259   0.829   0.615  13.979  1.4451  0.6865  1.3448
 1282TIP3   OH225260   4.268   2.384   3.383 -0.4012  0.3231 -0.8096
 1282TIP3    H125261   4.279   2.325   3.457 -3.4170 -0.8446 -1.1464
 1282TIP3    H225262   4.291   2.470   3.417 -0.3276 -0.3865  1.0583
 1283TIP3   OH225263   3.750   1.938  12.853  0.3807 -0.8580 -0.4307
 1283TIP3    H125264   3.845   1.938  12.848  0.4691 -0.2218  0.8617
 1283TIP3    H225265   3.728   1.855  12.895  0.5491  0.0644  1.5739
 1284TIP3   OH225266   6.203   2.473  15.930 -0.1420 -0.0972  0.0162
 1284TIP3    H125267   6.255   2.409  15.881  0.3821  0.3633 -0.0300
 1284TIP3    H225268   6.224   2.455  16.022 -0.9431 -0.8032  0.0714
 1285TIP3   OH225269   1.302   0.354  14.868  0.8030 -0.3628 -0.3903
 1285TIP3    H125270   1.340   0.314  14.791  2.3053  0.0376  0.1111
 1285TIP3    H225271   1.287   0.281  14.928 -0.9190 -0.7561 -1.2351
 1286TIP3   OH225272   0.525   6.430  15.658  0.3096 -0.2856  0.1498
 1286TIP3    H125273   0.519   6.385  15.742  1.8910 -1.2719 -0.2277
 1286TIP3    H225274   0.569   6.513  15.678  0.0997 -0.2320  0.3904
 1287TIP3   OH225275   1.720   1.516   6.334 -0.4276 -0.4613  0.3837
 1287TIP3    H125276   1.796   1.468   6.301  0.4493  1.4329 -0.4608
 1287TIP3    H225277   1.719   1.498   6.428  1.2515 -0.2743  0.4531
 1288TIP3   OH225278   3.098   2.670  15.686 -0.2622 -0.5501 -0.7254
 1288TIP3    H125279   3.106   2.756  15.645 -1.1097 -0.6892 -1.2079
 1288TIP3    H225280   3.078   2.611  15.613 -1.2072 -0.9004 -0.1905
 1289TIP3   OH225281   5.622   2.423   5.702  0.1444  0.3386  0.0177
 1289TIP3    H125282   5.679   2.369   5.647  1.1414 -0.6428  1.9320
 1289TIP3    H225283   5.536   2.417   5.659  0.6403 -1.2488 -0.8689
 1290TIP3   OH225284   5.473   3.429  12.094  0.2081  0.2607 -0.0898
 1290TIP3    H125285   5.550   3.374  12.077 -1.2465 -1.7559 -0.5191
 1290TIP3    H225286   5.466   3.430  12.190 -0.0589 -0.7886 -0.0865
 1291TIP3   OH225287   1.667   6.090  13.595 -1.0378 -0.9841  0.9936
 1291TIP3    H125288   1.676   6.053  13.507 -0.5981  1.4694 -0.0630
 1291TIP3    H225289   1.574   6.079  13.616 -1.0153 -2.2221  0.5688
 1292TIP3   OH225290   6.312   1.380  16.478  0.2563 -0.4169 -0.3789
 1292TIP3    H125291   6.276   1.316  16.539  0.2512  0.2877  0.3702
 1292TIP3    H225292   6.256   1.373  16.401 -0.9390  0.0223  0.4235
 1293TIP3   OH225293   6.368   2.474  13.028  0.4393  0.1987  0.1090
 1293TIP3    H125294   6.296   2.411  13.039 -0.5186  1.2550  0.1517
 1293TIP3    H225295   6.443   2.433  13.071 -0.2328 -0.7812  0.3860
 1294TIP3   OH225296   6.278   2.152   5.839 -0.8512 -0.4157  0.1757
 1294TIP3    H125297   6.214   2.088   5.809 -1.1298  0.7595 -1.9999
 1294TIP3    H225298   6.349   2.101   5.876 -1.5251 -1.9236 -0.5466
 1295TIP3   OH225299   5.491   0.394   0.619  0.2358 -0.6026 -0.2577
 1295TIP3    H125300   5.514   0.407   0.527  0.4420 -0.0647 -0.1351
 1295TIP3    H225301   5.398   0.374   0.618  0.0726  0.1329 -0.5311
 1296TIP3   OH225302   2.270   5.232  12.819 -0.5827  0.0202  0.1358
 1296TIP3    H125303   2.341   5.188  12.772 -0.5668  1.4981 -1.3270
 1296TIP3    H225304   2.190   5.198  12.778 -0.7285 -1.0056  1.2062
 1297TIP3   OH225305   5.658   5.107   2.117  0.2252  0.1936  0.6496
 1297TIP3    H125306   5.748   5.135   2.100  0.1938 -0.8259 -1.4361
 1297TIP3    H225307   5.613   5.188   2.144  0.8974  1.5865 -2.0283
 1298TIP3   OH225308   4.921   3.637  14.482 -0.8208  0.6032  0.1253
 1298TIP3    H125309   4.938   3.708  14.420  0.6887 -1.3419 -1.7859
 1298TIP3    H225310   4.903   3.561  14.428 -1.1003 -0.8277  2.1201
 1299TIP3   OH225311   0.345   1.115   2.384  0.2786  0.0567 -0.8514
 1299TIP3    H125312   0.359   1.195   2.435  0.1563  0.1488 -0.9625
 1299TIP3    H225313   0.306   1.053   2.446 -1.0755  0.5775 -1.1424
 1300TIP3   OH225314   4.623   4.147  11.981 -0.4224 -0.6460 -0.6417
 1300TIP3    H125315   4.602   4.054  11.991 -1.4217 -0.4538 -0.7987
 1300TIP3    H225316   4.718   4.151  11.990 -0.4544 -1.5474  0.4483
 1301TIP3   OH225317   0.721   4.308   1.555  0.3672  0.2157  0.1126
 1301TIP3    H125318   0.634   4.328   1.588 -0.1418  1.4199 -1.7826
 1301TIP3    H225319   0.740   4.379   1.493  2.7459  0.0393  0.5478
 1302TIP3   OH225320   3.664   5.831  17.400 -0.3136 -0.2420 -0.1332
 1302TIP3    H125321   3.653   5.908  17.456 -2.0052 -1.8555  1.8820
 1302TIP3    H225322   3.701   5.764  17.457  0.6228 -1.1269 -1.7152
 1303TIP3   OH225323   0.426   4.991   0.223  0.4974  0.6193  0.5339
 1303TIP3    H125324   0.520   4.976   0.224  0.5158  0.7410  0.6599
 1303TIP3    H225325   0.387   4.904   0.213  0.6327  0.6021  0.1342
 1304TIP3   OH225326   5.746   1.991  17.319  0.1642 -0.6261 -0.2528
 1304TIP3    H125327   5.662   1.953  17.347 -0.7900  2.1967  1.1217
 1304TIP3    H225328   5.807   1.918  17.320 -1.9794 -2.5352 -0.0275
 1305TIP3   OH225329   5.644   1.889  16.222  0.7571 -0.6422 -0.5692
 1305TIP3    H125330   5.704   1.902  16.295  0.4202  0.0693 -0.4123
 1305TIP3    H225331   5.697   1.909  16.144  0.4677  1.0042 -0.3783
 1306TIP3   OH225332   1.953   0.226  16.135 -0.4187 -0.2000 -0.0081
 1306TIP3    H125333   1.884   0.161  16.123 -0.4634 -0.1312 -0.1333
 1306TIP3    H225334   2.020   0.182  16.186  0.4589 -1.0131 -1.7853
 1307TIP3   OH225335   0.550   6.144  13.421  0.2106  0.3203  0.1952
 1307TIP3    H125336   0.602   6.221  13.399 -1.0412  0.6546 -1.8776
 1307TIP3    H225337   0.594   6.071  13.376 -1.6484  0.8045 -2.6957
 1308TIP3   OH225338   0.779   2.736  12.443 -0.0600  0.1395  0.4735
 1308TIP3    H125339   0.789   2.701  12.531  0.0016 -0.7582  0.1129
 1308TIP3    H225340   0.698   2.698  12.410  0.6143 -0.6064 -0.3542
 1309TIP3   OH225341   3.382   1.504   1.729 -0.3267  0.4418 -0.2305
 1309TIP3    H125342   3.382   1.468   1.640  1.0406  0.3700 -0.2203
 1309TIP3    H225343   3.345   1.592   1.720  0.1281  0.5684 -0.9398
 1310TIP3   OH225344   1.582   5.785  14.803 -0.6162  0.2176  0.6223
 1310TIP3    H125345   1.652   5.787  14.739 -0.3175  2.0917  0.9427
 1310TIP3    H225346   1.503   5.808  14.754 -0.4317  1.3862  0.8464
 1311TIP3   OH225347   6.098   1.812   1.623  0.3269 -0.0881 -0.5391
 1311TIP3    H125348   6.066   1.874   1.688 -1.1000  0.4416 -1.7026
 1311TIP3    H225349   6.021   1.763   1.596  1.0912 -1.0489 -1.0607
 1312TIP3   OH225350   4.550   6.244   4.672 -0.2063  0.3921 -0.3985
 1312TIP3    H125351   4.521   6.274   4.586  1.9552  0.9581 -0.9867
 1312TIP3    H225352   4.583   6.156   4.656  3.6309  1.7321 -1.0940
 1313TIP3   OH225353   6.470   1.438   0.093 -0.1343 -0.6991  0.6379
 1313TIP3    H125354   6.407   1.372   0.064  0.4415 -0.7957 -0.4612
 1313TIP3    H225355   6.554   1.391   0.096  0.5071  0.2055 -1.3179
 1314TIP3   OH225356   1.601   5.089   1.047  0.5128  0.2934 -0.0573
 1314TIP3    H125357   1.572   5.097   0.956  0.0859 -0.5419 -0.0072
 1314TIP3    H225358   1.540   5.144   1.097  0.9076  0.9577 -0.3028
 1315TIP3   OH225359   0.850   6.050   5.489 -0.2309  0.2333 -0.3236
 1315TIP3    H125360   0.864   6.013   5.402  2.8983 -1.8726  0.8898
 1315TIP3    H225361   0.845   6.144   5.475 -2.5118 -0.1546 -2.9666
 1316TIP3   OH225362   2.223   5.709  11.785 -0.4622  0.3705  0.4752
 1316TIP3    H125363   2.290   5.774  11.805  0.8148 -1.3271  2.1375
 1316TIP3    H225364   2.224   5.700  11.690  1.5496  0.5714  0.4323
 1317TIP3   OH225365   0.980   3.052   2.647 -0.4845 -0.1988 -0.3973
 1317TIP3    H125366   0.990   2.996   2.724  0.5158 -1.0985 -1.1407
 1317TIP3    H225367   0.964   2.991   2.575  1.6882  0.3025 -1.4127
 1318TIP3   OH225368   2.691   4.549  14.287 -0.0719 -0.1032 -0.1697
 1318TIP3    H125369   2.642   4.475  14.249  1.3794 -1.3901  0.3529
 1318TIP3    H225370   2.632   4.583  14.354 -1.6788  0.6763 -1.8723
 1319TIP3   OH225371   3.313   4.366   1.566  0.2288  0.0491 -0.2198
 1319TIP3    H125372   3.267   4.285   1.544  0.0834 -0.0635  0.4804
 1319TIP3    H225373   3.249   4.435   1.551  0.5781  0.1161 -1.5274
 1320TIP3   OH225374   4.374   1.805  14.930 -0.4381  0.2011  0.5249
 1320TIP3    H125375   4.376   1.767  14.842 -0.3729  2.3524 -0.4820
 1320TIP3    H225376   4.284   1.836  14.941 -0.7527 -1.0556  1.7171
 1321TIP3   OH225377   5.064   4.586  14.545 -0.1275  0.6176 -0.1744
 1321TIP3    H125378   4.982   4.538  14.530 -1.1653  2.3354 -0.2399
 1321TIP3    H225379   5.054   4.624  14.632  1.0354  0.0691  0.2226
 1322TIP3   OH225380   2.118   2.644   3.520 -0.2769 -0.4135 -0.1185
 1322TIP3    H125381   2.023   2.632   3.521 -0.4218  0.4095 -1.3792
 1322TIP3    H225382   2.152   2.575   3.576 -1.6471 -0.4796  0.6679
 1323TIP3   OH225383   2.292   5.293   4.873  0.2465 -0.0893 -0.2560
 1323TIP3    H125384   2.331   5.365   4.922  1.6287 -0.9557 -0.0424
 1323TIP3    H225385   2.231   5.253   4.934 -1.7681  1.8226 -0.8799
 1324TIP3   OH225386   2.191   3.110  15.534 -0.1248  0.1255  0.3057
 1324TIP3    H125387   2.199   3.135  15.442 -1.8199 -0.7724 -0.1377
 1324TIP3    H225388   2.200   3.193  15.583  0.3045  0.6764 -0.6881
 1325TIP3   OH225389   2.254   6.431  10.885 -0.8838  0.1789 -0.1326
 1325TIP3    H125390   2.175   6.386  10.857 -0.7241 -0.5385  0.5476
 1325TIP3    H225391   2.319   6.409  10.818 -1.3003  0.9318 -0.8000
 1326TIP3   OH225392   0.945   6.544  13.352  0.1813 -0.5020 -0.4891
 1326TIP3    H125393   0.913   6.567  13.265 -0.2969 -1.7389 -0.6552
 1326TIP3    H225394   0.943   6.626  13.401  0.2778  0.1697 -1.5823
 1327TIP3   OH225395   3.325   1.161  13.126 -0.6016 -0.2162 -0.3042
 1327TIP3    H125396   3.392   1.114  13.175  2.1337  3.1181 -0.4504
 1327TIP3    H225397   3.350   1.150  13.034 -1.1627 -0.1202 -0.4772
 1328TIP3   OH225398   5.062   5.762  15.779 -0.2947  0.5306 -0.1677
 1328TIP3    H125399   5.067   5.675  15.819  0.9519  1.1766  1.1951
 1328TIP3    H225400   5.122   5.758  15.705  1.6990  0.8789  1.3287
 1329TIP3   OH225401   2.831   1.220  14.540  0.3972  0.4685  0.3707
 1329TIP3    H125402   2.833   1.161  14.465  1.3985  1.7984 -0.7019
 1329TIP3    H225403   2.873   1.172  14.611  1.5127  0.0006 -0.5800
 1330TIP3   OH225404   4.129   4.987   0.088  0.5823  0.2131  0.1060
 1330TIP3    H125405   4.176   4.998   0.006  0.9510 -1.8860 -0.0085
 1330TIP3    H225406   4.181   4.924   0.138  0.6151  1.7796  2.1844
 1331TIP3   OH225407   0.074   2.924   1.008  0.7330 -0.5408  0.4569
 1331TIP3    H125408   0.114   2.844   1.042  2.9997 -0.7455 -2.3215
 1331TIP3    H225409   0.002   2.894   0.954  1.6563 -0.7773 -0.6793
 1332TIP3   OH225410   0.072   5.672  14.871  0.5202 -0.3979 -0.6555
 1332TIP3    H125411   0.054   5.586  14.834  1.1602 -0.6846 -0.3288
 1332TIP3    H225412   0.168   5.681  14.865  0.4968  0.1336 -0.3477
 1333TIP3   OH225413   0.015   4.879  16.756 -0.2320  0.7738  0.3545
 1333TIP3    H125414  -0.079   4.881  16.738 -0.3037 -1.0546  0.2630
 1333TIP3    H225415   0.031   4.954  16.812 -1.6853  1.3289  0.0653
 1334TIP3   OH225416   3.662   1.750   5.294 -0.6367 -0.3483  0.0372
 1334TIP3    H125417   3.672   1.733   5.201  2.8456 -0.6278  0.3289
 1334TIP3    H225418   3.669   1.663   5.335 -1.6689 -0.1770  0.6055
 1335TIP3   OH225419   3.941   4.780   0.862  0.1221  0.0197  0.9838
 1335TIP3    H125420   3.935   4.685   0.867 -1.8539 -0.1769 -2.4455
 1335TIP3    H225421   3.864   4.811   0.911 -1.2165 -0.3704 -0.7895
 1336TIP3   OH225422   1.653   4.567  13.254 -0.2752  0.4346 -0.3087
 1336TIP3    H125423   1.743   4.576  13.284  0.2058  0.8249 -1.7655
 1336TIP3    H225424   1.633   4.651  13.213 -0.5760 -0.3287 -1.8009
 1337TIP3   OH225425   5.825   1.606  13.242 -0.1258  0.7604 -0.0863
 1337TIP3    H125426   5.855   1.673  13.304 -0.0844  0.8307 -0.1821
 1337TIP3    H225427   5.734   1.631  13.224  0.1850  1.3596 -0.8777
 1338TIP3   OH225428   4.100   4.466   0.004  0.4022 -0.2657 -0.0054
 1338TIP3    H125429   4.054   4.532  -0.047  0.5585 -1.7619 -2.2101
 1338TIP3    H225430   4.035   4.398   0.021  1.4541 -2.0603 -2.5351
 1339TIP3   OH225431   5.665   1.954   0.404  0.1527  0.0298  0.1742
 1339TIP3    H125432   5.590   2.006   0.376  0.3831  0.7843  0.9049
 1339TIP3    H225433   5.639   1.863   0.390  0.0742  0.3364 -1.9840
 1340TIP3   OH225434   5.372   2.605  14.262  0.1225  0.0106  0.6442
 1340TIP3    H125435   5.453   2.586  14.308  1.6838  0.7086 -1.6457
 1340TIP3    H225436   5.342   2.688  14.299 -0.7155 -1.2062  2.8918
 1341TIP3   OH225437   5.258   2.310  15.796  0.4134  0.2130 -0.3977
 1341TIP3    H125438   5.302   2.229  15.769  2.1214  0.8148  0.4251
 1341TIP3    H225439   5.207   2.336  15.719 -1.1555 -2.2371 -0.2929
 1342TIP3   OH225440   2.587   5.383   2.299  0.4326 -0.3959 -0.5007
 1342TIP3    H125441   2.642   5.443   2.350  1.0376  0.2836 -1.8863
 1342TIP3    H225442   2.615   5.397   2.208 -0.6949 -1.4653 -1.0380
 1343TIP3   OH225443   5.598   1.705   0.294 -0.0092 -0.4303  0.3916
 1343TIP3    H125444   5.607   1.610   0.280 -0.3006 -0.3967 -0.0482
 1343TIP3    H225445   5.575   1.740   0.208 -0.7352 -0.0709  0.7161
 1344TIP3   OH225446   3.663   3.211   0.056 -0.7271 -0.7701  0.1179
 1344TIP3    H125447   3.720   3.163  -0.003 -0.2175  0.8888 -0.8061
 1344TIP3    H225448   3.601   3.256  -0.001 -0.1371  0.9958  0.7733
 1345TIP3   OH225449   2.913   2.625  13.486  0.4576  0.4157  0.2221
 1345TIP3    H125450   2.965   2.701  13.458 -0.2793  1.2125  0.9641
 1345TIP3    H225451   2.846   2.662  13.543  0.4588 -0.8769  1.1016
 1346TIP3   OH225452   6.109   2.313   6.259  0.1905  0.2346  0.4029
 1346TIP3    H125453   6.193   2.323   6.215  0.6040 -1.4892  0.7064
 1346TIP3    H225454   6.057   2.387   6.229  1.5125  0.8487 -0.4797
 1347TIP3   OH225455   1.691   6.459   5.898  0.0135 -0.0311 -1.1072
 1347TIP3    H125456   1.613   6.477   5.950 -0.0660  0.7824 -1.5002
 1347TIP3    H225457   1.669   6.378   5.850  0.4384 -1.3292  0.7692
 1348TIP3   OH225458   4.536   1.942  13.411 -0.1328  0.0305  0.4159
 1348TIP3    H125459   4.475   1.896  13.353 -0.9995  1.3891  0.2087
 1348TIP3    H225460   4.623   1.924  13.373 -0.4522 -1.1822  0.1984
 1349TIP3   OH225461   1.380   4.729  14.971 -0.2973 -0.1456 -0.5423
 1349TIP3    H125462   1.316   4.763  15.034 -0.8536  0.3614 -1.3580
 1349TIP3    H225463   1.340   4.746  14.885  1.7849  2.0712 -1.1881
 1350TIP3   OH225464   3.746   4.859  16.409  0.3513 -0.3273 -0.5489
 1350TIP3    H125465   3.655   4.858  16.378  0.4595 -2.7960 -0.9658
 1350TIP3    H225466   3.740   4.835  16.502  0.5871 -0.4554 -0.5683
 1351TIP3   OH225467   2.394   4.768  10.764  0.2333  0.2495  0.3875
 1351TIP3    H125468   2.474   4.759  10.815  0.3236 -0.2069  0.1613
 1351TIP3    H225469   2.350   4.844  10.803 -0.1158 -0.6077  1.7153
 1352TIP3   OH225470   3.539   2.929  16.677 -0.2143 -0.4715 -0.3046
 1352TIP3    H125471   3.521   3.016  16.714  2.6927  0.4827 -0.8575
 1352TIP3    H225472   3.569   2.948  16.588  0.7166 -2.0399 -0.3445
 1353TIP3   OH225473   4.031   4.457   2.245 -0.1878  0.3248 -0.7061
 1353TIP3    H125474   4.001   4.412   2.324 -0.5150  1.4009 -0.2056
 1353TIP3    H225475   4.099   4.517   2.276  1.8359 -1.3151 -1.6713
 1354TIP3   OH225476   5.576   3.727   6.374  0.0318  0.3584  0.1788
 1354TIP3    H125477   5.537   3.797   6.323  1.2633 -0.0160 -1.3605
 1354TIP3    H225478   5.627   3.772   6.442 -1.0880  0.8798  0.6869
 1355TIP3   OH225479   2.135   0.460   0.992 -0.1917 -0.4580  0.4493
 1355TIP3    H125480   2.208   0.418   0.946 -1.3985 -2.6522  0.4469
 1355TIP3    H225481   2.135   0.420   1.079 -0.3516  0.8098  1.0594
 1356TIP3   OH225482   3.772   5.574   6.284 -0.0197  0.2704 -0.3735
 1356TIP3    H125483   3.826   5.498   6.307 -0.5210  0.5704  2.0646
 1356TIP3    H225484   3.813   5.647   6.331 -2.3813  0.5440  1.4380
 1357TIP3   OH225485   3.988   2.185  12.408  0.2419 -0.7745  0.6630
 1357TIP3    H125486   4.076   2.221  12.404  0.0534 -0.3998 -0.6178
 1357TIP3    H225487   3.998   2.093  12.382  0.1598 -0.4998 -0.4140
 1358TIP3   OH225488   5.872   6.514  12.694  0.2348  0.2868  0.1377
 1358TIP3    H125489   5.885   6.445  12.759  0.4586  0.7904  0.6271
 1358TIP3    H225490   5.793   6.487  12.646 -1.1571  0.9432  1.9470
 1359TIP3   OH225491   0.511   0.655  12.706  0.1021 -0.2331  0.2726
 1359TIP3    H125492   0.585   0.611  12.747 -0.5167 -1.0840  0.5252
 1359TIP3    H225493   0.546   0.737  12.672  0.9392 -0.1818  1.2256
 1360TIP3   OH225494   4.438   1.421   1.838  0.1233  0.3530  0.8308
 1360TIP3    H125495   4.401   1.509   1.830 -0.9121 -0.1182  0.2853
 1360TIP3    H225496   4.526   1.429   1.800 -0.9114  0.5773 -1.7019
 1361TIP3   OH225497   5.405   4.839   3.931  0.3613 -1.0676  0.2167
 1361TIP3    H125498   5.404   4.787   4.011 -0.4096 -2.1160 -0.4486
 1361TIP3    H225499   5.346   4.793   3.871 -1.1660  1.1042 -0.0735
 1362TIP3   OH225500   2.702   1.501   3.293  0.1730  0.5396 -0.1620
 1362TIP3    H125501   2.765   1.529   3.359  2.4437  0.0951 -1.9838
 1362TIP3    H225502   2.649   1.435   3.337 -1.6586  3.5625  2.5582
 1363TIP3   OH225503   5.323   5.781   2.306  0.3092 -0.2063  0.4208
 1363TIP3    H125504   5.294   5.715   2.243 -1.3043  0.4394  0.4647
 1363TIP3    H225505   5.262   5.773   2.379 -0.2518  1.6930  0.2041
 1364TIP3   OH225506   3.735   4.641   3.865  0.2438  0.0487 -0.5267
 1364TIP3    H125507   3.736   4.737   3.862  0.2970  0.0332 -1.1506
 1364TIP3    H225508   3.646   4.619   3.890  0.8744  0.3044  2.1794
 1365TIP3   OH225509   6.558   3.354  13.436  0.1816  0.2838 -0.8033
 1365TIP3    H125510   6.618   3.291  13.397 -0.8364  0.5081 -2.8693
 1365TIP3    H225511   6.486   3.301  13.470  0.4499  0.1667 -0.4250
 1366TIP3   OH225512   1.503   5.694  12.289 -0.1183 -0.5322 -0.2789
 1366TIP3    H125513   1.545   5.615  12.254  0.9576 -0.2151  0.2589
 1366TIP3    H225514   1.495   5.677  12.383 -0.6584 -0.3374 -0.2867
 1367TIP3   OH225515   0.497   4.045   3.597  0.1778 -0.0371 -0.0856
 1367TIP3    H125516   0.426   4.101   3.628  0.2039 -0.0900  0.0700
 1367TIP3    H225517   0.520   4.081   3.511  2.2679  2.1288  1.2578
 1368TIP3   OH225518   5.552   3.453  14.846 -0.4513 -0.5212 -0.0964
 1368TIP3    H125519   5.620   3.456  14.914  0.7129  0.6887 -1.2740
 1368TIP3    H225520   5.499   3.531  14.862 -0.0655 -0.1372 -0.6791
 1369TIP3   OH225521   1.107   3.588  17.392  0.0845 -0.0026 -0.1919
 1369TIP3    H125522   1.022   3.628  17.406 -0.3956 -1.9311  3.6028
 1369TIP3    H225523   1.091   3.494  17.396  2.3213 -0.4312  0.4527
 1370TIP3   OH225524   5.899   6.021  13.658  0.1998  0.2827 -0.4166
 1370TIP3    H125525   5.807   6.005  13.640  0.1896 -0.7587  0.4518
 1370TIP3    H225526   5.902   6.050  13.749  0.6472  1.2874 -0.7379
 1371TIP3   OH225527   6.376   4.761  17.232  0.5064 -0.1576 -0.5182
 1371TIP3    H125528   6.345   4.671  17.237 -1.4126  0.4692 -0.0076
 1371TIP3    H225529   6.426   4.774  17.313  1.2913 -0.9145 -0.8757
 1372TIP3   OH225530   5.683   3.535  16.952 -0.2594  0.1501  0.4869
 1372TIP3    H125531   5.718   3.455  16.990  1.3887  0.2585 -0.6803
 1372TIP3    H225532   5.670   3.594  17.027 -0.9072 -0.9682  1.2812
 1373TIP3   OH225533   5.393   5.431  12.033  0.7049  0.1303  0.3095
 1373TIP3    H125534   5.478   5.392  12.054 -0.2639 -3.5729 -1.8559
 1373TIP3    H225535   5.415   5.515  11.992  3.3051 -0.6324 -0.0371
 1374TIP3   OH225536   5.134   0.462   3.800  0.2257 -0.9857  0.0692
 1374TIP3    H125537   5.163   0.531   3.740 -0.5232 -1.7505 -1.2029
 1374TIP3    H225538   5.128   0.383   3.746  2.8795 -2.5700  1.8756
 1375TIP3   OH225539   4.582   5.949   1.165  0.4042 -0.2348  0.3223
 1375TIP3    H125540   4.638   6.020   1.197  1.0745 -0.9393  0.7521
 1375TIP3    H225541   4.494   5.974   1.191  0.5186  0.8742 -0.3292
 1376TIP3   OH225542   1.549   0.535   0.548 -0.8035  0.3229  0.2596
 1376TIP3    H125543   1.537   0.518   0.454 -1.2588  2.5372 -0.1413
 1376TIP3    H225544   1.482   0.481   0.590 -0.5811 -0.7173 -0.6822
 1377TIP3   OH225545   3.461   1.650   6.635 -0.7426 -0.3728 -0.0989
 1377TIP3    H125546   3.444   1.560   6.662 -0.7928 -0.5960 -0.8504
 1377TIP3    H225547   3.412   1.660   6.553 -1.5548  0.6547  0.4888
 1378TIP3   OH225548   2.383   4.806  15.728 -0.1875 -0.5784 -0.5963
 1378TIP3    H125549   2.406   4.781  15.638  1.3561 -0.0259 -0.3859
 1378TIP3    H225550   2.405   4.729  15.780  0.6428 -0.2635 -0.4725
 1379TIP3   OH225551   2.629   4.036   0.585  0.1892 -0.2811  0.4150
 1379TIP3    H125552   2.657   3.977   0.655 -1.7687 -0.5717  1.0291
 1379TIP3    H225553   2.554   4.083   0.622 -0.3874  0.1549 -1.2121
 1380TIP3   OH225554   2.990   1.758  17.422  0.0111 -0.0853  0.4075
 1380TIP3    H125555   2.896   1.751  17.435 -0.1308  1.6727  0.5366
 1380TIP3    H225556   3.028   1.721  17.501 -0.5523 -1.0181  0.2559
 1381TIP3   OH225557   3.003   2.474  17.233  0.4084 -0.0320  0.4269
 1381TIP3    H125558   3.021   2.532  17.158 -0.5805  0.8104  0.8207
 1381TIP3    H225559   2.912   2.447  17.221  0.4742 -0.4773  0.9358
 1382TIP3   OH225560   2.379   0.548   0.331 -0.0947  0.1053  0.3257
 1382TIP3    H125561   2.421   0.557   0.416  2.5490  0.0858 -0.8881
 1382TIP3    H225562   2.403   0.460   0.301 -1.3305 -0.0454 -0.2972
 1383TIP3   OH225563   6.060   1.787  12.764 -0.5817  0.2594 -0.1869
 1383TIP3    H125564   6.025   1.740  12.840 -1.2430 -2.0308 -1.8036
 1383TIP3    H225565   6.118   1.724  12.722  0.0492  1.6060 -1.3969
 1384TIP3   OH225566   1.168   4.563  16.229  0.4183  0.3048  0.0337
 1384TIP3    H125567   1.110   4.511  16.285 -0.8485  1.8310  0.1972
 1384TIP3    H225568   1.157   4.525  16.142  0.8737 -0.8087  0.4410
 1385TIP3   OH225569   4.239   3.232   3.818 -0.4155  0.3245  0.1697
 1385TIP3    H125570   4.232   3.234   3.914  0.1253  1.8160  0.2038
 1385TIP3    H225571   4.311   3.291   3.798 -0.5745  0.0938 -1.1728
 1386TIP3   OH225572   2.383   0.458  11.536  0.0913  0.2091  0.0347
 1386TIP3    H125573   2.465   0.419  11.506 -0.4188  0.1529 -1.3723
 1386TIP3    H225574   2.315   0.398  11.506 -0.4616  0.0344  1.5478
 1387TIP3   OH225575   6.213   3.665   6.160 -0.4960  0.4237  0.3815
 1387TIP3    H125576   6.271   3.590   6.152  0.8302  1.3806  0.6720
 1387TIP3    H225577   6.165   3.668   6.077 -0.7758 -0.8826  0.4762
 1388TIP3   OH225578   2.397   0.522  12.373 -0.1103 -0.2152  0.3132
 1388TIP3    H125579   2.376   0.524  12.279  0.7235 -0.1941  0.1235
 1388TIP3    H225580   2.469   0.584  12.383 -0.8231  0.5054  1.1355
 1389TIP3   OH225581   4.132   0.600   0.638 -0.1786  0.2299  0.3960
 1389TIP3    H125582   4.059   0.650   0.675 -0.0179 -0.1140  1.2031
 1389TIP3    H225583   4.128   0.515   0.682 -1.1080 -0.9236 -1.7279
 1390TIP3   OH225584   4.523   6.747  14.240  0.0087  0.6902  0.6801
 1390TIP3    H125585   4.594   6.810  14.235 -0.3450  1.0262 -0.4901
 1390TIP3    H225586   4.451   6.794  14.282 -0.0482  0.8763  0.3793
 1391TIP3   OH225587   3.615   1.918  13.192 -0.0778  0.2825 -0.1274
 1391TIP3    H125588   3.558   1.843  13.178 -0.7018  1.1901 -3.4542
 1391TIP3    H225589   3.703   1.881  13.196 -0.5406 -0.7798  0.5415
 1392TIP3   OH225590   3.112   1.073   2.724  0.8836  0.5995 -0.2402
 1392TIP3    H125591   3.127   1.000   2.783  2.6667  0.8522 -0.3206
 1392TIP3    H225592   3.017   1.083   2.721  0.6989 -0.3195  1.4610
 1393TIP3   OH225593   2.090   4.985   4.645  0.0406 -0.5928 -0.4151
 1393TIP3    H125594   2.063   4.938   4.566  0.3683 -0.5567 -0.5474
 1393TIP3    H225595   2.184   4.997   4.635 -0.2505  1.5100 -1.1547
 1394TIP3   OH225596   5.186   2.703   2.700  0.1971  0.2641  0.6621
 1394TIP3    H125597   5.205   2.715   2.793 -2.4678  2.2232  1.0668
 1394TIP3    H225598   5.179   2.792   2.665  1.9420 -0.4136 -1.6619
 1395TIP3   OH225599   1.660   2.925  13.329  0.0954 -0.1836  0.3159
 1395TIP3    H125600   1.749   2.900  13.304 -0.1640  0.4300 -1.3156
 1395TIP3    H225601   1.638   2.998  13.272 -1.2873 -0.0073  1.0287
 1396TIP3   OH225602   1.070   6.220   1.804 -0.5589  0.1554  0.0505
 1396TIP3    H125603   1.038   6.309   1.788  1.3006  0.6754 -1.1613
 1396TIP3    H225604   1.088   6.185   1.717 -1.4831 -1.5350  0.4944
 1397TIP3   OH225605   5.729   4.147   1.940 -0.2966  0.0852  0.1254
 1397TIP3    H125606   5.784   4.103   1.876  1.5480  3.0491 -0.5541
 1397TIP3    H225607   5.666   4.196   1.887 -0.9850 -0.1020  0.7524
 1398TIP3   OH225608   2.854   4.856  15.275 -0.7520  0.1109 -0.1504
 1398TIP3    H125609   2.881   4.944  15.250 -0.5260  0.1121  0.0820
 1398TIP3    H225610   2.865   4.855  15.370 -0.6395 -0.2048 -0.1667
 1399TIP3   OH225611   4.582   4.823   4.086 -0.1003  0.0664  0.3326
 1399TIP3    H125612   4.668   4.847   4.052 -1.2919  1.0110 -2.3517
 1399TIP3    H225613   4.590   4.729   4.105  1.9704  0.4967  1.8851
 1400TIP3   OH225614   2.732   3.774   4.784  0.6260  0.2694 -0.6255
 1400TIP3    H125615   2.663   3.708   4.777  2.3202 -1.7850  0.6843
 1400TIP3    H225616   2.697   3.838   4.845 -0.2977 -0.5396 -0.2805
 1401TIP3   OH225617   5.842   2.047  13.308  0.5704 -0.0588  0.1682
 1401TIP3    H125618   5.835   2.080  13.218  1.1384 -0.3684  0.0062
 1401TIP3    H225619   5.792   1.965  13.307 -3.0531  1.9117  1.1985
 1402TIP3   OH225620   3.530   0.415  12.411 -0.2595 -0.0974  0.1986
 1402TIP3    H125621   3.542   0.449  12.499  0.4494  0.7609 -0.2128
 1402TIP3    H225622   3.617   0.387  12.383 -0.4342 -0.1569 -0.3079
 1403TIP3   OH225623   4.698   6.037  15.233  0.1812 -1.0655  0.7259
 1403TIP3    H125624   4.694   6.100  15.304  2.6094 -1.5057  1.3338
 1403TIP3    H225625   4.612   6.043  15.191 -0.7625  0.3201  2.7039
 1404TIP3   OH225626   6.077   5.113   2.088  0.1072  0.2459 -0.2611
 1404TIP3    H125627   6.111   5.024   2.081 -1.0935 -0.4818  2.1280
 1404TIP3    H225628   6.121   5.149   2.165 -0.3204  1.3165 -0.5016
 1405TIP3   OH225629   6.407   3.787  16.489  0.1816 -0.4783  0.2669
 1405TIP3    H125630   6.491   3.832  16.499  0.6279 -0.2549 -3.1284
 1405TIP3    H225631   6.375   3.817  16.404 -2.2740 -2.2966  0.4574
 1406TIP3   OH225632   6.291   0.064   0.603  0.0628 -0.2417 -0.0551
 1406TIP3    H125633   6.228   0.027   0.541  0.0877  0.8968 -0.7827
 1406TIP3    H225634   6.315   0.148   0.566  1.0696 -0.1004  0.8599
 1407TIP3   OH225635   1.776   6.539  13.784  0.0679  0.1354  0.0476
 1407TIP3    H125636   1.730   6.462  13.820 -1.5111  1.3351  0.7244
 1407TIP3    H225637   1.789   6.596  13.859  0.6644  0.8056 -0.5528
 1408TIP3   OH225638   1.921   3.499   3.399  0.3379 -0.1990  0.0879
 1408TIP3    H125639   1.861   3.443   3.350 -0.1482 -1.0518  1.5995
 1408TIP3    H225640   1.945   3.447   3.476  1.4913  0.8886  0.4977
 1409TIP3   OH225641   4.494   4.627   0.028 -0.0814 -0.1928  0.6095
 1409TIP3    H125642   4.444   4.692   0.076 -1.2134  0.1904 -0.9936
 1409TIP3    H225643   4.581   4.664   0.020 -0.5743  0.9120  0.1660
 1410TIP3   OH225644   1.499   6.113   5.990  0.3053 -0.3417 -0.1780
 1410TIP3    H125645   1.546   6.039   5.951  0.6746  0.1921 -0.7747
 1410TIP3    H225646   1.409   6.104   5.958  0.7605  0.5241 -1.8722
 1411TIP3   OH225647   4.427   6.650   3.379 -0.0782  0.2108 -0.3055
 1411TIP3    H125648   4.404   6.697   3.298  0.2959 -0.7161 -0.9747
 1411TIP3    H225649   4.351   6.662   3.436 -0.2845  1.0112 -0.7257
 1412TIP3   OH225650   3.282   3.114   5.372 -0.3794  0.5531  0.0638
 1412TIP3    H125651   3.286   3.066   5.290 -1.6926  1.3150 -0.4771
 1412TIP3    H225652   3.195   3.094   5.407  1.2122 -2.3421  2.9336
 1413TIP3   OH225653   5.807   6.664   4.505 -0.3650 -0.2024  0.0375
 1413TIP3    H125654   5.862   6.610   4.561  0.6172 -1.8433 -2.3185
 1413TIP3    H225655   5.777   6.735   4.561  1.3908 -1.1381  2.3089
 1414TIP3   OH225656   1.539   4.349  14.869  0.5232 -0.4498 -0.1746
 1414TIP3    H125657   1.509   4.278  14.812  3.7507 -0.2595 -2.4173
 1414TIP3    H225658   1.480   4.421  14.851  0.9496 -0.6672 -2.8190
 1415TIP3   OH225659   2.042   3.940  14.057 -0.9423 -0.4617  0.4261
 1415TIP3    H125660   2.092   3.958  13.977  0.9607 -1.4776  1.3166
 1415TIP3    H225661   1.955   3.918  14.025  0.1106 -2.2168 -1.5386
 1416TIP3   OH225662   4.428   5.594   5.383  0.0987 -0.2577  0.0035
 1416TIP3    H125663   4.492   5.606   5.313 -1.1834 -1.5394 -1.4552
 1416TIP3    H225664   4.468   5.637   5.459  2.8265 -1.2650 -0.7433
 1417TIP3   OH225665   5.671   5.909   1.784  0.2416 -0.3307 -0.0144
 1417TIP3    H125666   5.668   5.995   1.742  2.1532  0.7776  1.9344
 1417TIP3    H225667   5.710   5.851   1.718 -0.9704  0.2869 -1.3088
 1418TIP3   OH225668   6.050   0.189   1.528 -0.2242 -0.3480 -0.1608
 1418TIP3    H125669   6.012   0.276   1.534  0.0835 -0.3173  2.1118
 1418TIP3    H225670   5.975   0.130   1.517 -0.5546  0.0671 -0.1331
 1419TIP3   OH225671   6.445   5.149   1.102  0.0652 -0.7430  0.0234
 1419TIP3    H125672   6.498   5.216   1.060 -0.1548 -0.6028 -0.0301
 1419TIP3    H225673   6.405   5.101   1.030  1.1220 -1.6731  0.0226
 1420TIP3   OH225674   3.288   2.144  13.237  0.1186  0.7610 -0.1283
 1420TIP3    H125675   3.272   2.050  13.240  0.8336  0.5682 -1.5060
 1420TIP3    H225676   3.383   2.152  13.244  0.0065  1.4578  0.8804
 1421TIP3   OH225677   3.111   2.830   3.188  0.2653 -0.0688 -0.2718
 1421TIP3    H125678   3.030   2.875   3.165 -0.2214 -0.2893  0.9466
 1421TIP3    H225679   3.179   2.897   3.181  0.0648  0.0238 -1.6854
 1422TIP3   OH225680   4.154   0.563   4.773  0.0027  0.1185 -0.5190
 1422TIP3    H125681   4.094   0.508   4.722 -0.0309 -0.6669  0.3433
 1422TIP3    H225682   4.195   0.503   4.834 -1.9537  1.3873  2.2794
 1423TIP3   OH225683   0.735   3.119   5.028 -0.0091 -0.0630  0.2141
 1423TIP3    H125684   0.682   3.066   5.087  1.7683 -1.1852  0.8752
 1423TIP3    H225685   0.720   3.081   4.942 -1.1207  0.3643  0.2002
 1424TIP3   OH225686   1.183   4.214  15.651 -0.0402  0.7914 -0.9336
 1424TIP3    H125687   1.230   4.132  15.669  0.6840  1.5493  0.7875
 1424TIP3    H225688   1.146   4.201  15.564  0.8154 -1.0207 -1.0750
 1425TIP3   OH225689   3.275   4.782   0.239  0.1142 -0.2643  0.0909
 1425TIP3    H125690   3.207   4.752   0.179  0.2045 -0.7176  0.2139
 1425TIP3    H225691   3.277   4.717   0.309  0.4081 -0.0480  0.2907
 1426TIP3   OH225692   5.333   4.451  17.041 -0.0746 -0.1891  0.9188
 1426TIP3    H125693   5.424   4.439  17.014 -0.3784  0.4340 -0.4537
 1426TIP3    H225694   5.298   4.362  17.045 -0.1706 -0.3195 -1.4384
 1427TIP3   OH225695   2.955   3.319   3.467  0.5654  0.0603  0.3993
 1427TIP3    H125696   2.968   3.324   3.562 -3.1641 -2.0164  1.2298
 1427TIP3    H225697   2.933   3.227   3.451  0.4884  0.4999 -2.3925
 1428TIP3   OH225698   0.740   2.976   2.472 -0.0240  0.1231  0.9721
 1428TIP3    H125699   0.707   3.037   2.538  0.4192 -0.0304  1.3331
 1428TIP3    H225700   0.785   2.908   2.521 -1.2905 -0.9994  0.6374
 1429TIP3   OH225701   5.834   3.207   2.113  0.5625 -0.0952 -0.3087
 1429TIP3    H125702   5.821   3.277   2.049  0.6717  0.4317  0.2504
 1429TIP3    H225703   5.750   3.160   2.114  0.0379  0.8392  0.2959
 1430TIP3   OH225704   6.393   1.510   5.769 -0.5360  0.4554 -0.0189
 1430TIP3    H125705   6.360   1.576   5.830  2.9724  2.2044  0.2570
 1430TIP3    H225706   6.439   1.447   5.825  1.2026  1.1041 -0.6634
 1431TIP3   OH225707   2.503   0.915   6.116  0.1619  0.1214 -0.6531
 1431TIP3    H125708   2.552   0.925   6.198 -0.8413  0.2118 -0.0471
 1431TIP3    H225709   2.418   0.954   6.134 -0.6234 -1.2589 -1.2246
 1432TIP3   OH225710   4.210   3.401   5.514  0.2497 -0.1005  0.2444
 1432TIP3    H125711   4.279   3.420   5.577 -0.5439  2.6648  0.4393
 1432TIP3    H225712   4.187   3.487   5.478 -2.5958 -0.9825 -0.2929
 1433TIP3   OH225713   1.448   4.962   0.628  0.3612 -0.1896 -0.2792
 1433TIP3    H125714   1.487   4.894   0.683  0.1525 -0.3766 -0.3619
 1433TIP3    H225715   1.512   4.976   0.558  0.0846 -0.8106 -0.6639
 1434TIP3   OH225716   6.194   6.180  11.299  0.1805  0.1882  0.2498
 1434TIP3    H125717   6.205   6.272  11.272 -0.7878  0.1357 -0.3808
 1434TIP3    H225718   6.199   6.130  11.217 -1.5218 -0.0944  0.2681
 1435TIP3   OH225719   6.514   3.576  12.521 -0.2051 -0.5042 -0.0244
 1435TIP3    H125720   6.482   3.514  12.586  0.3086 -1.3451 -0.5571
 1435TIP3    H225721   6.605   3.552  12.508  0.5973  1.6302  1.2143
 1436TIP3   OH225722   4.023   6.154  15.854  0.1579  0.0447 -0.2174
 1436TIP3    H125723   4.073   6.229  15.821 -1.5080  0.5744 -1.6566
 1436TIP3    H225724   3.947   6.193  15.897 -0.2082 -0.7966 -0.0919
 1437TIP3   OH225725   1.048   1.483   1.117  0.0021  0.3788  0.3055
 1437TIP3    H125726   1.047   1.576   1.094 -0.9954  0.6032  1.2208
 1437TIP3    H225727   0.959   1.453   1.100 -0.3387  0.1723  2.2688
 1438TIP3   OH225728   1.184   2.860   4.774 -0.4268  0.5101 -0.3324
 1438TIP3    H125729   1.133   2.925   4.822 -1.3575  0.9248 -1.7872
 1438TIP3    H225730   1.260   2.909   4.742 -1.1512  0.9548 -1.4676
 1439TIP3   OH225731   4.805   4.469   5.294  0.7849 -0.2262 -0.0557
 1439TIP3    H125732   4.860   4.438   5.365  0.6179  1.1021  0.6894
 1439TIP3    H225733   4.750   4.537   5.334  1.1690  1.0429 -1.5979
 1440TIP3   OH225734   6.092   4.349   3.232  0.0286 -0.1902 -0.5291
 1440TIP3    H125735   6.096   4.419   3.166 -1.8458 -0.5826 -1.1496
 1440TIP3    H225736   6.102   4.394   3.315 -2.4331  1.0936 -0.8310
 1441TIP3   OH225737   3.983   1.980  14.695 -0.2769  0.2934 -0.3149
 1441TIP3    H125738   4.053   2.015  14.751  0.0078 -0.0389 -0.4560
 1441TIP3    H225739   4.016   1.991  14.606  0.0938 -0.8802 -0.3388
 1442TIP3   OH225740   0.377   2.864   1.820  0.1366  0.2922  0.3415
 1442TIP3    H125741   0.405   2.834   1.907 -2.1477 -0.9791  0.7133
 1442TIP3    H225742   0.288   2.895   1.833  1.1196  4.0716 -0.8075
 1443TIP3   OH225743   0.491   3.445  14.530  0.2512 -0.2755 -0.0412
 1443TIP3    H125744   0.479   3.522  14.587  0.5151  0.4829 -0.9768
 1443TIP3    H225745   0.407   3.399  14.534 -0.1590  0.4557 -0.0267
 1444TIP3   OH225746   4.910   0.467  13.721 -0.0882 -0.1958  0.2238
 1444TIP3    H125747   4.877   0.552  13.690  0.7351  1.6173  3.7455
 1444TIP3    H225748   5.005   0.472  13.706 -0.0661 -0.6403  0.2019
 1445TIP3   OH225749   2.090   6.694  14.080  0.1423 -0.2637  0.1650
 1445TIP3    H125750   2.009   6.658  14.044 -0.6034  4.1219 -3.3643
 1445TIP3    H225751   2.061   6.765  14.138  1.1067  2.9465 -2.9353
 1446TIP3   OH225752   0.843   5.475   1.831 -0.4657 -0.0326  0.2723
 1446TIP3    H125753   0.800   5.463   1.747  1.6717  1.6655 -1.1724
 1446TIP3    H225754   0.813   5.401   1.884 -2.3457 -0.8256 -1.7365
 1447TIP3   OH225755   6.585   4.058  17.088 -0.0682  0.1464  0.4714
 1447TIP3    H125756   6.605   3.967  17.107 -0.3100  0.1232  0.6164
 1447TIP3    H225757   6.580   4.061  16.992 -0.7877 -0.1525  0.4913
 1448TIP3   OH225758   6.506   3.602  14.779  0.0371  0.3852 -0.2335
 1448TIP3    H125759   6.512   3.623  14.685 -0.7421  0.5779 -0.2420
 1448TIP3    H225760   6.429   3.547  14.786 -1.0199  1.9096  0.5587
 1449TIP3   OH225761   2.510   4.499   0.582  0.3299 -0.7343 -0.0525
 1449TIP3    H125762   2.592   4.462   0.614  1.4597 -0.2294 -2.1722
 1449TIP3    H225763   2.524   4.593   0.583 -0.5607 -0.5943  0.3297
 1450TIP3   OH225764   3.960   4.476   3.523  0.3383  0.0901 -0.5299
 1450TIP3    H125765   4.049   4.511   3.513 -0.3473  1.8410 -0.7974
 1450TIP3    H225766   3.948   4.470   3.618  0.9297 -0.7312 -0.4897
 1451TIP3   OH225767   0.929   1.068   4.318  1.1257  0.1336 -0.1146
 1451TIP3    H125768   0.833   1.061   4.319  1.1867 -2.9885 -1.7013
 1451TIP3    H225769   0.947   1.159   4.340 -2.2540  1.2057 -1.1445
 1452TIP3   OH225770   2.291   2.648   3.306  0.2499  0.3457  0.1556
 1452TIP3    H125771   2.238   2.653   3.385 -1.9625  0.5374 -1.2510
 1452TIP3    H225772   2.359   2.584   3.326 -0.0260  0.6488  2.2961
 1453TIP3   OH225773   2.936   3.825  13.106  0.3815 -0.4102 -0.2936
 1453TIP3    H125774   2.926   3.830  13.201  2.0409 -0.1339 -0.0972
 1453TIP3    H225775   3.026   3.796  13.093 -0.0175 -1.0672 -1.7902
 1454TIP3   OH225776   0.830   1.267   5.917 -0.3927 -0.2389 -0.3708
 1454TIP3    H125777   0.767   1.292   5.849  2.3043  1.8804 -2.3218
 1454TIP3    H225778   0.891   1.341   5.922  0.1940 -0.7724  3.6971
 1455TIP3   OH225779   2.303   0.672   4.731 -0.1796 -0.9543  0.0358
 1455TIP3    H125780   2.384   0.629   4.760  1.6129  1.3532 -1.2700
 1455TIP3    H225781   2.298   0.654   4.637 -0.7342 -0.3873 -0.0511
 1456TIP3   OH225782   1.449   5.156   0.193  0.5319 -0.4447 -0.1407
 1456TIP3    H125783   1.482   5.178   0.280 -0.0163  0.1694 -0.0794
 1456TIP3    H225784   1.427   5.063   0.199  2.0106 -0.8250 -0.1191
 1457TIP3   OH225785   6.419   0.760   0.922  0.2501 -0.2294 -0.2723
 1457TIP3    H125786   6.351   0.705   0.884 -0.4311 -1.4243  2.4453
 1457TIP3    H225787   6.372   0.834   0.961  0.4948 -0.8028  1.1782
 1458TIP3   OH225788   4.518   1.064  11.740 -0.5257  0.2176  0.8810
 1458TIP3    H125789   4.558   0.997  11.685  0.7602  0.5334  1.3884
 1458TIP3    H225790   4.430   1.076  11.704 -2.0545 -3.9769  2.6445
 1459TIP3   OH225791   5.223   6.431  14.528  0.0993 -0.2835 -0.0074
 1459TIP3    H125792   5.226   6.339  14.502 -0.1009  0.0428 -1.2625
 1459TIP3    H225793   5.215   6.478  14.446  1.1316  0.9169  0.5506
 1460TIP3   OH225794   2.868   4.185  12.466 -0.0153  0.1815 -0.4371
 1460TIP3    H125795   2.828   4.246  12.528  1.1536 -0.3152  0.8578
 1460TIP3    H225796   2.829   4.100  12.487  0.9599 -0.1303  0.1855
 1461TIP3   OH225797   5.377   3.138  14.979  0.2096 -0.6295 -0.5322
 1461TIP3    H125798   5.313   3.206  15.000 -0.7264 -1.7966  0.5061
 1461TIP3    H225799   5.456   3.166  15.027 -0.0886 -0.1537 -0.3019
 1462TIP3   OH225800   2.470   0.705  11.540 -0.2070 -0.0544 -0.0580
 1462TIP3    H125801   2.454   0.611  11.537  0.4705 -0.1915  0.3769
 1462TIP3    H225802   2.502   0.722  11.629  0.4992  0.4420 -0.3925
 1463TIP3   OH225803   3.943   2.727   1.546 -0.0522 -0.0496 -0.2499
 1463TIP3    H125804   3.883   2.653   1.535  1.9905 -1.6156 -1.6821
 1463TIP3    H225805   3.910   2.794   1.486 -2.0154  0.3423  1.1769
 1464TIP3   OH225806   5.609   0.922  13.759 -0.1338  0.0753 -0.1602
 1464TIP3    H125807   5.561   0.859  13.706 -0.8461 -0.5203  1.1525
 1464TIP3    H225808   5.547   0.994  13.773 -0.4285 -0.3727  0.9417
 1465TIP3   OH225809   0.617   5.562   1.266 -0.1796  0.5104 -0.4294
 1465TIP3    H125810   0.535   5.595   1.231 -0.3665 -0.7635 -1.2610
 1465TIP3    H225811   0.609   5.573   1.361 -1.3035  0.4369 -0.4996
 1466TIP3   OH225812   1.920   6.378   4.569  0.1517  0.7258  0.3630
 1466TIP3    H125813   1.939   6.395   4.662  2.1143 -0.2177  0.1894
 1466TIP3    H225814   1.833   6.339   4.569  0.6801 -0.5945  2.0062
 1467TIP3   OH225815   4.151   2.882   6.272  0.8676 -0.3071 -0.2774
 1467TIP3    H125816   4.061   2.882   6.306  0.8546  1.1319 -0.2496
 1467TIP3    H225817   4.160   2.798   6.227 -0.2150 -0.8258  0.4312
 1468TIP3   OH225818   0.924   3.734   1.805 -0.2650  0.1063  0.2638
 1468TIP3    H125819   1.002   3.780   1.837  1.3892 -2.6005  0.4570
 1468TIP3    H225820   0.953   3.643   1.792 -3.0879 -0.7524 -0.8763
 1469TIP3   OH225821   6.480   2.457  11.619  0.1144 -0.3664  0.3061
 1469TIP3    H125822   6.508   2.540  11.657 -1.7165 -0.7366  2.6902
 1469TIP3    H225823   6.391   2.473  11.588 -0.9687 -1.7695  2.4112
 1470TIP3   OH225824   5.009   2.904  14.093 -0.0161  1.0319  0.3482
 1470TIP3    H125825   5.068   2.939  14.160 -0.6359  0.6944  1.0870
 1470TIP3    H225826   5.048   2.819  14.069  0.2928  1.2250  0.1627
 1471TIP3   OH225827   2.619   3.247  11.658  0.5148  0.2117  0.8520
 1471TIP3    H125828   2.683   3.282  11.596 -1.3401  0.0104 -1.3304
 1471TIP3    H225829   2.578   3.324  11.696  1.4012  0.3367  1.5931
 1472TIP3   OH225830   1.032   1.004   3.535 -0.0352 -0.4965 -0.4231
 1472TIP3    H125831   1.049   1.074   3.472  0.2893 -0.0693  0.1286
 1472TIP3    H225832   1.118   0.966   3.553  0.1950  0.6626  1.2080
 1473TIP3   OH225833   2.156   5.165   5.957  0.3863  0.6304 -0.5396
 1473TIP3    H125834   2.173   5.183   5.865  1.0240 -1.2789 -0.8300
 1473TIP3    H225835   2.240   5.178   6.000  0.0481  1.7040 -0.1651
 1474TIP3   OH225836   3.296   1.261   5.095 -0.3626 -0.0598  0.0479
 1474TIP3    H125837   3.331   1.194   5.154  0.0564 -0.2162 -0.3768
 1474TIP3    H225838   3.245   1.212   5.030 -1.1926  0.1463  0.5243
 1475TIP3   OH225839   2.364   1.491  15.233 -0.3304 -0.2902  0.2839
 1475TIP3    H125840   2.428   1.474  15.163 -0.4609 -2.9039  0.6894
 1475TIP3    H225841   2.408   1.552  15.291  1.3597 -1.0973 -0.0838
 1476TIP3   OH225842   5.792   6.449   6.683  0.0975 -0.3369 -0.0102
 1476TIP3    H125843   5.760   6.472   6.770  0.7759 -0.6311  0.3255
 1476TIP3    H225844   5.755   6.362   6.666 -2.7501  1.0470 -1.4246
 1477TIP3   OH225845   0.121   4.735   2.413  0.2132  0.2975 -0.2310
 1477TIP3    H125846   0.173   4.655   2.406  0.6059  0.5294 -0.0091
 1477TIP3    H225847   0.129   4.776   2.327  1.8916  1.2305  0.3213
 1478TIP3   OH225848   1.807   6.188  14.139  0.4561  0.5874  0.1288
 1478TIP3    H125849   1.784   6.212  14.049  0.4880 -0.5747 -0.2091
 1478TIP3    H225850   1.735   6.132  14.168  0.2166  1.3327  1.0045
 1479TIP3   OH225851   1.448   6.135  15.609  0.6926  0.5772 -0.7530
 1479TIP3    H125852   1.442   6.057  15.554  2.4389 -0.4705  0.4466
 1479TIP3    H225853   1.385   6.196  15.571 -1.0531 -1.5428 -1.4840
 1480TIP3   OH225854   4.169   5.500   4.834 -0.0687  0.2738 -0.0986
 1480TIP3    H125855   4.162   5.588   4.872  1.9843 -0.8718  3.5074
 1480TIP3    H225856   4.091   5.455   4.865 -0.3324  0.3800 -0.6008
 1481TIP3   OH225857   6.733   3.181   0.503 -0.2517  0.9856  0.1927
 1481TIP3    H125858   6.764   3.140   0.583  0.6214  2.1017  0.4580
 1481TIP3    H225859   6.738   3.275   0.521  0.1125  1.2558 -1.2251
 1482TIP3   OH225860   2.964   1.814  14.126  0.0865 -0.4198  0.1179
 1482TIP3    H125861   3.009   1.792  14.044  0.0912 -2.1272  0.5391
 1482TIP3    H225862   2.911   1.737  14.145 -2.1553  1.0371  0.2700
 1483TIP3   OH225863   1.192   3.108   6.102  0.0918 -0.0047  0.5744
 1483TIP3    H125864   1.188   3.090   6.008 -1.3129 -0.8738  0.7645
 1483TIP3    H225865   1.250   3.040   6.136 -0.4367 -0.5033  0.4954
 1484TIP3   OH225866   4.839   0.122  13.923 -0.5397  0.0072 -0.6681
 1484TIP3    H125867   4.822   0.213  13.951 -0.1597 -0.2232  0.3574
 1484TIP3    H225868   4.810   0.120  13.832  0.0014  1.3251 -0.8981
 1485TIP3   OH225869   6.456   0.273   1.022  0.0453  0.2159  0.0157
 1485TIP3    H125870   6.387   0.206   1.029 -0.6827  0.8571 -0.8353
 1485TIP3    H225871   6.412   0.355   1.042  0.4047  0.7140 -1.1709
 1486TIP3   OH225872   5.971   6.022  14.794  0.2557  0.3994  0.2116
 1486TIP3    H125873   5.963   5.937  14.839  0.0186 -0.3076 -1.1138
 1486TIP3    H225874   5.882   6.043  14.766  0.4854  0.5386 -0.4275
 1487TIP3   OH225875   5.097   4.900   2.491 -0.2788 -0.4186 -0.4804
 1487TIP3    H125876   5.157   4.974   2.505 -1.8641  0.6811  0.9234
 1487TIP3    H225877   5.150   4.822   2.507  1.2045  0.4325 -1.0503
 1488TIP3   OH225878   5.011   2.853   1.540 -0.2488 -0.2216  0.1158
 1488TIP3    H125879   4.946   2.790   1.574  0.8738 -0.8429  1.2075
 1488TIP3    H225880   5.031   2.909   1.615  2.4495 -1.7541  0.6863
 1489TIP3   OH225881   1.205   4.964  11.885  0.0980  0.8625  0.0224
 1489TIP3    H125882   1.272   4.913  11.840  1.1094  1.1096  1.1902
 1489TIP3    H225883   1.146   4.898  11.923 -0.0436  0.6319 -0.5980
 1490TIP3   OH225884   6.378   5.581  14.584 -0.8094 -0.0586  0.4828
 1490TIP3    H125885   6.294   5.567  14.627 -1.3589 -0.5432 -0.7096
 1490TIP3    H225886   6.384   5.677  14.575 -1.2015 -0.0160  0.6364
 1491TIP3   OH225887   1.684   3.388   3.333 -0.3530 -0.1548 -0.3237
 1491TIP3    H125888   1.623   3.342   3.390 -1.0361 -1.1384 -1.7808
 1491TIP3    H225889   1.640   3.470   3.312  0.0325  0.3497  0.7544
 1492TIP3   OH225890   1.061   4.877   3.579  0.5308 -0.7057 -0.5473
 1492TIP3    H125891   1.032   4.788   3.562 -1.2749 -0.5182  1.1630
 1492TIP3    H225892   1.034   4.927   3.502 -1.5842 -1.0240 -0.0609
 1493TIP3   OH225893   2.447   4.969  14.962 -0.2675 -0.4311 -0.3718
 1493TIP3    H125894   2.492   5.044  15.001 -0.7810 -0.4956  0.3668
 1493TIP3    H225895   2.516   4.905  14.946  0.3963  0.6445 -2.1984
 1494TIP3   OH225896   4.305   2.962   3.724  0.3348  0.0209 -0.8458
 1494TIP3    H125897   4.258   3.042   3.747  1.9624  1.6409 -2.8103
 1494TIP3    H225898   4.266   2.934   3.641 -0.4248 -1.4352 -0.0229
 1495TIP3   OH225899   2.642   4.804   6.323  0.0032 -0.2364 -0.3022
 1495TIP3    H125900   2.687   4.764   6.249  1.0280 -0.8040  0.5969
 1495TIP3    H225901   2.657   4.743   6.396  0.8103  1.2958  0.8848
 1496TIP3   OH225902   3.427   3.947   1.256  0.3495 -0.3194  0.3882
 1496TIP3    H125903   3.480   3.901   1.321  1.6851  0.0496 -0.4141
 1496TIP3    H225904   3.454   4.038   1.264 -0.2526 -0.1055  0.0325
 1497TIP3   OH225905   0.776   4.487  17.186 -0.1168 -0.0556  0.2423
 1497TIP3    H125906   0.750   4.458  17.099 -0.1949  2.3715 -0.6126
 1497TIP3    H225907   0.700   4.470  17.241 -0.4275 -0.6966 -0.3694
 1498TIP3   OH225908   3.495   5.498   4.302 -0.2795 -0.1016 -0.0097
 1498TIP3    H125909   3.461   5.518   4.389  1.3751  1.4063  0.3446
 1498TIP3    H225910   3.478   5.578   4.251 -1.8247 -1.1943 -1.3074
 1499TIP3   OH225911   2.648   4.487  11.862  0.3677  0.4311 -0.2849
 1499TIP3    H125912   2.687   4.574  11.861 -0.4185  0.8190  0.7671
 1499TIP3    H225913   2.625   4.472  11.954  1.0808 -1.1590 -0.3167
 1500TIP3   OH225914   0.491   1.230  16.642 -0.2283 -0.4450 -0.1576
 1500TIP3    H125915   0.469   1.159  16.582 -2.2536 -0.1038  0.0997
 1500TIP3    H225916   0.456   1.309  16.600  0.6371  0.1868  0.2762
 1501TIP3   OH225917   2.996   5.032   5.337 -0.5602 -0.0257 -0.3473
 1501TIP3    H125918   3.004   5.127   5.350  1.0917 -0.1518 -0.3387
 1501TIP3    H225919   2.909   5.011   5.373 -0.0345  1.1363  1.7698
 1502TIP3   OH225920   2.609   2.050   1.260 -0.2239  0.0962  0.5512
 1502TIP3    H125921   2.577   1.960   1.255 -3.8774  1.2259  0.4761
 1502TIP3    H225922   2.536   2.099   1.298  0.7250  3.4008 -1.4794
 1503TIP3   OH225923   6.538   6.243  15.401  0.6076 -0.2419 -0.8166
 1503TIP3    H125924   6.496   6.208  15.322 -0.5637 -1.3604  0.2573
 1503TIP3    H225925   6.590   6.170  15.435 -0.0984 -0.2885  0.2375
 1504TIP3   OH225926   0.873   3.130  13.631  0.9669 -0.8346 -0.0533
 1504TIP3    H125927   0.784   3.163  13.644  1.3956  0.3782 -0.0184
 1504TIP3    H225928   0.886   3.066  13.700 -0.2774 -1.9085 -0.7675
 1505TIP3   OH225929   2.993   6.645   3.212 -0.4488  0.0980  0.2418
 1505TIP3    H125930   2.899   6.654   3.195 -0.6316 -0.3428  0.9794
 1505TIP3    H225931   3.032   6.638   3.125 -1.2027 -0.6108 -0.0573
 1506TIP3   OH225932   4.398   3.107  12.914  0.0450  0.4057 -0.6057
 1506TIP3    H125933   4.346   3.072  12.842  1.3406 -0.2465 -1.2574
 1506TIP3    H225934   4.393   3.202  12.904  0.0695  0.3181 -1.4498
 1507TIP3   OH225935   4.732   2.806  14.077 -0.1157 -0.4097  0.1616
 1507TIP3    H125936   4.820   2.840  14.093  0.1534 -1.4368  0.9608
 1507TIP3    H225937   4.689   2.812  14.162 -0.3686 -1.1757  0.0893
 1508TIP3   OH225938   4.776   5.891  12.481 -0.3373 -0.3185  0.1296
 1508TIP3    H125939   4.739   5.910  12.567 -1.3469  0.6717 -0.4942
 1508TIP3    H225940   4.803   5.799  12.486 -0.8082 -0.4090  1.3474
 1509TIP3   OH225941   4.084   5.072  11.822 -0.3256 -0.3133  0.6341
 1509TIP3    H125942   4.022   5.061  11.750 -0.1745  1.3081  0.2396
 1509TIP3    H225943   4.047   5.141  11.876  0.5083 -0.1895  1.0717
 1510TIP3   OH225944   2.058   5.144   2.872  0.0039 -0.0075  0.6310
 1510TIP3    H125945   2.006   5.214   2.832  1.0874  0.3394 -0.2080
 1510TIP3    H225946   2.119   5.189   2.930  0.6420 -0.2423  0.1599
 1511TIP3   OH225947   2.499   1.163   5.925 -0.3686 -0.2080  0.3285
 1511TIP3    H125948   2.510   1.165   5.830  0.7211  0.7180  0.4647
 1511TIP3    H225949   2.414   1.205   5.940  0.3234  1.3958 -0.1237
 1512TIP3   OH225950   3.499   4.795  16.323  0.1729  0.3749 -0.1883
 1512TIP3    H125951   3.472   4.751  16.242  1.9952 -1.1330 -0.0481
 1512TIP3    H225952   3.437   4.868  16.333 -1.5268 -0.7713 -1.6975
 1513TIP3   OH225953   0.341   5.271  14.201  0.4408  0.0543  0.1665
 1513TIP3    H125954   0.407   5.242  14.265  0.6940 -0.3489 -0.2618
 1513TIP3    H225955   0.317   5.359  14.229  0.5343 -0.1240  0.8258
 1514TIP3   OH225956   4.821   2.631  16.784 -0.5097  0.1046 -0.2482
 1514TIP3    H125957   4.763   2.569  16.828 -3.7008  2.3289 -0.9269
 1514TIP3    H225958   4.841   2.697  16.850  0.4787 -0.1427 -0.2900
 1515TIP3   OH225959   2.965   5.491   4.262 -0.0996 -0.2638  0.4370
 1515TIP3    H125960   2.963   5.586   4.247  1.3834 -0.1833  0.6040
 1515TIP3    H225961   2.914   5.454   4.190 -1.0138  0.6742  0.5822
 1516TIP3   OH225962   3.554   0.180   5.501  0.3510  0.5253  0.1256
 1516TIP3    H125963   3.542   0.152   5.591  1.9120 -0.9509 -0.0745
 1516TIP3    H225964   3.646   0.207   5.496  0.7566 -0.9617 -1.3755
 1517TIP3   OH225965   1.209   5.296   4.784  0.3233  0.0243  0.3376
 1517TIP3    H125966   1.229   5.388   4.767  0.4586  0.2282  1.5269
 1517TIP3    H225967   1.289   5.261   4.823  0.2801 -0.6149 -0.1248
 1518TIP3   OH225968   0.937   5.615  14.536 -0.8352  0.5643  0.2424
 1518TIP3    H125969   0.977   5.551  14.477  1.0061  1.2033  0.7291
 1518TIP3    H225970   0.849   5.629  14.501 -0.5808 -0.7409 -1.0098
 1519TIP3   OH225971   3.829   1.669  13.974  0.6032 -0.7651 -0.8515
 1519TIP3    H125972   3.782   1.751  13.957  3.1873  1.0079 -0.0572
 1519TIP3    H225973   3.820   1.619  13.892  1.9493  1.9144 -2.7803
 1520TIP3   OH225974   5.987   6.018   4.720 -0.0132  0.2898  0.5122
 1520TIP3    H125975   6.014   6.029   4.629  0.9507 -1.9345  0.4845
 1520TIP3    H225976   6.062   6.047   4.771  0.0553  0.0340  0.5589
 1521TIP3   OH225977   0.801   2.117   0.372  0.6803  0.1372 -0.1543
 1521TIP3    H125978   0.785   2.207   0.344 -0.9076  0.4267  1.4601
 1521TIP3    H225979   0.769   2.115   0.463  0.8143 -2.0107 -0.1195
 1522TIP3   OH225980   0.925   5.340   6.239  0.3180 -0.0657 -0.1513
 1522TIP3    H125981   0.898   5.381   6.157  0.7253 -0.6476 -0.5861
 1522TIP3    H225982   0.887   5.253   6.237  0.4975 -0.1560  0.1885
 1523TIP3   OH225983   4.665   2.614   4.025 -0.1717 -0.1809 -0.1700
 1523TIP3    H125984   4.599   2.550   3.999  0.7866 -1.2255 -0.0811
 1523TIP3    H225985   4.746   2.564   4.032  0.7218  1.1524 -0.6505
 1524TIP3   OH225986   0.765   3.428  14.207  0.4337 -0.4135  0.2453
 1524TIP3    H125987   0.758   3.407  14.114 -2.6389  1.5735 -0.1254
 1524TIP3    H225988   0.837   3.492  14.212  0.1965 -0.0389 -0.9007
 1525TIP3   OH225989   2.747   4.867   2.586 -0.1255 -0.0281  0.3346
 1525TIP3    H125990   2.754   4.777   2.555 -1.2906 -0.1048  0.2316
 1525TIP3    H225991   2.696   4.861   2.667  0.4102  0.4641  0.7175
 1526TIP3   OH225992   3.525   4.160   4.402  0.1119  0.2503 -0.0634
 1526TIP3    H125993   3.503   4.067   4.408  0.5919  0.0842 -0.7853
 1526TIP3    H225994   3.583   4.176   4.477 -0.8542  0.2345  0.7051
 1527TIP3   OH225995   1.765   3.281   1.955 -0.5887  0.1141  0.2425
 1527TIP3    H125996   1.828   3.350   1.934 -0.5924 -0.0352 -0.2683
 1527TIP3    H225997   1.685   3.306   1.910 -1.3556  1.0325  2.0128
 1528TIP3   OH225998   1.017   5.964   0.311  0.3188 -0.1818  0.4380
 1528TIP3    H125999   1.003   6.016   0.390 -1.3089  1.3750 -0.7993
 1528TIP3    H226000   0.935   5.917   0.299  0.6067 -0.5198 -0.2404
 1529TIP3   OH226001   0.038   1.934   4.948  0.5395  0.7808  0.6238
 1529TIP3    H126002  -0.036   1.970   4.997  1.9359  0.4479  3.1675
 1529TIP3    H226003   0.043   1.843   4.977 -0.3944 -0.4238 -2.5631
 1530TIP3   OH226004   0.153   1.562  15.077 -0.2479  0.8534 -0.6267
 1530TIP3    H126005   0.144   1.467  15.074 -2.1541  0.8630  1.8035
 1530TIP3    H226006   0.078   1.596  15.028 -0.2958  1.0783 -0.4055
 1531TIP3   OH226007   4.278   4.874   1.536  0.3200  0.3640 -0.2041
 1531TIP3    H126008   4.345   4.918   1.589 -0.7655  0.6147  1.0077
 1531TIP3    H226009   4.205   4.936   1.534 -1.7166 -1.7089  2.5026
 1532TIP3   OH226010   4.885   0.870   1.007  0.6531 -0.2769 -0.1617
 1532TIP3    H126011   4.839   0.932   0.951  1.7562  1.3306  0.6343
 1532TIP3    H226012   4.842   0.786   0.990 -1.3286  0.7962 -0.7968
 1533TIP3   OH226013   1.243   0.638  17.443  0.2096 -0.0273  0.9529
 1533TIP3    H126014   1.262   0.557  17.395  1.2311  1.3999 -1.2751
 1533TIP3    H226015   1.155   0.627  17.477 -0.2522 -1.4988 -0.5973
 1534TIP3   OH226016   1.896   1.501   2.095 -0.0453 -0.3531  0.0189
 1534TIP3    H126017   1.984   1.485   2.127  0.1529 -0.1714 -0.4268
 1534TIP3    H226018   1.902   1.585   2.049 -0.0782 -1.0888 -1.3717
 1535TIP3   OH226019   0.480   6.036   6.623 -0.4505  0.3842 -0.1777
 1535TIP3    H126020   0.489   5.941   6.631 -0.5833  0.3183 -0.7962
 1535TIP3    H226021   0.394   6.055   6.660 -0.2342  0.3280  0.3780
 1536TIP3   OH226022   1.960   5.111   1.887 -0.4646 -0.2185  0.4770
 1536TIP3    H126023   2.013   5.143   1.959  1.1220  0.5981 -1.0021
 1536TIP3    H226024   1.974   5.016   1.887  1.4012  0.0230 -0.1543
 1537TIP3   OH226025   0.639   2.419   2.488 -0.0405 -0.5594 -0.5780
 1537TIP3    H126026   0.658   2.501   2.444  1.1246  0.0552  0.9615
 1537TIP3    H226027   0.688   2.353   2.438  2.7594  0.3696  0.6773
 1538TIP3   OH226028   4.551   3.398  15.387 -0.3588 -0.1949  0.6675
 1538TIP3    H126029   4.527   3.332  15.322 -1.0389  0.0033  0.7071
 1538TIP3    H226030   4.599   3.349  15.454  0.3392 -0.4021  0.0310
 1539TIP3   OH226031   5.244   1.151  15.048  0.1638 -0.1724  0.5924
 1539TIP3    H126032   5.160   1.180  15.083 -0.8752 -1.9075 -0.2670
 1539TIP3    H226033   5.276   1.087  15.112 -0.3367 -1.2202 -0.1717
 1540TIP3   OH226034   3.789   1.446  15.209  0.1128  0.7133 -0.6298
 1540TIP3    H126035   3.799   1.481  15.121 -2.3451 -0.4422 -1.4657
 1540TIP3    H226036   3.716   1.496  15.247  0.0113  0.0555  0.0924
 1541TIP3   OH226037   2.548   1.806  11.412 -0.2963  0.3462 -0.3386
 1541TIP3    H126038   2.490   1.757  11.355 -1.6173 -0.9679  1.9969
 1541TIP3    H226039   2.510   1.894  11.415 -0.6599  0.2116 -0.8444
 1542TIP3   OH226040   5.229   5.020  15.271 -0.4729 -0.0341  0.4580
 1542TIP3    H126041   5.189   4.939  15.303 -1.9449  1.3964  2.4856
 1542TIP3    H226042   5.218   5.083  15.343  1.5198  1.7139 -0.6465
 1543TIP3   OH226043   5.399   5.455  12.550  0.2258  0.3177  1.0471
 1543TIP3    H126044   5.321   5.510  12.538 -0.1431 -0.0699  1.6292
 1543TIP3    H226045   5.366   5.365  12.543  0.3095  0.1095  2.9415
 1544TIP3   OH226046   1.224   4.597   1.045 -0.4372 -0.3261  0.6231
 1544TIP3    H126047   1.278   4.556   1.112  1.4531 -0.2054 -0.7561
 1544TIP3    H226048   1.238   4.543   0.967 -0.5632  1.0109 -0.3541
 1545TIP3   OH226049   2.700   1.377   4.345  0.0252 -0.3179  0.5897
 1545TIP3    H126050   2.748   1.320   4.405  0.4314 -1.0866 -0.4422
 1545TIP3    H226051   2.608   1.363   4.368  0.2167  0.0738  1.6178
 1546TIP3   OH226052   3.340   0.932   3.716 -0.0599  0.5017 -0.3151
 1546TIP3    H126053   3.416   0.989   3.705  1.2609 -1.2395 -0.6883
 1546TIP3    H226054   3.354   0.888   3.800 -0.1109 -0.5492 -0.8323
 1547TIP3   OH226055   0.544   6.052   6.132  0.2590  0.3493 -0.3008
 1547TIP3    H126056   0.565   6.140   6.102 -1.0395  0.4721 -0.8981
 1547TIP3    H226057   0.543   6.059   6.228  0.6126  0.8583 -0.3273
 1548TIP3   OH226058   4.092   2.910  16.839  0.8298  0.5699 -0.1106
 1548TIP3    H126059   4.139   2.981  16.884  0.7558 -0.5036  1.7743
 1548TIP3    H226060   4.000   2.930  16.853  0.8097  0.0933  0.4554
 1549TIP3   OH226061   0.628   1.731   4.723 -1.0142  0.1909 -0.5138
 1549TIP3    H126062   0.707   1.727   4.669  0.0258  2.2524  0.7285
 1549TIP3    H226063   0.653   1.688   4.805 -1.2430  0.6980 -0.1783
 1550TIP3   OH226064   5.815   0.511   5.817 -0.0291 -0.5272 -0.0754
 1550TIP3    H126065   5.758   0.569   5.868  1.6985  0.4998  0.8008
 1550TIP3    H226066   5.879   0.479   5.880  1.5827 -0.0034 -1.3619
 1551TIP3   OH226067   0.622   1.596  11.303 -0.2000 -0.6430 -0.2379
 1551TIP3    H126068   0.647   1.558  11.219 -2.5803  1.7032 -2.1787
 1551TIP3    H226069   0.543   1.549  11.329 -0.2072 -0.4891  0.0299
 1552TIP3   OH226070   5.224   6.410   0.605  0.3297  0.3301  0.0035
 1552TIP3    H126071   5.186   6.453   0.528  1.3127  0.6255 -0.3264
 1552TIP3    H226072   5.164   6.338   0.624  0.4461 -0.1877 -1.4723
 1553TIP3   OH226073   2.052   5.911  16.359 -0.0126 -0.2653  0.0131
 1553TIP3    H126074   2.029   5.825  16.325  0.4600 -0.0261 -0.9372
 1553TIP3    H226075   2.116   5.945  16.298  0.1409  0.5859  0.6257
 1554TIP3   OH226076   5.981   5.261  11.828 -0.2178 -0.1519  0.1145
 1554TIP3    H126077   5.944   5.342  11.863  0.6809  0.0173  0.7014
 1554TIP3    H226078   6.032   5.225  11.900  1.2851 -0.0500 -0.8536
 1555TIP3   OH226079   3.409   5.981  14.162  0.4264 -0.2648  0.4626
 1555TIP3    H126080   3.469   5.907  14.168 -0.2109 -0.7671  0.9306
 1555TIP3    H226081   3.326   5.946  14.195 -0.0154  0.5199  0.2023
 1556TIP3   OH226082   6.013   1.195  16.283 -0.4999  0.0181 -0.2225
 1556TIP3    H126083   6.013   1.198  16.378 -2.6041  0.4770 -0.2031
 1556TIP3    H226084   5.922   1.206  16.258  0.0442  0.2163 -2.3171
 1557TIP3   OH226085   5.808   6.263   2.406 -0.6254  0.5841 -0.0621
 1557TIP3    H126086   5.748   6.303   2.343 -0.4692  0.2120 -0.4507
 1557TIP3    H226087   5.887   6.243   2.354 -0.3269  0.6818  0.3466
 1558TIP3   OH226088   2.625   1.727  13.794 -0.3937 -0.3022  0.4104
 1558TIP3    H126089   2.697   1.790  13.802 -0.6193  0.4111 -2.1412
 1558TIP3    H226090   2.553   1.779  13.758 -1.7922 -1.2961  1.6867
 1559TIP3   OH226091   2.701   0.140   2.878  0.3401  0.6403 -0.0801
 1559TIP3    H126092   2.694   0.059   2.929 -0.3191  1.0004  0.4217
 1559TIP3    H226093   2.763   0.120   2.809  0.5444 -0.1491  0.3247
 1560TIP3   OH226094   5.108   0.004   1.067 -0.1454  0.3284  0.3907
 1560TIP3    H126095   5.040   0.067   1.093 -0.6788 -0.2433  0.3978
 1560TIP3    H226096   5.147   0.043   0.988  1.0917  1.7879  1.6568
 1561TIP3   OH226097   0.753   3.888  11.871 -0.3383 -0.2026 -0.5864
 1561TIP3    H126098   0.670   3.878  11.823 -0.1288  0.7778 -1.1726
 1561TIP3    H226099   0.785   3.975  11.846  0.5359 -0.2998  0.1620
 1562TIP3   OH226100   3.250   3.482   2.363 -0.3595  0.1169 -0.2966
 1562TIP3    H126101   3.271   3.571   2.392 -1.5681  0.6996 -1.0716
 1562TIP3    H226102   3.271   3.426   2.437  0.5787  1.0296  0.1525
 1563TIP3   OH226103   2.931   6.373  15.374  0.3492 -0.3968 -0.0049
 1563TIP3    H126104   2.938   6.427  15.295 -0.1723 -0.8938 -0.3994
 1563TIP3    H226105   2.838   6.378  15.398  0.4689 -0.4016  0.4703
 1564TIP3   OH226106   2.164   4.982   3.319 -0.1064  0.2187 -0.1964
 1564TIP3    H126107   2.083   4.936   3.299 -0.4684  0.2607  1.0519
 1564TIP3    H226108   2.208   4.993   3.235 -1.9673  1.2991 -1.1026
 1565TIP3   OH226109   5.071   5.701  17.000  0.5983  0.0447  0.4010
 1565TIP3    H126110   5.138   5.677  16.936 -0.7454  1.0245 -1.4916
 1565TIP3    H226111   5.028   5.619  17.022  0.1209 -0.1472 -1.1428
 1566TIP3   OH226112   6.262   4.945  11.228 -0.2937  0.2763 -0.4375
 1566TIP3    H126113   6.193   4.899  11.180 -0.9235  0.4216  0.3087
 1566TIP3    H226114   6.302   4.877  11.283  0.4391  0.1055 -1.1639
 1567TIP3   OH226115   1.408   3.507  10.913  0.2288 -0.0874 -0.5549
 1567TIP3    H126116   1.465   3.545  10.847  1.8834 -1.3663  0.0685
 1567TIP3    H226117   1.357   3.581  10.947  1.7453  1.1600 -0.9114
 1568TIP3   OH226118   5.790   6.112   5.736  0.2922 -0.0728 -0.5022
 1568TIP3    H126119   5.715   6.061   5.705 -0.4471  1.7726 -1.9205
 1568TIP3    H226120   5.763   6.144   5.822  0.3278 -1.1000 -0.0861
 1569TIP3   OH226121   0.077   3.129   3.393 -0.4847 -0.4278  0.1973
 1569TIP3    H126122   0.153   3.112   3.448  1.0915 -0.4991 -1.8473
 1569TIP3    H226123   0.071   3.053   3.336 -0.9003  0.4207 -0.9335
 1570TIP3   OH226124   4.623   6.652  13.659 -0.6458 -0.6453  0.0420
 1570TIP3    H126125   4.561   6.656  13.586  1.2914 -0.4196 -1.6658
 1570TIP3    H226126   4.644   6.743  13.678 -0.4517 -0.7355  0.2630
 1571TIP3   OH226127   6.715   3.006  17.306  0.2872 -0.2767 -0.3372
 1571TIP3    H126128   6.680   3.001  17.217 -1.3891  0.8180  0.2305
 1571TIP3    H226129   6.809   2.988  17.295 -0.1064 -1.5467 -2.1308
 1572TIP3   OH226130   5.218   2.319   1.481 -0.2267 -0.3461  0.1943
 1572TIP3    H126131   5.178   2.393   1.527 -2.0105  0.2710 -2.1837
 1572TIP3    H226132   5.249   2.356   1.398  1.8198 -1.6537  0.2941
 1573TIP3   OH226133   0.495   0.305  14.740 -0.4591 -0.0607 -0.2644
 1573TIP3    H126134   0.473   0.333  14.652  0.7738  1.1391 -0.2288
 1573TIP3    H226135   0.512   0.387  14.788  1.5507 -0.7719  0.3341
 1574TIP3   OH226136   5.462   4.566   0.368  0.0936  0.0947 -0.0621
 1574TIP3    H126137   5.396   4.635   0.365  0.7767  0.7279 -0.9325
 1574TIP3    H226138   5.539   4.608   0.407  0.7050  0.0135 -1.1409
 1575TIP3   OH226139   2.256   1.064   5.742 -0.3306  0.0762  0.1401
 1575TIP3    H126140   2.194   1.030   5.806  0.0153 -0.5256  0.1587
 1575TIP3    H226141   2.202   1.095   5.669 -0.5722 -2.4466 -0.8265
 1576TIP3   OH226142   3.819   5.658   4.647  0.4452 -0.2493  0.4708
 1576TIP3    H126143   3.909   5.681   4.673  0.9681  0.0198 -1.3502
 1576TIP3    H226144   3.829   5.627   4.557 -1.1926 -1.1210  0.5677
 1577TIP3   OH226145   2.905   2.119  15.486  0.6696  0.0516 -0.6838
 1577TIP3    H126146   2.839   2.187  15.472  1.6517  1.0090 -0.8356
 1577TIP3    H226147   2.862   2.055  15.543 -0.5992  0.2971 -1.3276
 1578TIP3   OH226148   2.214   2.192   3.836 -0.2360 -0.1882 -0.5564
 1578TIP3    H126149   2.142   2.252   3.858 -0.0169 -0.2992  0.5431
 1578TIP3    H226150   2.198   2.115   3.890  2.8339  1.3163  3.0053
 1579TIP3   OH226151   0.108   0.972  16.767  0.1032  0.0183  0.1481
 1579TIP3    H126152   0.143   1.020  16.842  1.5048 -0.3791 -0.2043
 1579TIP3    H226153   0.092   0.884  16.800  1.6890 -0.4445 -0.2142
 1580TIP3   OH226154   5.285   4.354   0.563 -0.2196 -0.0927 -0.8701
 1580TIP3    H126155   5.286   4.443   0.600 -1.8281 -0.8785  1.2799
 1580TIP3    H226156   5.347   4.358   0.490  1.8168  2.0950  0.8063
 1581TIP3   OH226157   6.628   2.412  13.102 -0.0888 -0.0794  0.1254
 1581TIP3    H126158   6.685   2.470  13.153 -0.6901  1.8658 -1.2624
 1581TIP3    H226159   6.642   2.325  13.138  1.3028  0.8493  1.9521
 1582TIP3   OH226160   2.304   4.766  12.189  0.3321 -0.1749 -0.9191
 1582TIP3    H126161   2.290   4.674  12.168  0.7453 -0.8140  1.2947
 1582TIP3    H226162   2.241   4.813  12.134 -2.0357 -2.0144 -0.0077
 1583TIP3   OH226163   4.887   3.914  15.158  0.0566  0.6440  0.7564
 1583TIP3    H126164   4.818   3.980  15.159 -1.4906 -0.8666 -0.4108
 1583TIP3    H226165   4.883   3.877  15.070  1.9150  0.0271  0.8914
 1584TIP3   OH226166   1.806   3.067   1.301 -0.1826 -0.3467  0.9677
 1584TIP3    H126167   1.791   3.153   1.262 -0.2692 -0.8219 -0.0795
 1584TIP3    H226168   1.801   3.082   1.395 -0.7226  0.7017  0.7868
 1585TIP3   OH226169   4.938   0.429   4.092 -0.2060 -0.7281  0.4590
 1585TIP3    H126170   5.016   0.478   4.116  0.0291  1.0352 -3.2815
 1585TIP3    H226171   4.971   0.355   4.041 -0.7971  1.3553 -3.3188
 1586TIP3   OH226172   0.324   0.653   3.947 -0.0002 -0.1249  0.0216
 1586TIP3    H126173   0.277   0.575   3.977  0.9061 -0.9086 -0.5535
 1586TIP3    H226174   0.414   0.624   3.932  0.2624  0.9328 -0.6117
 1587TIP3   OH226175   5.219   3.758  10.987  0.6905 -0.1077 -0.3766
 1587TIP3    H126176   5.131   3.781  11.013  0.1532 -2.9648  0.7306
 1587TIP3    H226177   5.271   3.836  11.004 -1.4501  1.4014 -0.3764
 1588TIP3   OH226178   3.892   4.996   0.430  0.0764 -0.1928 -0.0037
 1588TIP3    H126179   3.831   5.068   0.417 -0.6691 -0.9579 -0.8704
 1588TIP3    H226180   3.843   4.932   0.482 -0.1589 -1.1456 -1.3495
 1589TIP3   OH226181   4.217   0.200   3.456  0.5474  0.3682  0.2703
 1589TIP3    H126182   4.144   0.138   3.458  1.2182 -0.4311  0.5395
 1589TIP3    H226183   4.266   0.176   3.377  1.5252 -0.2948  1.0641
 1590TIP3   OH226184   6.017   5.365   1.360 -0.4468  0.0926 -0.4209
 1590TIP3    H126185   6.070   5.444   1.372 -1.8382  0.7977  1.5211
 1590TIP3    H226186   6.068   5.295   1.401 -0.4238  0.5158  0.2812
 1591TIP3   OH226187   3.525   6.677   1.484 -0.0387 -0.3290  0.3121
 1591TIP3    H126188   3.537   6.766   1.514 -2.2862  0.7092 -1.5254
 1591TIP3    H226189   3.434   6.656   1.507 -0.1883 -1.3460 -1.0555
 1592TIP3   OH226190   1.331   4.521   3.067  0.1086 -0.3991  0.3489
 1592TIP3    H126191   1.349   4.589   3.001  0.0282  1.5639  2.2281
 1592TIP3    H226192   1.277   4.457   3.022 -1.4288  1.7465 -1.0613
 1593TIP3   OH226193   6.002   4.508   4.953  0.2572 -0.0018  0.1217
 1593TIP3    H126194   6.043   4.507   5.039 -0.4933 -3.7166  0.5753
 1593TIP3    H226195   6.075   4.511   4.891  0.9533 -0.5317  0.9011
 1594TIP3   OH226196   0.126   4.523   2.779 -0.6818  0.3017  0.2167
 1594TIP3    H126197   0.097   4.599   2.730  1.5213  0.8911 -0.3058
 1594TIP3    H226198   0.054   4.502   2.837 -0.7518  3.8546  1.6329
 1595TIP3   OH226199   0.413   3.602  13.332 -0.5594  0.4778  0.0925
 1595TIP3    H126200   0.326   3.634  13.308 -0.2956  0.9520 -0.2354
 1595TIP3    H226201   0.435   3.539  13.263  0.0072  1.5077 -0.6987
 1596TIP3   OH226202   4.885   4.715   2.538  0.2327  0.2577  0.5048
 1596TIP3    H126203   4.954   4.781   2.555  1.0715 -0.7810  1.2678
 1596TIP3    H226204   4.813   4.741   2.595  0.2439  0.9711  0.2069
 1597TIP3   OH226205   3.125   1.914   3.531 -0.3589 -0.2222 -0.1097
 1597TIP3    H126206   3.198   1.973   3.513  0.9553 -1.3391  1.2139
 1597TIP3    H226207   3.086   1.897   3.446  1.0838  0.2434 -0.9087
 1598TIP3   OH226208   5.869   4.812  13.137  0.0591  0.1755 -0.5426
 1598TIP3    H126209   5.776   4.819  13.159  0.0567 -1.1607 -0.0009
 1598TIP3    H226210   5.914   4.866  13.201 -0.2591 -0.2968  0.0854
 1599TIP3   OH226211   2.894   6.037  13.894 -0.3215  0.4307 -0.2043
 1599TIP3    H126212   2.833   6.000  13.959 -2.6283  1.5062 -1.6294
 1599TIP3    H226213   2.902   6.129  13.919 -0.5297  0.6443 -0.8989
 1600TIP3   OH226214   4.717   6.739   4.419  0.0712  0.0511  0.0070
 1600TIP3    H126215   4.634   6.785   4.406 -0.2823 -0.5417  0.1434
 1600TIP3    H226216   4.693   6.657   4.462  0.7840  0.1038  0.5290
 1601TIP3   OH226217   3.072   2.497   4.171 -0.3855  0.0054  0.3041
 1601TIP3    H126218   3.063   2.555   4.095  0.6019 -0.8059 -0.4693
 1601TIP3    H226219   3.021   2.539   4.240 -1.4200  0.6971 -0.8422
 1602TIP3   OH226220   2.953   3.481  11.449  0.1554  0.2090 -0.1953
 1602TIP3    H126221   3.018   3.475  11.379 -0.5957 -1.3514 -0.8037
 1602TIP3    H226222   2.871   3.455  11.407 -0.5100  0.2813  1.0290
 1603TIP3   OH226223   2.587   1.674  15.690  0.3716  0.6093  0.2564
 1603TIP3    H126224   2.557   1.591  15.654  1.3969 -0.2051  1.2498
 1603TIP3    H226225   2.623   1.721  15.614  0.8429 -0.3290 -0.1121
 1604TIP3   OH226226   0.249   6.666   1.748 -0.1271 -0.2282  0.4587
 1604TIP3    H126227   0.212   6.745   1.788 -0.8171  0.4176 -1.3216
 1604TIP3    H226228   0.342   6.671   1.767 -0.3028  0.5088  1.1997
 1605TIP3   OH226229   4.252   3.339  16.803  0.4933  0.0933  0.1413
 1605TIP3    H126230   4.186   3.393  16.846  2.5342  1.8000  1.3249
 1605TIP3    H226231   4.238   3.353  16.709 -0.7136  0.5156  0.3740
 1606TIP3   OH226232   6.596   4.287  16.569 -0.4231  0.3320  0.2398
 1606TIP3    H126233   6.665   4.353  16.580 -0.5025  0.2743  1.2034
 1606TIP3    H226234   6.624   4.235  16.494  0.9771 -0.1527  1.0625
 1607TIP3   OH226235   2.621   3.647  12.743  0.0114 -0.5674 -0.1672
 1607TIP3    H126236   2.670   3.567  12.723 -1.8145 -1.4801 -1.2494
 1607TIP3    H226237   2.533   3.630  12.709 -0.3061  2.1006 -0.8926
 1608TIP3   OH226238   1.416   1.179  12.272  0.0608 -0.7420  0.0934
 1608TIP3    H126239   1.355   1.107  12.289 -0.3057 -0.1357  1.5257
 1608TIP3    H226240   1.432   1.175  12.178  1.1299 -3.5248  0.2902
 1609TIP3   OH226241   3.759   6.018   0.413  0.2240  0.2332 -0.5500
 1609TIP3    H126242   3.692   6.082   0.438 -1.0405 -0.6367 -1.5936
 1609TIP3    H226243   3.737   5.940   0.463  0.3635 -0.1027 -1.0093
 1610TIP3   OH226244   5.196   5.239  16.613  0.6464 -0.0329  0.1309
 1610TIP3    H126245   5.102   5.254  16.601  0.9810  1.9745 -0.4308
 1610TIP3    H226246   5.232   5.327  16.628  2.3271 -0.8573  1.1725
 1611TIP3   OH226247   0.619   5.409  13.127 -0.7415  0.2166 -0.7145
 1611TIP3    H126248   0.648   5.411  13.218 -0.9062 -3.5615 -0.4005
 1611TIP3    H226249   0.548   5.473  13.123 -0.7750  0.4584  1.8135
 1612TIP3   OH226250   5.357   3.768   4.645 -0.3483  0.5973  0.1803
 1612TIP3    H126251   5.399   3.706   4.585  1.2055  1.9223 -0.1867
 1612TIP3    H226252   5.282   3.802   4.596 -0.0301  0.4730 -0.4034
 1613TIP3   OH226253   5.382   1.362   2.219 -0.5385 -0.3708 -0.1891
 1613TIP3    H126254   5.363   1.273   2.250  1.3812 -2.0231 -3.2118
 1613TIP3    H226255   5.336   1.368   2.135 -0.1769  1.2971 -0.2914
 1614TIP3   OH226256   0.292   1.685  12.371 -0.0365  0.0723 -0.8886
 1614TIP3    H126257   0.216   1.732  12.404  0.3550  0.2759 -0.2699
 1614TIP3    H226258   0.327   1.741  12.301 -0.0349  0.3166 -0.6899
 1615TIP3   OH226259   5.924   1.401   0.675 -0.4861  0.0334  0.0816
 1615TIP3    H126260   5.976   1.471   0.715 -1.2043  1.6107 -1.5814
 1615TIP3    H226261   5.985   1.356   0.617 -0.6004  1.0453 -0.8741
 1616TIP3   OH226262   0.606   5.059  15.084 -0.1503  0.3447 -0.3053
 1616TIP3    H126263   0.676   5.078  15.147  0.4845 -0.7638 -0.6598
 1616TIP3    H226264   0.651   5.022  15.009 -1.0957 -0.1092 -0.6597
 1617TIP3   OH226265   3.985   6.013  16.392 -0.1779 -0.5087  0.2012
 1617TIP3    H126266   4.033   6.044  16.315 -0.2385  1.4093  0.8761
 1617TIP3    H226267   3.953   5.926  16.368  1.0721 -0.5735 -1.3685
 1618TIP3   OH226268   6.196   0.682  11.800  0.3930  0.3551 -0.3739
 1618TIP3    H126269   6.261   0.711  11.864 -0.7265  0.6561  0.6466
 1618TIP3    H226270   6.232   0.709  11.715  1.4297  0.8252  0.2022
 1619TIP3   OH226271   4.848   2.092   3.266 -0.0486 -0.2467  0.8898
 1619TIP3    H126272   4.870   2.023   3.328 -0.0626  0.8904  2.2134
 1619TIP3    H226273   4.893   2.169   3.298  0.9560  0.1384 -1.2319
 1620TIP3   OH226274   0.080   5.426   5.770 -0.6625  0.6730 -0.7537
 1620TIP3    H126275   0.117   5.492   5.830 -3.2494  2.9409 -1.4325
 1620TIP3    H226276   0.133   5.434   5.691  0.3633  0.3957 -0.1226
 1621TIP3   OH226277   2.317   2.091  14.808 -0.2507  0.2647  0.4123
 1621TIP3    H126278   2.348   2.140  14.731 -0.1035  0.0859  0.3576
 1621TIP3    H226279   2.393   2.088  14.866  0.7453 -2.5341 -0.8695
 1622TIP3   OH226280   2.149   1.632  11.487  0.1371 -0.2005 -0.0257
 1622TIP3    H126281   2.147   1.541  11.514 -0.1246 -0.2844 -0.3252
 1622TIP3    H226282   2.229   1.640  11.434  0.0692 -0.2956 -0.1414
 1623TIP3   OH226283   4.044   6.373  13.848 -0.2519 -0.3495  0.0719
 1623TIP3    H126284   4.071   6.465  13.855 -0.2367 -0.0282 -2.8916
 1623TIP3    H226285   3.950   6.378  13.830 -0.4364 -0.9712  0.8585
 1624TIP3   OH226286   0.416   6.131  13.016 -0.0874  0.6188 -0.4062
 1624TIP3    H126287   0.323   6.149  13.001 -0.4477 -0.1515  0.8302
 1624TIP3    H226288   0.450   6.109  12.929 -1.1562  0.4624 -0.8001
 1625TIP3   OH226289   2.152   5.929  14.802  0.1166 -0.0569  0.0109
 1625TIP3    H126290   2.160   6.018  14.767  0.1191  0.7957  2.0378
 1625TIP3    H226291   2.213   5.877  14.750  1.1771  1.4361 -0.3031
 1626TIP3   OH226292   5.817   1.558   4.409 -0.6938 -0.6970  0.2891
 1626TIP3    H126293   5.798   1.472   4.446  0.6967 -1.4968 -0.7843
 1626TIP3    H226294   5.909   1.573   4.429 -0.8655  0.4677  0.2793
 1627TIP3   OH226295   3.210   5.574  12.679 -0.1051  0.2786 -0.1559
 1627TIP3    H126296   3.304   5.577  12.693 -0.1858  1.0770  0.2380
 1627TIP3    H226297   3.174   5.541  12.761 -0.0493 -1.7716 -0.9063
 1628TIP3   OH226298   4.403   0.828  12.459  0.1462 -0.5234  0.4753
 1628TIP3    H126299   4.371   0.895  12.519  0.7300 -0.6690  0.9593
 1628TIP3    H226300   4.326   0.801  12.410  0.1052  1.4643 -0.6904
 1629TIP3   OH226301   1.046   3.358   1.378  0.4796 -0.6304  0.3088
 1629TIP3    H126302   1.017   3.447   1.356  0.6253 -0.7537 -0.4131
 1629TIP3    H226303   1.103   3.333   1.306  0.4634 -1.3037  0.5225
 1630TIP3   OH226304   0.804   3.839  15.096 -0.3143  0.1350  0.0704
 1630TIP3    H126305   0.746   3.769  15.126  0.9878 -0.7963  0.5511
 1630TIP3    H226306   0.764   3.920  15.126 -4.0211  0.1259 -3.8299
 1631TIP3   OH226307   0.348   0.056   5.334  0.1735  0.1795  0.5470
 1631TIP3    H126308   0.432   0.034   5.293  0.2683 -0.4614  1.0778
 1631TIP3    H226309   0.328  -0.018   5.391 -0.4931  0.5689  0.8376
 1632TIP3   OH226310   4.179   6.352   2.318  0.7106 -0.2286 -0.5721
 1632TIP3    H126311   4.085   6.366   2.311  1.0881  3.3749 -0.5766
 1632TIP3    H226312   4.189   6.257   2.328 -2.8526 -0.7596 -0.7329
 1633TIP3   OH226313   5.414   2.500  14.703 -0.0582 -0.0971 -0.0679
 1633TIP3    H126314   5.335   2.544  14.672 -0.4023  0.3009  1.2908
 1633TIP3    H226315   5.455   2.563  14.763 -0.0189 -1.2212  1.1240
 1634TIP3   OH226316   6.170   6.511  12.163 -0.4839  0.0181 -0.0869
 1634TIP3    H126317   6.181   6.566  12.086  0.4303  2.4216  1.6402
 1634TIP3    H226318   6.259   6.499  12.196 -0.6930 -2.2699 -0.1822
 1635TIP3   OH226319   0.640   3.499   6.205 -0.0020  0.1554  0.3060
 1635TIP3    H126320   0.678   3.584   6.226  2.6171 -1.0180  0.7571
 1635TIP3    H226321   0.666   3.443   6.279  0.8653 -1.6891 -1.3064
 1636TIP3   OH226322   0.939   5.486   2.990 -0.5655  0.2867 -0.5323
 1636TIP3    H126323   1.015   5.519   2.943 -1.0493  1.2796 -0.6440
 1636TIP3    H226324   0.882   5.562   3.001 -0.6613  0.0127  1.3067
 1637TIP3   OH226325   4.071   6.736   2.802  0.4359 -0.3975 -0.1234
 1637TIP3    H126326   4.088   6.653   2.759  0.6850 -0.8926  0.8986
 1637TIP3    H226327   3.983   6.761   2.775  0.0500 -1.3925  0.1770
 1638TIP3   OH226328   5.558   2.630  16.842 -0.0974  0.1653  0.2414
 1638TIP3    H126329   5.576   2.618  16.936  1.4845 -1.2995 -0.1896
 1638TIP3    H226330   5.623   2.694  16.814 -0.4906  0.5111  0.1163
 1639TIP3   OH226331   1.286   2.347   3.467 -0.4695  0.2213 -0.0258
 1639TIP3    H126332   1.331   2.286   3.525 -0.3510  1.4022  1.1634
 1639TIP3    H226333   1.272   2.425   3.520 -0.0241  1.4886 -1.6757
 1640TIP3   OH226334   2.662   5.300   4.546 -0.2791  0.2327  0.3242
 1640TIP3    H126335   2.713   5.240   4.491 -1.8194 -0.2550 -0.6387
 1640TIP3    H226336   2.636   5.371   4.487  1.0121  1.6043  1.3086
 1641TIP3   OH226337   5.591   1.528  10.925 -0.4376  0.2028 -0.6474
 1641TIP3    H126338   5.575   1.444  10.967 -0.5743  0.5042 -0.0841
 1641TIP3    H226339   5.513   1.545  10.872  0.1613 -0.6570 -1.8583
 1642TIP3   OH226340   6.367   4.394  13.102  0.8324 -0.6262 -0.2219
 1642TIP3    H126341   6.395   4.481  13.130  2.4543 -1.0143 -0.5190
 1642TIP3    H226342   6.445   4.340  13.112 -0.3421 -2.2437  0.6968
 1643TIP3   OH226343   0.791   4.853   5.973  0.2489 -0.2959  0.1667
 1643TIP3    H126344   0.850   4.925   5.950 -0.3763  0.1537 -0.0579
 1643TIP3    H226345   0.752   4.880   6.057 -0.0630 -0.3251  0.0315
 1644TIP3   OH226346   0.250   1.582  16.574 -0.0738  0.1689 -0.0939
 1644TIP3    H126347   0.301   1.609  16.651  0.7458 -0.7466 -0.2979
 1644TIP3    H226348   0.312   1.534  16.520 -1.1331 -0.9033 -0.3911
 1645TIP3   OH226349   3.540   1.681   1.277 -0.3897 -0.5945 -0.6016
 1645TIP3    H126350   3.525   1.743   1.205 -1.3469  2.2872  1.8823
 1645TIP3    H226351   3.458   1.680   1.325  0.5015 -1.6685  0.9901
 1646TIP3   OH226352   1.154   2.186  13.719  0.5792 -0.1586 -0.1472
 1646TIP3    H126353   1.198   2.170  13.802 -0.4668 -1.7979  0.1463
 1646TIP3    H226354   1.176   2.110  13.665  0.2162  0.2707 -0.9204
 1647TIP3   OH226355   6.175   1.782  15.119 -0.4506 -0.4274  0.2696
 1647TIP3    H126356   6.224   1.862  15.099 -0.3179 -0.5104  0.2615
 1647TIP3    H226357   6.102   1.783  15.057 -0.6296 -0.1532  0.4779
 1648TIP3   OH226358   0.086   0.251  13.566  0.2090  1.0744 -0.1372
 1648TIP3    H126359   0.136   0.280  13.490 -1.6707  0.0191 -1.8657
 1648TIP3    H226360   0.150   0.251  13.638  2.2802  1.2812 -1.8752
 1649TIP3   OH226361   0.738   5.361   4.844  0.0188  0.6341  0.2193
 1649TIP3    H126362   0.814   5.333   4.793  0.6146  0.6153  1.1076
 1649TIP3    H226363   0.667   5.305   4.813  0.2176  1.0097 -1.0032
 1650TIP3   OH226364   2.094   0.188  16.527  0.7377  0.3315  0.1139
 1650TIP3    H126365   2.084   0.283  16.525  2.5108  0.5713  0.9359
 1650TIP3    H226366   2.122   0.166  16.438  0.5100  0.6017 -0.0259
 1651TIP3   OH226367   4.076   1.772   2.714  0.1605  0.3768  0.2755
 1651TIP3    H126368   4.108   1.713   2.782 -0.8175  0.9789  1.2964
 1651TIP3    H226369   4.038   1.846   2.762 -0.6893  0.7487 -0.9119
 1652TIP3   OH226370   0.048   2.221  11.203 -0.3229  0.0239 -0.2292
 1652TIP3    H126371   0.112   2.194  11.136  1.3639 -0.8860  1.6593
 1652TIP3    H226372   0.083   2.303  11.238 -1.2093  0.5012 -0.4097
 1653TIP3   OH226373   5.925   5.170   6.014  0.8692  0.6994  0.2713
 1653TIP3    H126374   5.888   5.119   5.941  1.0461 -0.1968  0.7928
 1653TIP3    H226375   5.849   5.212   6.054  0.8212  1.6101 -0.7160
 1654TIP3   OH226376   2.207   4.417  12.996  0.2050 -0.4183  0.1308
 1654TIP3    H126377   2.121   4.384  13.021 -0.8746  2.4444  0.6795
 1654TIP3    H226378   2.206   4.416  12.901  0.6379 -2.7778  0.1084
 1655TIP3   OH226379   4.082   2.532  17.369  0.3001  0.8313 -0.1219
 1655TIP3    H126380   4.043   2.562  17.451  1.4759 -0.4486  0.9505
 1655TIP3    H226381   4.160   2.587  17.357  0.3485  0.7535 -0.1706
 1656TIP3   OH226382   4.919   1.447  12.052 -0.2916 -0.0329 -0.0915
 1656TIP3    H126383   4.883   1.470  11.966 -1.5018  0.3180  0.4765
 1656TIP3    H226384   4.856   1.483  12.114  0.3371 -0.6551  0.9382
 1657TIP3   OH226385   3.112   0.607  11.413 -0.5415  0.3206 -0.0092
 1657TIP3    H126386   3.194   0.564  11.389 -0.8121 -0.8680  1.0890
 1657TIP3    H226387   3.053   0.588  11.340 -0.9645 -2.1401  0.8742
 1658TIP3   OH226388   6.048   6.541  15.007  0.0934 -0.7156 -0.2869
 1658TIP3    H126389   6.104   6.618  15.016  2.4186 -2.2507 -0.6401
 1658TIP3    H226390   6.067   6.508  14.919 -1.1936 -1.4756 -0.3088
 1659TIP3   OH226391   2.070   2.396   3.291 -0.1063 -0.7683 -0.2656
 1659TIP3    H126392   2.158   2.389   3.330  0.4053  0.4481 -1.1531
 1659TIP3    H226393   2.048   2.489   3.300 -1.1492 -0.9966 -0.4101
 1660TIP3   OH226394   1.293   5.904  16.950 -0.1636 -0.5521  0.0692
 1660TIP3    H126395   1.332   5.951  16.876 -0.7357  1.8007  1.1759
 1660TIP3    H226396   1.347   5.826  16.961  2.1056  0.8534 -0.6077
 1661TIP3   OH226397   3.037   1.821  11.389  0.5706 -0.2370  0.4401
 1661TIP3    H126398   3.035   1.846  11.481  1.1801  0.2180  0.3418
 1661TIP3    H226399   3.003   1.897  11.342  3.3439  0.9196  0.0666
 1662TIP3   OH226400   5.044   0.959  17.289  0.0075  0.1095  0.1183
 1662TIP3    H126401   5.102   1.032  17.310  0.5744  0.4753 -2.4000
 1662TIP3    H226402   5.026   0.917  17.374  2.8725  0.7541  1.1429
 1663TIP3   OH226403   1.805   6.722  16.839  0.7438  0.2122  0.7974
 1663TIP3    H126404   1.785   6.790  16.775 -0.6483  0.0608  1.0334
 1663TIP3    H226405   1.809   6.641  16.788  0.7509  0.2485  0.7419
 1664TIP3   OH226406   3.907   6.041   5.172  0.2217 -0.2488  0.5661
 1664TIP3    H126407   3.820   6.001   5.183  0.9756 -1.9886  0.6366
 1664TIP3    H226408   3.896   6.132   5.199 -1.1796 -0.8844  2.2984
 1665TIP3   OH226409   0.856   0.858   3.378  0.0898  0.5814 -0.3198
 1665TIP3    H126410   0.923   0.918   3.410  0.5738 -0.9547  1.7309
 1665TIP3    H226411   0.774   0.891   3.415  0.7053 -1.4706  3.2954
 1666TIP3   OH226412   4.517   2.781  15.544 -0.2464 -0.2962 -0.5622
 1666TIP3    H126413   4.478   2.716  15.601 -2.3662  0.0458 -1.5248
 1666TIP3    H226414   4.458   2.856  15.549  1.0238  0.7795 -1.0628
 1667TIP3   OH226415   3.570   3.396   5.593 -0.3923  0.6757  0.4301
 1667TIP3    H126416   3.642   3.449   5.560 -1.3336  2.7010  1.4484
 1667TIP3    H226417   3.498   3.412   5.531 -0.4881  0.0394  0.3715
 1668TIP3   OH226418   1.514   0.798   0.653 -0.1970  0.2160 -0.1305
 1668TIP3    H126419   1.607   0.819   0.660 -0.4366  1.4296 -0.4348
 1668TIP3    H226420   1.512   0.706   0.627  0.8909 -0.2154  1.1908
 1669TIP3   OH226421   3.388   3.627  13.518 -0.2140 -0.0911 -0.6589
 1669TIP3    H126422   3.324   3.637  13.448 -0.6739 -1.6047 -0.4925
 1669TIP3    H226423   3.361   3.547  13.564  0.6975  0.2786  0.5856
 1670TIP3   OH226424   2.745   1.700   0.202  0.0505  0.5716 -0.6378
 1670TIP3    H126425   2.729   1.624   0.259 -1.4052  0.8942 -0.5708
 1670TIP3    H226426   2.708   1.674   0.117  0.2336  0.9159 -0.8230
 1671TIP3   OH226427   6.558   1.769  16.545  0.0618  0.1734 -0.6768
 1671TIP3    H126428   6.653   1.760  16.534  0.0185 -1.4370 -0.0386
 1671TIP3    H226429   6.522   1.694  16.498 -0.6852 -1.0973  1.7745
 1672TIP3   OH226430   3.828   5.012   1.912 -0.4019  0.2643  0.1679
 1672TIP3    H126431   3.747   5.062   1.919 -0.9355  0.6419 -4.8120
 1672TIP3    H226432   3.890   5.071   1.870  0.4124 -1.7545 -1.7136
 1673TIP3   OH226433   6.332   6.669   3.114 -0.1309 -0.2471  0.1428
 1673TIP3    H126434   6.266   6.721   3.161 -0.0197 -0.0644  0.0976
 1673TIP3    H226435   6.341   6.589   3.166 -0.3205 -0.2326  0.2006
 1674TIP3   OH226436   0.708   1.402  14.818  0.3494  0.5671 -0.4868
 1674TIP3    H126437   0.734   1.310  14.821  2.6236  1.1608  0.5079
 1674TIP3    H226438   0.778   1.445  14.770  0.6055  2.1159  1.1557
 1675TIP3   OH226439   2.621   1.275   3.452  0.5156 -0.2290  0.3886
 1675TIP3    H126440   2.565   1.199   3.436 -1.5736  1.2074  0.4735
 1675TIP3    H226441   2.627   1.280   3.547  0.5655 -0.2304  0.3853
 1676TIP3   OH226442   2.264   6.664  15.077  0.2199 -0.5944 -0.4084
 1676TIP3    H126443   2.256   6.743  15.130 -0.0403 -0.2213 -0.9976
 1676TIP3    H226444   2.276   6.593  15.141 -0.0402 -0.1450  0.1447
 1677TIP3   OH226445   6.321   0.252   3.654 -0.1502 -0.2304  0.8033
 1677TIP3    H126446   6.389   0.254   3.586 -0.5993 -1.3951  0.3116
 1677TIP3    H226447   6.368   0.227   3.733 -0.0854 -1.6398  0.3426
 1678TIP3   OH226448   6.282   1.933   1.991 -0.3622  0.0595  0.1825
 1678TIP3    H126449   6.196   1.975   1.989 -0.8444 -0.8615  0.6208
 1678TIP3    H226450   6.270   1.854   1.938  0.0719 -0.3240  0.6497
 1679TIP3   OH226451   3.198   3.450  13.231  0.0626  0.5036 -0.0360
 1679TIP3    H126452   3.168   3.360  13.247 -0.9358  1.0818  1.5933
 1679TIP3    H226453   3.293   3.442  13.223 -0.2011 -1.1538 -3.5984
 1680TIP3   OH226454   3.728   5.691  16.558 -0.2523 -0.0579 -0.3787
 1680TIP3    H126455   3.807   5.701  16.610  0.8070 -1.1602 -1.7077
 1680TIP3    H226456   3.695   5.780  16.547  0.8712  0.4292  0.1032
 1681TIP3   OH226457   0.996   4.252   4.575 -0.0694 -0.6305 -0.0821
 1681TIP3    H126458   1.005   4.157   4.579  1.2048 -0.6652 -2.0852
 1681TIP3    H226459   1.027   4.275   4.487  3.7877  2.0289  1.7212
 1682TIP3   OH226460   4.602   5.982  11.868 -0.0894  0.7791  0.4534
 1682TIP3    H126461   4.692   5.986  11.835 -0.1009 -0.1443  0.2722
 1682TIP3    H226462   4.557   5.923  11.807 -0.7763  1.1129  0.6319
 1683TIP3   OH226463   6.574   4.424   2.428 -0.4003 -0.1811 -0.2828
 1683TIP3    H126464   6.658   4.409   2.471 -0.7187 -0.6049  0.2040
 1683TIP3    H226465   6.595   4.482   2.354 -0.1834  2.6362  1.8271
 1684TIP3   OH226466   0.085   1.842   3.302  0.1824  0.1128 -0.2628
 1684TIP3    H126467   0.159   1.902   3.310  0.4046 -0.0598 -0.9832
 1684TIP3    H226468   0.075   1.829   3.208 -1.7679  1.3816 -0.2900
 1685TIP3   OH226469   3.506   2.880   6.599  0.3817  0.1097  0.0713
 1685TIP3    H126470   3.539   2.805   6.649 -0.3178 -0.4163 -0.2424
 1685TIP3    H226471   3.411   2.877   6.609  0.3669  1.1498  0.3146
 1686TIP3   OH226472   3.898   2.276   1.752 -0.0725  0.0013  0.2114
 1686TIP3    H126473   3.898   2.258   1.846 -1.9027 -1.1973  0.0368
 1686TIP3    H226474   3.884   2.370   1.745  0.7184  0.2054  1.1291
 1687TIP3   OH226475   2.945   0.387  15.790  0.1735 -0.6408  0.4811
 1687TIP3    H126476   2.970   0.479  15.784  0.9528 -0.8118  1.0219
 1687TIP3    H226477   3.026   0.341  15.813  0.0341 -1.5969 -0.7785
 1688TIP3   OH226478   6.378   5.887   4.408 -0.0289  0.1445 -0.1345
 1688TIP3    H126479   6.450   5.934   4.449  0.1160  0.2654 -0.5293
 1688TIP3    H226480   6.417   5.841   4.334 -0.1469 -0.6856  0.3016
 1689TIP3   OH226481   5.083   3.371   1.808  0.1697 -0.1712  0.0379
 1689TIP3    H126482   5.073   3.355   1.902  0.3715  0.2059  0.1279
 1689TIP3    H226483   5.039   3.297   1.766 -2.7656  1.1980  0.3984
 1690TIP3   OH226484   2.004   0.571  11.866  0.3027  0.7372 -0.2221
 1690TIP3    H126485   2.015   0.492  11.918  1.2085  1.3341  0.5133
 1690TIP3    H226486   1.925   0.612  11.902  0.6563  0.9052  0.3728
 1691TIP3   OH226487   5.815   0.786   2.615 -0.1319 -0.5352 -0.1153
 1691TIP3    H126488   5.902   0.749   2.629  0.8193  1.6626  0.1861
 1691TIP3    H226489   5.756   0.711   2.620  1.6303 -1.9388  0.7477
 1692TIP3   OH226490   5.851   1.662  14.595 -0.0416 -0.3143  0.1175
 1692TIP3    H126491   5.872   1.754  14.614 -0.3952  0.3592 -2.3215
 1692TIP3    H226492   5.920   1.634  14.534 -3.0585  0.4060 -4.1443
 1693TIP3   OH226493   5.511   2.842   5.297  0.4821  0.4700  0.5641
 1693TIP3    H126494   5.580   2.788   5.334  0.4093  0.2961  0.4459
 1693TIP3    H226495   5.557   2.913   5.253  0.5745  0.5766  0.8305
 1694TIP3   OH226496   1.991   0.966   2.316 -0.8499  0.5737 -0.1875
 1694TIP3    H126497   1.992   1.060   2.298 -1.7572  1.0553  1.9142
 1694TIP3    H226498   1.910   0.953   2.365 -0.2581 -1.1468  0.3940
 1695TIP3   OH226499   6.218   1.019   0.765 -0.4957 -0.6711  1.0003
 1695TIP3    H126500   6.218   1.114   0.761 -1.2903 -0.6935 -0.4395
 1695TIP3    H226501   6.226   0.998   0.858  1.3964  0.7661  1.2084
 1696TIP3   OH226502   6.211   2.262  16.993 -0.5395  0.1384 -0.3002
 1696TIP3    H126503   6.292   2.227  16.956  0.9094  1.6739  1.2134
 1696TIP3    H226504   6.171   2.312  16.922 -0.5025 -1.1578 -1.2511
 1697TIP3   OH226505   3.754   1.792   1.425 -0.3945  0.0346 -0.7716
 1697TIP3    H126506   3.677   1.766   1.374 -0.6005  0.5102 -0.7042
 1697TIP3    H226507   3.749   1.887   1.430 -0.5195 -0.0243  0.3585
 1698TIP3   OH226508   4.394   0.222   0.610 -0.7502  0.2681  0.0863
 1698TIP3    H126509   4.407   0.199   0.702 -1.5343 -0.2513  0.0754
 1698TIP3    H226510   4.454   0.165   0.563  0.7329  1.5478  0.3456
 1699TIP3   OH226511   5.159   3.285   0.123  0.2909  0.2794  0.1037
 1699TIP3    H126512   5.201   3.212   0.077  0.4273  0.2336  0.2934
 1699TIP3    H226513   5.224   3.311   0.189 -1.1594 -1.8717  2.5809
 1700TIP3   OH226514   2.341   5.685  14.364  0.0440 -0.3075  0.3384
 1700TIP3    H126515   2.310   5.613  14.419  2.2689  0.0897  2.2697
 1700TIP3    H226516   2.292   5.761  14.394  0.2893 -0.3547  0.8721
 1701TIP3   OH226517   0.848   2.520   5.415 -0.7634  0.3611  0.2955
 1701TIP3    H126518   0.765   2.513   5.462  0.0580 -2.1888  1.5685
 1701TIP3    H226519   0.915   2.514   5.483  0.4558 -1.9002 -0.9815
 1702TIP3   OH226520   3.525   3.335  11.695 -0.3825  0.0600 -0.3244
 1702TIP3    H126521   3.598   3.349  11.755  1.8557 -0.3685 -2.7317
 1702TIP3    H226522   3.507   3.241  11.701 -1.6114  0.3412  1.0979
 1703TIP3   OH226523   2.766   0.506  14.893 -0.1772 -0.3031  0.1187
 1703TIP3    H126524   2.725   0.505  14.807  1.2601 -0.0969 -0.5914
 1703TIP3    H226525   2.721   0.575  14.941 -1.9626 -1.3642  0.0482
 1704TIP3   OH226526   5.274   2.920  11.950 -0.4159 -0.5782 -0.5736
 1704TIP3    H126527   5.267   2.885  12.039  2.0909 -0.9518 -0.4559
 1704TIP3    H226528   5.220   2.999  11.950  0.8510  0.3803  1.8137
 1705TIP3   OH226529   5.965   3.056  15.394 -0.0764 -0.1161 -0.2048
 1705TIP3    H126530   6.001   3.022  15.476  0.4387  0.0922 -0.3399
 1705TIP3    H226531   6.040   3.096  15.350 -0.4167  0.0605 -0.6286
 1706TIP3   OH226532   6.636   4.320  14.038 -0.5927 -0.4324 -0.4691
 1706TIP3    H126533   6.680   4.305  14.121 -1.0118  1.6100  0.1810
 1706TIP3    H226534   6.556   4.268  14.044  0.1235 -1.5294 -0.2659
 1707TIP3   OH226535   5.512   4.677   4.170  0.0369 -0.3079  0.0158
 1707TIP3    H126536   5.572   4.715   4.105 -0.3210 -0.9655 -0.7213
 1707TIP3    H226537   5.488   4.592   4.133 -1.4566 -0.0031  0.2217
 1708TIP3   OH226538   3.800   2.223  10.676 -0.0756 -0.0510  0.2014
 1708TIP3    H126539   3.887   2.189  10.696 -0.4072 -0.1243  1.5820
 1708TIP3    H226540   3.786   2.199  10.584  1.3836  0.0347 -0.0673
 1709TIP3   OH226541   0.379   2.632  16.605 -0.2635  0.1726  0.2206
 1709TIP3    H126542   0.425   2.655  16.685 -0.7168  0.4455  0.4019
 1709TIP3    H226543   0.408   2.543  16.586  2.0800  1.0732 -0.8773
 1710TIP3   OH226544   0.962   0.511  16.789 -0.5424  0.6612  0.6031
 1710TIP3    H126545   0.899   0.577  16.762  1.4749  2.5864  0.2902
 1710TIP3    H226546   0.971   0.522  16.883  2.2605  3.3526  0.1787
 1711TIP3   OH226547   0.296   4.229  16.368 -0.4300 -0.2682 -0.2726
 1711TIP3    H126548   0.290   4.254  16.276 -2.1871  2.2299  0.4055
 1711TIP3    H226549   0.206   4.206  16.393  0.0687 -1.1760  0.7739
 1712TIP3   OH226550   3.192   6.712  16.501  0.1058  0.6011  0.2536
 1712TIP3    H126551   3.223   6.679  16.586  1.9925 -1.0275 -0.9637
 1712TIP3    H226552   3.143   6.639  16.464 -1.8871  1.7810  0.4485
 1713TIP3   OH226553   4.458   2.343  16.366  0.3282  0.0558  0.1488
 1713TIP3    H126554   4.447   2.372  16.276  0.6588  2.0064  0.6783
 1713TIP3    H226555   4.446   2.423  16.418  1.2756 -0.7867  1.7391
 1714TIP3   OH226556   0.107   3.278  16.225  0.6552 -0.2202 -0.4362
 1714TIP3    H126557   0.080   3.344  16.161  1.0055  0.4256  0.0636
 1714TIP3    H226558   0.151   3.329  16.294 -1.2650 -0.6695  1.2143
 1715TIP3   OH226559   0.121   0.253  16.234 -0.0313 -0.0185 -0.5859
 1715TIP3    H126560   0.167   0.235  16.153  0.6503 -0.7168 -0.0541
 1715TIP3    H226561   0.047   0.192  16.234  1.1587 -1.5347  0.2826
 1716TIP3   OH226562   5.125   1.315   1.796 -0.0234  0.3098 -0.2172
 1716TIP3    H126563   5.182   1.241   1.778 -1.6477 -0.5550 -2.3087
 1716TIP3    H226564   5.111   1.357   1.711 -2.1199  0.7202  0.2525
 1717TIP3   OH226565   2.813   4.710   0.873  0.7346  0.5543  0.1865
 1717TIP3    H126566   2.838   4.670   0.789 -1.7322 -0.2085 -0.2763
 1717TIP3    H226567   2.885   4.688   0.932  1.3865 -1.0495 -1.1188
 1718TIP3   OH226568   6.251   0.446   4.465  0.2089  0.2644 -0.2675
 1718TIP3    H126569   6.268   0.538   4.447 -1.4256  0.6174 -0.1628
 1718TIP3    H226570   6.200   0.446   4.545 -1.5561 -0.5656 -1.3257
 1719TIP3   OH226571   0.778   2.738  15.421  0.4799 -0.5050  0.0542
 1719TIP3    H126572   0.869   2.765  15.434  0.4522 -0.5506  0.3501
 1719TIP3    H226573   0.770   2.656  15.470  0.2632 -0.4700  0.0785
 1720TIP3   OH226574   0.767   3.341  15.752  0.1764  0.1935 -0.1067
 1720TIP3    H126575   0.836   3.404  15.735 -0.4985  1.6533  2.1010
 1720TIP3    H226576   0.793   3.299  15.835 -0.7293 -0.4843 -0.1498
 1721TIP3   OH226577   1.073   5.583  16.691 -0.1985 -0.3255  0.2742
 1721TIP3    H126578   1.148   5.539  16.652  0.3092  0.6316  0.1434
 1721TIP3    H226579   1.095   5.592  16.784  0.6137  1.4018 -0.0352
 1722TIP3   OH226580   0.541   5.489   5.712  0.6030 -0.0202 -0.5892
 1722TIP3    H126581   0.455   5.503   5.751  0.9819  1.0801 -0.1236
 1722TIP3    H226582   0.569   5.404   5.748  0.0043 -0.0685 -0.2108
 1723TIP3   OH226583   3.776   2.088   6.288 -0.1852 -0.5421 -0.2116
 1723TIP3    H126584   3.689   2.072   6.324 -0.4673  1.6217  0.1983
 1723TIP3    H226585   3.836   2.067   6.359 -0.5513  0.4880  0.4196
 1724TIP3   OH226586   0.473   6.445  15.206 -0.0391  0.9741  0.2535
 1724TIP3    H126587   0.412   6.422  15.276  1.5707  0.8658  1.6873
 1724TIP3    H226588   0.515   6.363  15.183 -0.1510  1.1128 -0.4639
 1725TIP3   OH226589   6.562   2.065   5.943 -0.3017  0.4905 -0.0493
 1725TIP3    H126590   6.600   2.111   5.869 -0.7210 -0.1201 -0.6516
 1725TIP3    H226591   6.621   1.991   5.958 -1.1460 -0.3759 -0.8914
 1726TIP3   OH226592   3.642   2.570   2.368 -0.1162  0.1957 -0.1091
 1726TIP3    H126593   3.705   2.599   2.435 -1.1235  0.8249  0.5942
 1726TIP3    H226594   3.608   2.652   2.331  1.3248 -0.1199 -2.3068
 1727TIP3   OH226595   2.096   3.038  16.740 -0.0694  0.5753  0.1864
 1727TIP3    H126596   2.108   2.947  16.767 -2.6857 -0.0292 -0.4548
 1727TIP3    H226597   2.084   3.034  16.645  0.0601  1.6421  0.1063
 1728TIP3   OH226598   2.227   4.650  11.030  0.0795  0.0629 -0.5630
 1728TIP3    H126599   2.320   4.670  11.034  0.3632 -1.3656  0.8634
 1728TIP3    H226600   2.199   4.682  10.944  1.2767  2.8374 -0.0368
 1729TIP3   OH226601   4.507   0.447   3.710  0.3489  0.3619  0.9427
 1729TIP3    H126602   4.563   0.372   3.730  0.9976  0.4458 -0.4284
 1729TIP3    H226603   4.440   0.412   3.651  0.8945  0.9291 -0.0318
 1730TIP3   OH226604   4.852   5.477  15.138 -0.3403 -1.0063 -0.3020
 1730TIP3    H126605   4.882   5.454  15.050 -1.8751 -3.1253 -0.3473
 1730TIP3    H226606   4.773   5.529  15.124  0.4489  0.3187 -0.1245
 1731TIP3   OH226607   4.220   0.850   5.048 -0.1886 -0.7909 -0.1662
 1731TIP3    H126608   4.165   0.792   4.995 -1.2462 -0.5358  0.6292
 1731TIP3    H226609   4.195   0.832   5.138 -0.6764  1.0109  0.0939
 1732TIP3   OH226610   1.749   0.422  14.834  0.4601 -0.4356 -0.5367
 1732TIP3    H126611   1.816   0.377  14.885 -2.0398 -1.5659  2.0546
 1732TIP3    H226612   1.720   0.357  14.769  0.5403 -0.6547 -0.3560
 1733TIP3   OH226613   3.063   3.280  16.581  0.1352 -0.4872 -0.7562
 1733TIP3    H126614   3.080   3.208  16.641  1.2878  0.5830  0.2722
 1733TIP3    H226615   3.140   3.281  16.523  0.5073  0.3790 -0.2632
 1734TIP3   OH226616   6.101   1.851  15.567  0.0402  0.5883 -0.5567
 1734TIP3    H126617   6.135   1.775  15.520 -0.1673 -1.0675  1.7745
 1734TIP3    H226618   6.172   1.915  15.566  2.0753 -1.4491  1.2638
 1735TIP3   OH226619   3.260   4.914   3.408 -0.2570 -0.3019  0.2453
 1735TIP3    H126620   3.351   4.928   3.384 -0.1166  0.0303  0.9479
 1735TIP3    H226621   3.264   4.873   3.495 -0.7833  2.6982  1.8186
 1736TIP3   OH226622   3.264   4.429   0.638 -0.4421  0.4012  0.4317
 1736TIP3    H126623   3.342   4.400   0.684 -0.5279 -1.7261 -0.6375
 1736TIP3    H226624   3.200   4.359   0.652 -1.2828  0.8630 -0.8576
 1737TIP3   OH226625   1.144   4.161   5.551 -0.3390 -0.3204 -0.1080
 1737TIP3    H126626   1.137   4.183   5.644 -0.3470  0.8746 -0.3729
 1737TIP3    H226627   1.208   4.090   5.548  1.9003  1.5586  0.5637
 1738TIP3   OH226628   1.258   2.684   4.223  0.0145  0.5990  0.1894
 1738TIP3    H126629   1.296   2.651   4.305 -1.1752 -1.2400  0.0557
 1738TIP3    H226630   1.323   2.747   4.191  1.6650 -0.4232  1.3177
 1739TIP3   OH226631   3.472   2.959  11.967 -0.0534 -0.0870 -0.2185
 1739TIP3    H126632   3.543   2.951  12.031 -1.6671  0.2970  1.7322
 1739TIP3    H226633   3.413   2.886  11.988 -0.5500 -0.0426 -1.3844
 1740TIP3   OH226634   1.647   4.953   1.357 -0.1339  0.4658  0.0072
 1740TIP3    H126635   1.733   4.911   1.365 -0.2006  0.4383  0.6544
 1740TIP3    H226636   1.662   5.044   1.383 -0.4277  0.3045  0.7555
 1741TIP3   OH226637   3.661   6.321   5.078 -0.0329 -0.2533  0.5110
 1741TIP3    H126638   3.608   6.259   5.127 -0.9599  0.5388  0.5478
 1741TIP3    H226639   3.746   6.321   5.124  1.3900 -4.2039 -1.6502
 1742TIP3   OH226640   5.211   3.147   3.618 -0.2730  0.6728 -0.1389
 1742TIP3    H126641   5.120   3.127   3.642  0.1608  0.0182  1.0772
 1742TIP3    H226642   5.242   3.068   3.574  0.0349  0.4645  0.4475
 1743TIP3   OH226643   6.328   4.281   3.086  0.0754  0.0640  0.5835
 1743TIP3    H126644   6.240   4.270   3.123 -0.4627 -0.1667 -0.7192
 1743TIP3    H226645   6.319   4.355   3.025  0.5085 -0.6607 -0.3750
 1744TIP3   OH226646   2.579   2.127  14.890  0.2785  0.4362 -0.2023
 1744TIP3    H126647   2.628   2.044  14.893  0.4455  0.5563  0.4898
 1744TIP3    H226648   2.624   2.178  14.823  0.5871  0.2204 -0.1677
 1745TIP3   OH226649   2.954   4.452  13.156  0.3015 -0.3596 -0.4666
 1745TIP3    H126650   2.991   4.367  13.180  0.6942  0.0330  0.3760
 1745TIP3    H226651   2.994   4.514  13.217 -0.7736  0.2783 -0.3754
 1746TIP3   OH226652   4.732   2.129  12.608 -0.0120 -0.0958 -0.4737
 1746TIP3    H126653   4.763   2.038  12.606 -1.7600 -0.7228 -1.3456
 1746TIP3    H226654   4.809   2.180  12.632  0.9876 -1.8171  0.1556
 1747TIP3   OH226655   6.631   3.557  13.914  0.8375 -0.1379 -0.6423
 1747TIP3    H126656   6.713   3.606  13.906  0.2640  0.6506 -1.9612
 1747TIP3    H226657   6.606   3.538  13.824 -0.4871 -0.2669 -0.2609
 1748TIP3   OH226658   1.881   0.927  16.730  0.1397 -0.5354  0.0700
 1748TIP3    H126659   1.903   0.838  16.758 -0.8720 -0.5974  0.7258
 1748TIP3    H226660   1.795   0.944  16.770  1.4246  1.6912  2.1489
 1749TIP3   OH226661   6.653   6.317   4.673  0.0545  0.5014  0.1681
 1749TIP3    H126662   6.709   6.386   4.709 -0.0004  0.2362  0.7678
 1749TIP3    H226663   6.699   6.236   4.693 -0.4924  0.2899  0.5588
 1750TIP3   OH226664   0.157   5.149  12.366 -0.0554 -1.1021  0.0516
 1750TIP3    H126665   0.233   5.093  12.384  0.8253  0.0201  0.0056
 1750TIP3    H226666   0.181   5.195  12.285 -1.5940 -2.0645 -1.0016
 1751TIP3   OH226667   3.951   3.733  14.363 -0.1367 -0.7191  0.0090
 1751TIP3    H126668   3.891   3.670  14.322 -0.7034 -1.1051  1.3716
 1751TIP3    H226669   4.038   3.699  14.344 -0.4424 -2.4078  1.3998
 1752TIP3   OH226670   6.708   2.876  12.050  0.4147 -0.1097  0.4393
 1752TIP3    H126671   6.641   2.875  11.981 -0.8467  0.5986  1.6112
 1752TIP3    H226672   6.700   2.791  12.093 -0.2902  0.2779  1.0858
 1753TIP3   OH226673   3.906   4.516   0.918 -0.4865 -0.1627  0.0714
 1753TIP3    H126674   3.826   4.523   0.970 -0.4366 -0.5315  0.1989
 1753TIP3    H226675   3.958   4.449   0.963 -0.1538 -0.0026 -0.0728
 1754TIP3   OH226676   0.500   0.817   5.902 -0.0039 -0.2925 -0.0334
 1754TIP3    H126677   0.465   0.736   5.864  0.4032 -0.1247 -0.7833
 1754TIP3    H226678   0.562   0.849   5.836 -2.0154  2.0090 -0.9842
 1755TIP3   OH226679   4.827   4.675   1.566 -0.2617  0.2183 -0.3691
 1755TIP3    H126680   4.912   4.694   1.527 -1.1375  2.2941 -1.3801
 1755TIP3    H226681   4.833   4.708   1.656 -0.1574  0.8597 -0.6078
 1756TIP3   OH226682   3.145   5.053   0.777 -0.2232 -0.5214  0.2169
 1756TIP3    H126683   3.064   5.011   0.745  0.4647 -1.2313 -0.6473
 1756TIP3    H226684   3.142   5.042   0.872 -1.0633 -0.6784  0.1805
 1757TIP3   OH226685   5.209   0.760   0.221  0.2048 -0.1441 -0.2848
 1757TIP3    H126686   5.252   0.727   0.141 -0.7691  1.0596 -1.3515
 1757TIP3    H226687   5.260   0.837   0.245  0.6449 -0.6463  0.4266
 1758TIP3   OH226688   6.050   0.287  11.831 -0.3701 -0.5418  0.1476
 1758TIP3    H126689   5.973   0.230  11.829 -1.9506  1.4901 -1.3626
 1758TIP3    H226690   6.080   0.284  11.922 -1.8570 -1.8588  0.6423
 1759TIP3   OH226691   6.502   0.721  15.271 -0.4356  0.2044  0.3923
 1759TIP3    H126692   6.500   0.686  15.182 -0.2073  0.2456  0.3721
 1759TIP3    H226693   6.439   0.793  15.270  1.3549  1.8282 -0.4054
 1760TIP3   OH226694   3.850   4.119   0.494 -0.7769 -0.0681 -0.1372
 1760TIP3    H126695   3.902   4.190   0.457  0.3777 -1.7161 -1.8688
 1760TIP3    H226696   3.760   4.141   0.471 -0.4875  0.9897 -0.3220
 1761TIP3   OH226697   3.925   6.203  15.325  0.1717 -0.1823 -0.6251
 1761TIP3    H126698   4.015   6.187  15.352  0.1276 -0.8011 -0.8154
 1761TIP3    H226699   3.932   6.266  15.253  0.4832 -0.4881 -0.8662
 1762TIP3   OH226700   2.931   6.705  10.821 -0.0152 -0.4370 -0.4254
 1762TIP3    H126701   2.901   6.792  10.849 -0.6416 -0.9357  0.4898
 1762TIP3    H226702   3.020   6.699  10.855 -0.2663 -0.4735  0.2417
 1763TIP3   OH226703   0.151   0.309  12.341  0.0596 -0.4703 -0.6455
 1763TIP3    H126704   0.069   0.265  12.361 -0.2754 -0.2925 -1.5649
 1763TIP3    H226705   0.161   0.374  12.411 -0.0813 -1.1331  0.0054
 1764TIP3   OH226706   4.204   6.093   2.363  0.0449  0.8575  0.1626
 1764TIP3    H126707   4.222   6.119   2.453  0.6313  1.1967 -0.0415
 1764TIP3    H226708   4.246   6.008   2.353 -1.1870  0.1794  0.5974
 1765TIP3   OH226709   3.185   3.377   3.808 -0.0710 -0.5594 -0.2538
 1765TIP3    H126710   3.223   3.309   3.753 -1.7973 -2.0587  0.2840
 1765TIP3    H226711   3.100   3.396   3.767 -0.6997 -0.5743  0.9866
 1766TIP3   OH226712   5.171   3.907   4.196 -0.2055 -0.4502  0.4517
 1766TIP3    H126713   5.106   3.946   4.139 -1.2706 -2.2393  0.3490
 1766TIP3    H226714   5.141   3.928   4.285  1.0257  1.6643  0.4275
 1767TIP3   OH226715   3.606   4.822   4.152  0.2927 -0.0825  0.0592
 1767TIP3    H126716   3.613   4.798   4.060 -0.9521 -0.8770  0.1389
 1767TIP3    H226717   3.561   4.747   4.193  1.7317 -0.2058  1.5189
 1768TIP3   OH226718   1.503   1.216   0.044  0.0097 -0.2274  0.5405
 1768TIP3    H126719   1.455   1.200   0.126 -0.2328 -0.5043  0.3488
 1768TIP3    H226720   1.454   1.287   0.001 -0.6714 -1.0047  0.0018
 1769TIP3   OH226721   4.906   4.547  13.083  0.0945  0.2443 -0.0055
 1769TIP3    H126722   4.849   4.591  13.020 -2.1792  0.2277  1.9128
 1769TIP3    H226723   4.869   4.459  13.093 -0.0078  0.4408  1.7613
 1770TIP3   OH226724   3.009   2.413   0.549 -0.1267 -0.1874  0.3486
 1770TIP3    H126725   2.986   2.337   0.495  1.7605 -0.8949  0.4252
 1770TIP3    H226726   3.071   2.462   0.495 -2.6415  2.3560 -0.4198
 1771TIP3   OH226727   1.048   6.510   2.446 -0.6720 -0.0064 -0.0334
 1771TIP3    H126728   1.085   6.547   2.366 -1.8131  1.7002  0.1709
 1771TIP3    H226729   1.124   6.488   2.500  0.1322 -1.5782 -1.7024
 1772TIP3   OH226730   4.866   6.068  14.898 -0.2810  0.1276  0.1057
 1772TIP3    H126731   4.906   6.133  14.840 -0.8513 -0.1724 -0.6402
 1772TIP3    H226732   4.772   6.084  14.890 -0.4429 -0.9637 -0.3063
 1773TIP3   OH226733   0.802   3.435  16.898 -0.4994 -0.4281 -0.4309
 1773TIP3    H126734   0.797   3.363  16.834  0.4670  0.1169 -1.1564
 1773TIP3    H226735   0.891   3.427  16.935 -0.8117 -0.3209  0.3603
 1774TIP3   OH226736   2.969   1.303  15.884  0.3349  0.2055 -0.2396
 1774TIP3    H126737   2.893   1.352  15.915  0.6765  1.6051 -1.4598
 1774TIP3    H226738   3.042   1.364  15.895  0.8456 -0.1547 -1.4486
 1775TIP3   OH226739   2.024   0.746  16.017  0.5054 -0.3625 -0.7769
 1775TIP3    H126740   2.041   0.669  16.071 -0.4063 -0.0245  0.0100
 1775TIP3    H226741   2.094   0.745  15.951  1.5284 -0.8883  0.2831
 1776TIP3   OH226742   5.890   4.967  17.440  0.2826 -0.0328 -0.3166
 1776TIP3    H126743   5.884   4.996  17.349 -1.0340 -0.2638 -0.3332
 1776TIP3    H226744   5.801   4.937  17.461  0.8505 -1.0995  0.6707
 1777TIP3   OH226745   4.596   5.040  12.161 -0.1257 -0.6946 -0.5808
 1777TIP3    H126746   4.689   5.054  12.180 -0.0137 -0.7625 -1.0844
 1777TIP3    H226747   4.584   4.945  12.171 -0.1765 -0.6671 -0.3699
 1778TIP3   OH226748   2.739   1.688  12.579  0.0020 -0.5025 -0.2581
 1778TIP3    H126749   2.656   1.647  12.603 -1.2035  1.5435 -0.7007
 1778TIP3    H226750   2.770   1.638  12.504 -0.4327 -1.7362  0.3537
 1779TIP3   OH226751   3.165   2.647   1.389 -0.0189 -0.1720 -0.1457
 1779TIP3    H126752   3.243   2.690   1.353 -0.1274 -0.5522 -0.8560
 1779TIP3    H226753   3.170   2.558   1.355 -0.4236 -0.3816  0.3414
 1780TIP3   OH226754   5.889   6.258   3.198 -0.1702  0.5394  0.0498
 1780TIP3    H126755   5.957   6.232   3.259 -0.9119  0.7791  1.0119
 1780TIP3    H226756   5.823   6.301   3.253  0.2464  3.0012 -1.2118
 1781TIP3   OH226757   2.178   2.519  15.677  0.2930 -0.2777 -0.2302
 1781TIP3    H126758   2.108   2.521  15.612  1.0650  0.0132 -1.0858
 1781TIP3    H226759   2.193   2.611  15.699 -0.1109 -0.3904  0.5278
 1782TIP3   OH226760   2.377   2.476   1.493  0.1483  0.1685  0.3994
 1782TIP3    H126761   2.293   2.522   1.488  0.1831  0.2064  0.1541
 1782TIP3    H226762   2.374   2.429   1.576 -0.6469 -0.8519 -0.1819
 1783TIP3   OH226763   1.531   5.196  16.564 -0.3654 -0.1109 -0.6330
 1783TIP3    H126764   1.442   5.176  16.595 -0.3328 -0.4061 -0.7310
 1783TIP3    H226765   1.588   5.143  16.620 -0.2985 -0.5540 -1.1122
 1784TIP3   OH226766   6.658   6.063   1.271  0.2525 -0.7064  0.0305
 1784TIP3    H126767   6.655   6.115   1.191 -0.0579  0.1993  0.6077
 1784TIP3    H226768   6.577   6.086   1.318  0.3089 -1.4012  0.4909
 1785TIP3   OH226769   6.303   3.862   4.814  0.1554  0.1789 -0.0558
 1785TIP3    H126770   6.356   3.930   4.855  1.1829 -0.1887 -0.7322
 1785TIP3    H226771   6.247   3.909   4.753 -0.8402  0.6479  1.1903
 1786TIP3   OH226772   2.008   4.654   0.102 -0.0815  0.3592  0.0831
 1786TIP3    H126773   2.012   4.749   0.094 -1.6667  0.6258  1.8281
 1786TIP3    H226774   2.061   4.622   0.029  0.8366  2.5653 -0.2944
 1787TIP3   OH226775   2.582   3.205   0.547  0.1454 -0.5844  0.1454
 1787TIP3    H126776   2.671   3.230   0.570 -0.0935  1.6530 -1.0454
 1787TIP3    H226777   2.528   3.280   0.575 -1.2722 -1.5947  0.2377
 1788TIP3   OH226778   5.626   5.711   3.762  0.0131 -0.3305  0.3460
 1788TIP3    H126779   5.666   5.797   3.778 -0.6119 -0.2317  1.5077
 1788TIP3    H226780   5.686   5.667   3.702  2.4585 -0.5989  2.8040
 1789TIP3   OH226781   6.289   2.771   2.874  0.0564 -0.2536  0.5995
 1789TIP3    H126782   6.332   2.798   2.956 -0.7535  0.0667  0.9280
 1789TIP3    H226783   6.354   2.717   2.830  0.6173 -0.1814  1.3167
 1790TIP3   OH226784   6.400   5.061  15.851 -0.0298 -0.4212 -0.6450
 1790TIP3    H126785   6.325   5.101  15.807 -0.3288 -0.6595 -0.3616
 1790TIP3    H226786   6.448   5.135  15.888 -0.1157 -0.2641 -0.8422
 1791TIP3   OH226787   5.706   0.201   6.312  0.0440  0.0002 -0.1264
 1791TIP3    H126788   5.766   0.241   6.375 -0.4919  0.6092  0.0205
 1791TIP3    H226789   5.669   0.276   6.264  0.1948 -0.4320 -0.9426
 1792TIP3   OH226790   3.999   1.856   4.214  0.1829 -0.1230  0.4241
 1792TIP3    H126791   4.073   1.794   4.219  0.5076  0.2641  0.5032
 1792TIP3    H226792   3.942   1.832   4.287  0.9439  0.4693  1.2436
 1793TIP3   OH226793   4.943   3.047  16.349 -0.5697  0.5287  0.0691
 1793TIP3    H126794   5.022   3.003  16.379  0.3097  1.0084 -1.4294
 1793TIP3    H226795   4.963   3.075  16.260 -2.2039  1.2332 -0.1245
 1794TIP3   OH226796   2.334   1.358  11.698  0.1775  0.8671  0.5204
 1794TIP3    H126797   2.269   1.349  11.629 -0.5344  0.1848  1.2688
 1794TIP3    H226798   2.409   1.401  11.655 -0.5452  1.1563 -0.4738
 1795TIP3   OH226799   2.426   4.500  14.581 -0.4164  0.0501 -0.1050
 1795TIP3    H126800   2.424   4.405  14.591 -0.4013  0.1807  1.4572
 1795TIP3    H226801   2.403   4.515  14.489 -2.1770 -1.3881  0.0353
 1796TIP3   OH226802   0.388   2.102  13.046 -0.3848 -0.0589  0.1927
 1796TIP3    H126803   0.422   2.171  12.989 -0.8730  0.1087  0.1007
 1796TIP3    H226804   0.452   2.031  13.038  0.1527  0.3968  0.3303
 1797TIP3   OH226805   5.648   2.425  13.563  0.2470 -0.2578 -0.0752
 1797TIP3    H126806   5.721   2.373  13.598 -0.2271 -1.6764 -1.0966
 1797TIP3    H226807   5.690   2.500  13.521  1.1891 -1.2803 -1.0329
 1798TIP3   OH226808   6.434   6.067  15.875 -0.0179 -0.0349  0.1247
 1798TIP3    H126809   6.436   6.117  15.793 -0.2234 -0.5313 -0.1898
 1798TIP3    H226810   6.427   5.975  15.847 -1.3134 -0.1356  0.7065
 1799TIP3   OH226811   4.360   4.040   0.231  0.4220  0.2213  0.2213
 1799TIP3    H126812   4.307   4.082   0.299  0.9468 -0.3434  0.9954
 1799TIP3    H226813   4.317   4.065   0.149  1.1350  2.8481  0.5587
 1800TIP3   OH226814   5.535   0.152   5.561 -0.4787  0.0911 -0.3389
 1800TIP3    H126815   5.601   0.209   5.602 -0.5591  1.5938 -2.1828
 1800TIP3    H226816   5.453   0.177   5.603 -0.1044 -0.9622  1.1222
 1801TIP3   OH226817   5.334   0.957  17.148  0.7447  0.0149  0.7277
 1801TIP3    H126818   5.262   0.991  17.095  1.3520  0.3794  0.1242
 1801TIP3    H226819   5.305   0.970  17.238  1.2137  2.8216  0.5548
 1802TIP3   OH226820   6.581   4.330  11.463 -0.4163 -0.2101  0.2960
 1802TIP3    H126821   6.508   4.272  11.484 -0.1324  0.3287  3.1539
 1802TIP3    H226822   6.555   4.415  11.499  1.0422  0.3309  0.1378
 1803TIP3   OH226823   5.081   5.696   3.815  0.0485 -0.1685 -0.1042
 1803TIP3    H126824   5.020   5.634   3.776  0.9899 -1.0147 -0.2902
 1803TIP3    H226825   5.030   5.776   3.827 -0.4666 -0.0594 -2.4742
 1804TIP3   OH226826   3.383   4.170  11.199  0.1840  0.2130 -0.1421
 1804TIP3    H126827   3.337   4.253  11.213  0.3004 -0.0062  1.8843
 1804TIP3    H226828   3.337   4.130  11.125 -0.7995  1.4301 -0.2402
 1805TIP3   OH226829   4.522   2.931  12.192 -0.4328 -0.0009 -0.8703
 1805TIP3    H126830   4.609   2.956  12.222 -0.7508 -0.9452  1.0144
 1805TIP3    H226831   4.530   2.838  12.169 -1.4269 -0.8163  1.7241
 1806TIP3   OH226832   4.197   6.085  11.330 -0.1864 -0.7640 -0.4636
 1806TIP3    H126833   4.204   6.017  11.264 -0.3730 -1.0345 -0.2045
 1806TIP3    H226834   4.216   6.166  11.283  0.5922 -1.0434 -0.6534
 1807TIP3   OH226835   4.470   0.033  15.492  0.0155  0.2735 -0.3966
 1807TIP3    H126836   4.564   0.037  15.475  0.2281 -2.7620 -0.4569
 1807TIP3    H226837   4.433  -0.010  15.415 -1.3022  0.7172 -0.0309
 1808TIP3   OH226838   0.680   1.725  14.307  0.0586 -0.0084  0.0689
 1808TIP3    H126839   0.590   1.758  14.305  0.3890  0.8786 -0.9440
 1808TIP3    H226840   0.688   1.670  14.229  0.4460  0.0708  0.0488
 1809TIP3   OH226841   4.167   1.999   3.375  0.4610  0.2003  0.6002
 1809TIP3    H126842   4.105   1.952   3.431  1.5608 -0.7176  1.0987
 1809TIP3    H226843   4.113   2.054   3.319 -0.7982 -0.6283  0.9696
 1810TIP3   OH226844   5.872   3.275   1.767  0.1279 -0.2120 -0.4132
 1810TIP3    H126845   5.917   3.207   1.818  1.1792  0.4033 -0.4887
 1810TIP3    H226846   5.847   3.340   1.832 -1.4937 -0.9692 -0.2438
 1811TIP3   OH226847   5.977   0.332   0.581  0.1297 -0.4908  0.7086
 1811TIP3    H126848   5.980   0.427   0.575 -0.0652 -0.5536 -0.6437
 1811TIP3    H226849   5.991   0.313   0.674 -3.1340  0.9932  1.6468
 1812TIP3   OH226850   5.004   0.222  14.215 -0.2888  0.6537 -0.1108
 1812TIP3    H126851   5.064   0.283  14.174 -0.1557 -0.0208 -0.9510
 1812TIP3    H226852   5.054   0.182  14.286  0.3801 -0.1632 -1.0297
 1813TIP3   OH226853   3.510   4.613  12.208  0.0442 -0.4957 -0.0896
 1813TIP3    H126854   3.600   4.596  12.235  0.4921  1.9802  0.2341
 1813TIP3    H226855   3.517   4.690  12.151 -1.7627 -0.9304 -0.9495
 1814TIP3   OH226856   0.084   0.596   6.453  0.3122  0.1305 -0.1139
 1814TIP3    H126857   0.028   0.610   6.376  0.9062 -1.5565 -0.8943
 1814TIP3    H226858   0.036   0.534   6.507  1.1282 -0.8449 -0.4861
 1815TIP3   OH226859   4.405   5.020   0.580 -0.2301  0.2144 -0.0674
 1815TIP3    H126860   4.313   4.998   0.567 -0.5784  2.3807 -1.7543
 1815TIP3    H226861   4.453   4.955   0.528 -0.4471 -2.8309  3.1046
 1816TIP3   OH226862   0.116   0.184   0.911 -0.4034  0.1841 -0.0499
 1816TIP3    H126863   0.170   0.241   0.965 -0.9152  0.3699  0.2630
 1816TIP3    H226864   0.099   0.107   0.966 -1.0127  0.4192  0.0955
 1817TIP3   OH226865   4.458   6.079  12.898  0.8408 -0.2936  0.3772
 1817TIP3    H126866   4.376   6.120  12.870  0.4569 -0.3675  1.3642
 1817TIP3    H226867   4.496   6.142  12.959  0.5455 -1.1205  1.4354
 1818TIP3   OH226868   4.440   1.445   3.411 -0.2637  0.1956 -0.1406
 1818TIP3    H126869   4.479   1.522   3.370  0.3833  1.3136  2.4039
 1818TIP3    H226870   4.348   1.467   3.423 -0.6116 -0.4043 -1.4989
 1819TIP3   OH226871   3.653   6.565   4.924 -0.4421 -0.6356  0.6052
 1819TIP3    H126872   3.579   6.544   4.866 -1.7097 -0.1979  2.0101
 1819TIP3    H226873   3.661   6.488   4.981 -0.4659 -0.2765  1.0988
 1820TIP3   OH226874   0.872   0.928  15.965 -0.1223  0.2831 -0.0969
 1820TIP3    H126875   0.927   0.862  15.923 -0.3942  2.1697 -3.7939
 1820TIP3    H226876   0.934   0.992  16.000  0.1202  0.5772 -1.0327
 1821TIP3   OH226877   3.825   0.758  16.059 -0.4284 -0.0915  0.1925
 1821TIP3    H126878   3.799   0.772  15.968 -0.7428  0.5617  0.3729
 1821TIP3    H226879   3.854   0.667  16.062 -0.3643 -0.1049 -0.5713
 1822TIP3   OH226880   2.266   6.545  16.828  0.6170 -0.5396  0.0359
 1822TIP3    H126881   2.275   6.550  16.924 -1.8180  0.0755  0.3227
 1822TIP3    H226882   2.328   6.478  16.801  1.6003 -0.5007  2.0128
 1823TIP3   OH226883   1.316   1.463   0.214  0.5172 -0.2474 -0.1713
 1823TIP3    H126884   1.314   1.406   0.291 -1.9777 -1.5928 -1.1155
 1823TIP3    H226885   1.290   1.406   0.141  1.7237  1.2357 -1.8588
 1824TIP3   OH226886   6.602   2.091  14.257  0.4097  0.7814 -0.1680
 1824TIP3    H126887   6.567   2.129  14.176 -1.3387 -1.4485 -0.5602
 1824TIP3    H226888   6.683   2.047  14.230  1.5437  2.6401 -0.0202
 1825TIP3   OH226889   5.692   2.000   1.783 -0.2064 -0.1560 -0.1277
 1825TIP3    H126890   5.753   2.064   1.746  1.4758 -1.7616 -0.3116
 1825TIP3    H226891   5.645   2.047   1.851  0.5751  1.3990 -0.6184
 1826TIP3   OH226892   4.020   0.191   4.098 -0.0920 -0.6246 -0.5453
 1826TIP3    H126893   4.062   0.146   4.024  2.0827  0.8449 -0.3090
 1826TIP3    H226894   4.083   0.182   4.170  0.0052  1.8992 -0.2357
 1827TIP3   OH226895   3.892   2.978  11.364  0.1135  0.7809  0.5250
 1827TIP3    H126896   3.832   3.034  11.412  1.2339  0.6238  2.1682
 1827TIP3    H226897   3.979   3.010  11.386  0.7095  1.0531 -1.8699
 1828TIP3   OH226898   0.486   4.853  13.229  0.1144 -0.5633  0.3565
 1828TIP3    H126899   0.406   4.882  13.273  0.9468  0.4277  1.2671
 1828TIP3    H226900   0.550   4.923  13.246  1.2994 -1.5220  0.0115
 1829TIP3   OH226901   2.506   0.975   5.650  0.0588 -0.1969  0.3060
 1829TIP3    H126902   2.554   0.918   5.710 -1.4691 -0.6457  1.1721
 1829TIP3    H226903   2.423   0.992   5.695  0.1321  2.0806 -0.2920
 1830TIP3   OH226904   0.295   1.448   3.665  0.8053 -0.0151  0.5395
 1830TIP3    H126905   0.249   1.412   3.590 -0.8245  0.7367  1.1388
 1830TIP3    H226906   0.312   1.540   3.642 -1.0489  0.6528  1.6218
 1831TIP3   OH226907   0.095   0.094  11.911  0.1663 -0.3080  0.7026
 1831TIP3    H126908   0.043   0.052  11.980 -1.0034  0.5688  0.3995
 1831TIP3    H226909   0.130   0.173  11.953 -1.0682  0.5578  0.1495
 1832TIP3   OH226910   3.906   0.257  15.758  0.3632 -0.2466 -0.4891
 1832TIP3    H126911   3.946   0.180  15.799 -1.0859  0.2285  2.0847
 1832TIP3    H226912   3.816   0.258  15.792 -1.3950 -0.2803 -4.5854
 1833TIP3   OH226913   2.748   1.120  12.531  0.0440  0.7651 -0.3916
 1833TIP3    H126914   2.801   1.127  12.610 -0.7609  1.1961  0.1267
 1833TIP3    H226915   2.664   1.158  12.555  0.6569  3.6809 -2.2845
 1834TIP3   OH226916   5.296   5.861   5.044  0.2713 -0.1969 -0.0226
 1834TIP3    H126917   5.364   5.833   4.983  0.1789  0.4068 -0.4096
 1834TIP3    H226918   5.222   5.802   5.027  0.5630 -0.6059  0.1321
 1835TIP3   OH226919   4.705   5.838   3.413  0.0907  0.1275 -0.0957
 1835TIP3    H126920   4.684   5.868   3.325  0.2984  0.6412  0.0264
 1835TIP3    H226921   4.711   5.918   3.465  0.8626 -0.1027  0.1894
 1836TIP3   OH226922   5.162   2.675  14.075 -0.0840  0.5285  0.2089
 1836TIP3    H126923   5.153   2.584  14.045 -0.1166  0.6920 -0.2764
 1836TIP3    H226924   5.228   2.670  14.144  0.5305  0.2577 -0.3877
 1837TIP3   OH226925   5.914   2.431  12.121  0.2824 -0.0226  0.7388
 1837TIP3    H126926   6.008   2.420  12.111  0.5796  2.7882 -0.3420
 1837TIP3    H226927   5.876   2.354  12.077  2.0412 -0.2625 -0.4246
 1838TIP3   OH226928   2.631   3.883   3.570  0.3657  0.3128 -0.3487
 1838TIP3    H126929   2.612   3.891   3.664  2.8614 -2.8037  0.5962
 1838TIP3    H226930   2.561   3.827   3.537  1.4005 -1.6151  0.5566
 1839TIP3   OH226931   0.898   5.960   1.179 -1.0053  0.3749 -0.6183
 1839TIP3    H126932   0.925   5.931   1.266  1.3147  0.1692 -1.3396
 1839TIP3    H226933   0.804   5.945   1.177 -0.9226 -0.7719  1.4144
 1840TIP3   OH226934   4.240   3.948  12.782 -0.3601 -0.2692 -0.1439
 1840TIP3    H126935   4.202   3.871  12.824 -1.5672  0.1769 -0.3699
 1840TIP3    H226936   4.193   4.022  12.821 -1.3258  0.1711 -2.0662
 1841TIP3   OH226937   5.944   6.591  15.296 -0.0203 -0.1350  0.3220
 1841TIP3    H126938   5.976   6.598  15.207  0.7685  0.9173  0.6615
 1841TIP3    H226939   5.849   6.588  15.288  0.0673 -0.5408 -0.5710
 1842TIP3   OH226940   1.922   4.154   3.983  0.0501  0.3436 -0.1311
 1842TIP3    H126941   1.999   4.176   3.930  0.1240 -1.2941 -0.7570
 1842TIP3    H226942   1.909   4.061   3.969  0.1474 -0.2308  2.8642
 1843TIP3   OH226943   1.093   1.810   4.976 -0.2152  0.0082 -0.3711
 1843TIP3    H126944   1.148   1.872   4.929  1.5281 -1.1255  0.0695
 1843TIP3    H226945   1.109   1.828   5.069 -0.8796 -0.1031 -0.2268
 1844TIP3   OH226946   5.996   2.568  14.489 -0.3097  0.1142  0.3148
 1844TIP3    H126947   5.987   2.533  14.401 -1.2288  1.0640  0.0117
 1844TIP3    H226948   6.091   2.569  14.505 -0.0509  0.8860 -1.0765
 1845TIP3   OH226949   3.394   5.621   0.848 -0.1941  0.6650  0.4875
 1845TIP3    H126950   3.327   5.689   0.838  0.6042  1.3101 -0.7559
 1845TIP3    H226951   3.376   5.581   0.933 -4.1561 -1.3305 -1.0105
 1846TIP3   OH226952   1.392   0.974   0.473  0.3829  0.0116 -0.4501
 1846TIP3    H126953   1.410   0.932   0.557 -0.7850 -0.2130 -0.2893
 1846TIP3    H226954   1.302   0.949   0.453  0.5948  0.1792 -1.7091
 1847TIP3   OH226955   6.215   0.409   2.609 -0.2177 -0.1753 -0.1983
 1847TIP3    H126956   6.256   0.477   2.556  0.3818 -0.0993  0.3486
 1847TIP3    H226957   6.285   0.376   2.665 -1.0293  0.4186  1.2365
 1848TIP3   OH226958   1.630   3.098   2.261  0.2262 -0.2354  0.1382
 1848TIP3    H126959   1.693   3.127   2.196  2.7728 -0.0710  2.4735
 1848TIP3    H226960   1.627   3.170   2.325 -1.8380 -0.5480  0.4736
 1849TIP3   OH226961   2.136   4.050  13.204 -0.8534 -0.7862  0.6540
 1849TIP3    H126962   2.202   4.027  13.269  0.3566  1.4374  0.3104
 1849TIP3    H226963   2.053   4.049  13.252 -0.4153 -2.1990  1.4413
 1850TIP3   OH226964   4.916   2.271  12.709 -0.3873  0.0020  0.6833
 1850TIP3    H126965   5.009   2.254  12.692 -0.5375 -1.2811  1.0766
 1850TIP3    H226966   4.914   2.297  12.801 -0.4525 -0.1724  0.7296
 1851TIP3   OH226967   0.298   2.147  17.117  0.3589 -0.1153 -0.3511
 1851TIP3    H126968   0.249   2.205  17.176  2.7829  1.8964 -0.1328
 1851TIP3    H226969   0.349   2.092  17.176  3.3920  2.4329 -0.3484
 1852TIP3   OH226970   4.120   2.935   5.104 -0.1051 -0.0770 -0.3954
 1852TIP3    H126971   4.139   2.861   5.046 -0.5605  0.2628 -1.0045
 1852TIP3    H226972   4.030   2.960   5.082  0.1009  0.7714 -0.3405
 1853TIP3   OH226973   5.348   6.452  17.366 -0.3064  0.0247  0.2089
 1853TIP3    H126974   5.307   6.465  17.281 -0.2502 -2.4402 -0.2809
 1853TIP3    H226975   5.274   6.435  17.426 -0.2349 -0.2542  0.2189
 1854TIP3   OH226976   0.373   5.198  12.787 -0.2371 -0.0092  1.2495
 1854TIP3    H126977   0.396   5.227  12.876  2.0478 -1.0482  1.0667
 1854TIP3    H226978   0.324   5.117  12.800  1.4616 -1.0217  1.5725
 1855TIP3   OH226979   5.659   0.978  11.748  0.1601 -0.1045 -0.0930
 1855TIP3    H126980   5.696   0.910  11.805  1.4086 -0.2198 -0.9784
 1855TIP3    H226981   5.584   0.936  11.706 -0.8067  0.0004  1.4604
 1856TIP3   OH226982   2.261   4.079  13.464  0.3062  0.0868  0.0442
 1856TIP3    H126983   2.348   4.118  13.458  0.5555 -0.5505 -0.7636
 1856TIP3    H226984   2.202   4.153  13.480  0.4170  1.2974 -4.0143
 1857TIP3   OH226985   0.518   6.669   1.817  1.0323 -0.3985  0.2985
 1857TIP3    H126986   0.523   6.677   1.912  1.7769  1.3318  0.1433
 1857TIP3    H226987   0.596   6.713   1.784  0.8683 -1.0969 -1.1302
 1858TIP3   OH226988   4.599   5.604   4.811 -0.3196  0.0557 -0.1846
 1858TIP3    H126989   4.591   5.574   4.720  0.2679  0.9475 -0.5434
 1858TIP3    H226990   4.685   5.645   4.815 -0.9952  1.4671  0.3402
 1859TIP3   OH226991   6.714   5.819   4.628  0.4643  0.4688  0.5479
 1859TIP3    H126992   6.806   5.795   4.615  0.8650  2.0279  0.2853
 1859TIP3    H226993   6.682   5.842   4.541 -0.3926 -0.7405  0.5291
 1860TIP3   OH226994   4.478   4.503   2.226  0.2858 -0.7283  0.0385
 1860TIP3    H126995   4.493   4.427   2.171 -1.4329 -2.2744  1.5725
 1860TIP3    H226996   4.426   4.562   2.171 -1.6139 -2.3402  0.0173
 1861TIP3   OH226997   5.088   4.109   1.309  0.1354  0.1163  0.5111
 1861TIP3    H126998   5.062   4.125   1.219  0.1123  1.9080  0.7962
 1861TIP3    H226999   5.125   4.020   1.308 -1.8050 -0.7371 -0.7887
 1862TIP3   OH227000   0.905   2.952  13.087  0.0218  0.0912  0.3355
 1862TIP3    H127001   0.998   2.962  13.109 -0.0032  1.1464  0.0397
 1862TIP3    H227002   0.858   2.978  13.166 -0.0197 -0.2283  0.4150
 1863TIP3   OH227003   3.316   4.628   1.865  0.1275 -0.3619  0.0834
 1863TIP3    H127004   3.355   4.546   1.837 -1.4930 -0.5610 -1.8295
 1863TIP3    H227005   3.349   4.694   1.803 -1.8498 -0.4149 -1.1408
 1864TIP3   OH227006   1.395   3.112   1.822  0.1315 -0.3574 -0.2176
 1864TIP3    H127007   1.384   3.039   1.762 -2.4413 -0.0733 -0.2064
 1864TIP3    H227008   1.420   3.186   1.767 -0.6089 -0.4724 -0.7057
 1865TIP3   OH227009   2.608   3.364  10.824 -0.7176  0.1281 -0.3674
 1865TIP3    H127010   2.542   3.419  10.866 -0.5530 -0.4583  0.6836
 1865TIP3    H227011   2.558   3.300  10.773 -0.9127  1.0279 -1.3378
 1866TIP3   OH227012   1.435   1.582   1.883 -0.0681  0.1282 -0.3112
 1866TIP3    H127013   1.435   1.493   1.920 -1.3324  0.5348  0.7211
 1866TIP3    H227014   1.391   1.573   1.799 -0.2843 -0.2049 -0.1637
 1867TIP3   OH227015   6.505   3.820   4.200 -0.0921  0.5130  0.1208
 1867TIP3    H127016   6.450   3.801   4.276  1.1753 -1.2235  0.6589
 1867TIP3    H227017   6.481   3.751   4.137  1.4684 -0.3227  0.3973
 1868TIP3   OH227018   0.028   3.692   1.365  0.5737 -0.2376 -0.1958
 1868TIP3    H127019   0.071   3.777   1.374 -0.7679  0.5440 -0.8814
 1868TIP3    H227020   0.068   3.654   1.286 -0.4381  0.7859 -1.2349
 1869TIP3   OH227021   6.271   4.765  13.799  0.4698 -0.5669  0.5829
 1869TIP3    H127022   6.199   4.705  13.821 -0.6177  0.4830  0.0634
 1869TIP3    H227023   6.256   4.842  13.855 -1.8298  1.7748 -2.7975
 1870TIP3   OH227024   4.773   6.337   1.486 -0.3230 -0.6794 -0.2827
 1870TIP3    H127025   4.773   6.399   1.413 -0.2392  0.2872  0.5113
 1870TIP3    H227026   4.841   6.369   1.545 -1.4854 -0.4757  0.9958
 1871TIP3   OH227027   6.209   5.899  13.358  0.7407  0.2135  0.2914
 1871TIP3    H127028   6.280   5.889  13.421  2.2131  1.4919 -1.0607
 1871TIP3    H227029   6.252   5.927  13.277 -1.3909  2.6222 -0.1751
 1872TIP3   OH227030   0.673   6.317   6.630  0.2713  0.1621 -0.1334
 1872TIP3    H127031   0.636   6.405   6.617  1.1143  0.4093 -0.9295
 1872TIP3    H227032   0.685   6.309   6.725  2.0053  1.6764 -0.1792
 1873TIP3   OH227033   4.607   5.572  14.599  0.3018  0.4133  0.3262
 1873TIP3    H127034   4.580   5.640  14.538  0.3253 -0.0056 -0.1559
 1873TIP3    H227035   4.644   5.620  14.674  0.4864  0.9202 -0.0831
 1874TIP3   OH227036   6.442   2.063  16.975  0.5225 -0.3521  0.1925
 1874TIP3    H127037   6.523   2.095  16.935  1.0913 -0.5620  1.1394
 1874TIP3    H227038   6.432   1.974  16.941  0.1467  0.0287 -0.7046
 1875TIP3   OH227039   1.209   3.668  15.911 -0.4088 -0.2490 -0.2038
 1875TIP3    H127040   1.120   3.674  15.944 -0.9101 -0.5068 -1.4672
 1875TIP3    H227041   1.257   3.735  15.959 -0.4478 -2.2883  2.9865
 1876TIP3   OH227042   5.198   0.603  11.940  0.0193 -0.3975 -0.1128
 1876TIP3    H127043   5.189   0.630  12.031  0.0880 -0.3026 -0.1334
 1876TIP3    H227044   5.285   0.636  11.914 -0.6961  1.1215 -0.7439
 1877TIP3   OH227045   1.088   1.853   4.642 -0.0990 -0.4463 -0.9183
 1877TIP3    H127046   1.031   1.904   4.584 -0.8149 -0.7287 -0.4762
 1877TIP3    H227047   1.105   1.912   4.716 -0.7810 -0.7720 -0.4925
 1878TIP3   OH227048   4.833   2.606   1.393  1.0473 -0.0312  0.3080
 1878TIP3    H127049   4.877   2.522   1.387  0.5308 -0.5402  2.5898
 1878TIP3    H227050   4.861   2.642   1.478  0.7801  1.8286 -0.3290
 1879TIP3   OH227051   3.989   6.085   4.652 -0.0755  0.1780  0.0419
 1879TIP3    H127052   4.078   6.121   4.655  0.4536 -0.7937 -1.8013
 1879TIP3    H227053   3.980   6.036   4.733  0.7549  0.9461  0.6282
 1880TIP3   OH227054   4.519   4.464   6.246  0.0681  0.6753 -0.1231
 1880TIP3    H127055   4.581   4.443   6.316  0.6789 -0.0304 -0.8598
 1880TIP3    H227056   4.574   4.487   6.172 -0.5757  1.2144 -0.4476
 1881TIP3   OH227057   5.972   3.383  11.334  0.1791  0.6279  0.2808
 1881TIP3    H127058   6.032   3.322  11.291  0.2088  1.8746 -1.5465
 1881TIP3    H227059   5.933   3.433  11.262 -0.0750  2.5450  1.6844
 1882TIP3   OH227060   3.729   2.982   1.863  0.3300  0.0252  0.2679
 1882TIP3    H127061   3.639   2.950   1.863 -0.2142  1.4540 -0.4360
 1882TIP3    H227062   3.724   3.066   1.910  1.7047 -0.8426  2.1322
 1883TIP3   OH227063   5.914   1.359  17.140  0.6562 -0.0152  0.1450
 1883TIP3    H127064   5.865   1.414  17.200  0.1727 -0.5439  0.2396
 1883TIP3    H227065   5.909   1.271  17.178 -0.1609 -0.4741 -0.9591
 1884TIP3   OH227066   4.029   4.962   4.220 -0.1053  0.0106 -0.8435
 1884TIP3    H127067   4.092   5.000   4.281 -0.8928  1.5867 -0.9723
 1884TIP3    H227068   3.954   4.938   4.275 -0.0212 -0.4141 -0.9127
 1885TIP3   OH227069   5.054   3.492   6.456  0.4609 -0.0010  0.0599
 1885TIP3    H127070   4.984   3.426   6.460 -0.7676  1.2854  0.5604
 1885TIP3    H227071   5.020   3.565   6.508  2.2755  0.5840  0.4661
 1886TIP3   OH227072   3.073   1.566  11.432 -0.2240  0.4898 -0.2411
 1886TIP3    H127073   3.043   1.546  11.521  0.0243  2.6671  0.3871
 1886TIP3    H227074   3.031   1.649  11.410 -0.2074  0.0532 -2.1524
 1887TIP3   OH227075   0.243   5.254   0.605  0.0820 -0.2974  0.1643
 1887TIP3    H127076   0.268   5.345   0.615  0.9462 -0.4735 -0.3102
 1887TIP3    H227077   0.247   5.237   0.511 -0.8188 -0.6198  0.1773
 1888TIP3   OH227078   5.084   1.631  17.372  0.2706  0.6126 -0.3628
 1888TIP3    H127079   5.069   1.537  17.361  0.5412  0.7836 -2.6583
 1888TIP3    H227080   5.033   1.672  17.303  0.3667  2.1667  0.4367
 1889TIP3   OH227081   4.987   3.262   0.916  0.0074  1.0806 -0.3160
 1889TIP3    H127082   5.067   3.315   0.907  1.3432 -0.1079  2.9709
 1889TIP3    H227083   5.002   3.187   0.858  1.8190  0.3880  0.9431
 1890TIP3   OH227084   5.776   4.552  13.237 -0.7777  0.1527  0.0248
 1890TIP3    H127085   5.828   4.567  13.158 -2.7971 -1.1649 -1.6911
 1890TIP3    H227086   5.799   4.624  13.295  1.5635  0.5970 -1.3326
 1891TIP3   OH227087   1.175   4.392  15.035 -0.1676 -0.5073 -0.2041
 1891TIP3    H127088   1.184   4.432  14.949 -0.6478 -1.2114 -0.5828
 1891TIP3    H227089   1.185   4.466  15.096  1.8960 -0.2508 -0.7756
 1892TIP3   OH227090   3.688   3.654  15.699 -0.1942  0.2080  0.4675
 1892TIP3    H127091   3.609   3.603  15.682 -0.7817  1.1821  0.1938
 1892TIP3    H227092   3.662   3.717  15.766 -0.1457  1.6611 -0.8457
 1893TIP3   OH227093   2.840   5.595   6.451  0.1832 -0.4972  0.1519
 1893TIP3    H127094   2.831   5.677   6.499  0.4695 -1.2568  1.5782
 1893TIP3    H227095   2.770   5.540   6.486  0.8071 -1.2912  0.1808
 1894TIP3   OH227096   0.906   2.747  16.399  0.0233  0.1004  0.5221
 1894TIP3    H127097   0.920   2.830  16.355 -0.9780  0.6368  1.1815
 1894TIP3    H227098   0.964   2.749  16.475  0.2237  0.0637  0.3701
 1895TIP3   OH227099   5.234   3.410  14.480 -0.6877 -0.0302  0.0795
 1895TIP3    H127100   5.281   3.485  14.443 -3.1207  2.4205  1.5951
 1895TIP3    H227101   5.274   3.396  14.566 -0.3083 -0.4339 -0.1575
 1896TIP3   OH227102   3.946   5.543  12.097 -0.5366 -0.1644  0.3028
 1896TIP3    H127103   3.892   5.593  12.035 -0.8714 -2.0905 -1.0365
 1896TIP3    H227104   4.017   5.603  12.120  0.2085  0.3209 -2.8039
 1897TIP3   OH227105   6.405   6.435   0.953 -0.0560  0.2482 -0.3115
 1897TIP3    H127106   6.323   6.440   0.904 -0.2620 -2.4214 -0.4146
 1897TIP3    H227107   6.379   6.440   1.045 -0.3171 -0.2417 -0.3535
 1898TIP3   OH227108   0.535   1.923   1.841  0.2928  0.5746 -0.3642
 1898TIP3    H127109   0.488   1.947   1.920 -0.6303 -1.7948 -0.1012
 1898TIP3    H227110   0.627   1.921   1.868  0.1811  1.5637  0.1294
 1899TIP3   OH227111   4.395   3.488   0.935  0.7246 -0.2311  0.1305
 1899TIP3    H127112   4.364   3.476   1.025  1.3243  0.3903  0.4281
 1899TIP3    H227113   4.411   3.399   0.903 -1.7481 -0.6281 -0.1981
 1900TIP3   OH227114   0.888   4.054   3.041 -0.1858  0.5215  0.1963
 1900TIP3    H127115   0.972   4.019   3.012 -0.0409 -0.2842  1.5144
 1900TIP3    H227116   0.875   4.133   2.988  2.0866  1.4748  0.9480
 1901TIP3   OH227117   0.191   1.680   2.865 -0.2525 -0.0816 -0.1710
 1901TIP3    H127118   0.276   1.660   2.826 -0.8952  0.1136 -1.7381
 1901TIP3    H227119   0.142   1.725   2.796 -1.5680 -0.0163  0.7526
 1902TIP3   OH227120   0.777   4.366   1.151 -0.3500 -0.0313  0.1602
 1902TIP3    H127121   0.785   4.419   1.230  0.5144  0.7238 -0.4143
 1902TIP3    H227122   0.834   4.409   1.087  1.3560 -2.2671  0.0155
 1903TIP3   OH227123   0.234   1.358  12.897 -0.7420 -0.4853 -0.1847
 1903TIP3    H127124   0.299   1.428  12.898 -1.3664  0.1080 -0.2612
 1903TIP3    H227125   0.199   1.358  12.808 -1.4489 -0.2228  0.0844
 1904TIP3   OH227126   1.602   2.733   1.982  0.1473  0.7927 -0.5916
 1904TIP3    H127127   1.605   2.772   2.070 -0.2289 -0.5616  0.0393
 1904TIP3    H227128   1.694   2.712   1.963  0.0582 -0.4386  0.2087
 1905TIP3   OH227129   4.276   3.393  12.353 -0.1039  0.3411 -0.4859
 1905TIP3    H127130   4.348   3.351  12.306  2.0316  1.6428  1.4160
 1905TIP3    H227131   4.274   3.482  12.318 -0.2695  0.5299 -0.0047
 1906TIP3   OH227132   0.546   3.097  14.080 -0.2577  0.2711 -0.2012
 1906TIP3    H127133   0.531   3.141  14.163  1.0603 -1.2772  0.9183
 1906TIP3    H227134   0.593   3.161  14.026 -3.3390  2.2385 -0.8108
 1907TIP3   OH227135   1.227   5.088  17.100 -0.5086  0.6855  0.4377
 1907TIP3    H127136   1.138   5.074  17.068 -1.1491 -0.5578  2.5632
 1907TIP3    H227137   1.224   5.172  17.145  0.5227  2.6977 -2.8779
 1908TIP3   OH227138   6.701   4.491  14.558  0.0022  0.2697 -0.1448
 1908TIP3    H127139   6.754   4.569  14.544 -1.1835  1.2430  0.5784
 1908TIP3    H227140   6.627   4.500  14.497  1.1916 -1.6694 -2.0327
 1909TIP3   OH227141   0.203   3.984   3.446 -0.5899  0.3219 -0.1715
 1909TIP3    H127142   0.127   4.006   3.391  0.2018  1.9005 -0.6800
 1909TIP3    H227143   0.273   4.039   3.413  1.2260 -2.1126 -0.6429
 1910TIP3   OH227144   5.803   0.510   0.081  0.4411  0.4316 -0.0378
 1910TIP3    H127145   5.889   0.510   0.038 -0.0895  1.1403 -1.1416
 1910TIP3    H227146   5.799   0.426   0.125  1.5099  0.1783 -0.3845
 1911TIP3   OH227147   6.294   0.688  13.937  0.3832 -0.3982  0.1881
 1911TIP3    H127148   6.269   0.597  13.926  0.0082 -0.2011 -0.6830
 1911TIP3    H227149   6.331   0.713  13.852 -1.4493  0.8487 -0.2929
 1912TIP3   OH227150   2.066   3.052  16.111  0.3957  0.3370  0.1886
 1912TIP3    H127151   2.144   3.006  16.143 -0.1462  0.2670  1.4663
 1912TIP3    H227152   2.092   3.087  16.026  1.4086 -0.7828  0.0015
 1913TIP3   OH227153   4.187   3.610  14.173 -0.2720 -0.6181 -0.0831
 1913TIP3    H127154   4.176   3.670  14.099 -1.0083  0.3770  0.8098
 1913TIP3    H227155   4.127   3.538  14.155 -0.1874 -0.5593 -0.6167
 1914TIP3   OH227156   5.024   4.623   2.047 -0.6575 -0.7658  0.4845
 1914TIP3    H127157   5.003   4.604   2.138  0.1992 -0.1649  0.8270
 1914TIP3    H227158   5.112   4.586   2.034 -0.2391  0.2478  0.2877
 1915TIP3   OH227159   1.364   6.596  16.341  0.2320 -0.5961  0.0393
 1915TIP3    H127160   1.313   6.585  16.421 -2.9752 -0.2451 -1.8060
 1915TIP3    H227161   1.393   6.687  16.343 -0.6118 -0.3265  0.4001
 1916TIP3   OH227162   2.759   6.307  12.293  0.1056  0.5259  0.1050
 1916TIP3    H127163   2.685   6.246  12.290  0.0403  0.6185 -0.2974
 1916TIP3    H227164   2.756   6.351  12.208  0.7834  0.3427 -0.0195
 1917TIP3   OH227165   1.561   2.977   6.643 -0.4700  0.3886  0.3650
 1917TIP3    H127166   1.543   2.981   6.737 -2.2444  0.6673  0.0484
 1917TIP3    H227167   1.546   3.066   6.611  0.0851  0.2884 -0.1984
 1918TIP3   OH227168   0.156   2.590  17.389  0.2251  0.2116  0.4242
 1918TIP3    H127169   0.130   2.528  17.457 -0.6470  2.0598  1.8496
 1918TIP3    H227170   0.075   2.607  17.340  0.3268  0.6593  0.4094
 1919TIP3   OH227171   4.374   2.746  14.350 -0.3212  0.9904 -0.6212
 1919TIP3    H127172   4.360   2.676  14.286  0.6163  2.7409 -2.8644
 1919TIP3    H227173   4.299   2.804  14.339  0.5660  2.0661 -1.2588
 1920TIP3   OH227174   4.055   5.525   5.617 -0.3261 -0.7504  0.3370
 1920TIP3    H127175   4.042   5.539   5.524  0.5780 -1.1882  0.1374
 1920TIP3    H227176   4.150   5.535   5.630 -0.4159 -0.8968  1.1678
 1921TIP3   OH227177   6.704   4.353   5.668 -0.2971 -0.7925  0.4062
 1921TIP3    H127178   6.708   4.432   5.721 -0.2750  0.0036 -0.7313
 1921TIP3    H227179   6.779   4.360   5.609 -2.5532  0.5553 -2.6041
 1922TIP3   OH227180   6.322   1.938  12.479  0.6741 -0.8284  0.2652
 1922TIP3    H127181   6.336   1.844  12.483 -0.6968 -1.1262 -1.3115
 1922TIP3    H227182   6.345   1.969  12.567 -1.5108 -2.9967  1.7144
 1923TIP3   OH227183   0.983   0.219  16.193  0.6191  0.1966 -0.1776
 1923TIP3    H127184   0.929   0.150  16.156 -0.5473  0.7950  0.3838
 1923TIP3    H227185   1.046   0.239  16.124 -0.1225 -0.2390 -0.9970
 1924TIP3   OH227186   0.737   1.858   2.036 -0.0942  0.0544  0.6368
 1924TIP3    H127187   0.802   1.879   2.103 -0.2579  0.1466  0.7692
 1924TIP3    H227188   0.736   1.763   2.031 -0.3144  0.0346  1.0012
 1925TIP3   OH227189   0.949   1.247   0.846  1.0201 -0.0220 -0.2228
 1925TIP3    H127190   0.986   1.274   0.762 -0.3663  1.2513 -0.4681
 1925TIP3    H227191   0.904   1.325   0.878 -1.2934 -1.4169  0.1234
 1926TIP3   OH227192   1.624   3.822   3.987  0.1646  0.4247  0.4032
 1926TIP3    H127193   1.658   3.854   4.070 -0.1445  2.4458 -0.1956
 1926TIP3    H227194   1.602   3.901   3.938  0.9019 -0.6642 -1.8379
 1927TIP3   OH227195   6.493   5.310   0.612  0.4017 -0.0558  0.3804
 1927TIP3    H127196   6.507   5.355   0.528  1.0207 -2.5372 -0.9609
 1927TIP3    H227197   6.576   5.321   0.658  1.1517 -1.1344 -0.6432
 1928TIP3   OH227198   1.705   6.069   1.306  0.0953 -0.0330 -0.1965
 1928TIP3    H127199   1.674   6.150   1.346  1.3342  0.5817 -0.4375
 1928TIP3    H227200   1.671   6.071   1.217 -1.1257 -0.5167  0.2392
 1929TIP3   OH227201   4.097   6.107  16.167 -0.1801 -0.2890  0.6290
 1929TIP3    H127202   4.177   6.160  16.162 -0.1925 -0.3801 -2.5994
 1929TIP3    H227203   4.029   6.168  16.195  0.0542  1.2075 -1.8141
 1930TIP3   OH227204   2.180   5.471  15.198  0.6564  0.2149 -0.7755
 1930TIP3    H127205   2.189   5.566  15.200 -0.9104  0.4372 -1.9768
 1930TIP3    H227206   2.240   5.439  15.266  0.6854  2.0925  0.1459
 1931TIP3   OH227207   6.252   0.568   0.831  0.4253 -0.4813  0.4053
 1931TIP3    H127208   6.300   0.522   0.762  1.5558 -0.1445  0.9375
 1931TIP3    H227209   6.170   0.520   0.839 -0.0083 -0.1855 -1.5734
 1932TIP3   OH227210   3.540   0.547   0.487 -0.2408  0.9980 -0.4511
 1932TIP3    H127211   3.582   0.573   0.404  1.5818 -1.7881 -0.5266
 1932TIP3    H227212   3.471   0.486   0.461  0.3118  0.1417  0.0412
 1933TIP3   OH227213   5.520   6.601  12.292  0.0713  0.0053  0.8395
 1933TIP3    H127214   5.613   6.597  12.313  0.1842 -0.6706  0.2268
 1933TIP3    H227215   5.500   6.695  12.294  0.9017  0.2009  0.3874
 1934TIP3   OH227216   6.120   0.017  13.142 -0.2552 -0.2443 -0.6039
 1934TIP3    H127217   6.053  -0.021  13.199  0.8658 -0.1059  0.8573
 1934TIP3    H227218   6.171   0.075  13.199 -0.1496  1.2585 -2.1428
 1935TIP3   OH227219   5.642   5.232   1.103 -0.1416 -0.4271  0.6115
 1935TIP3    H127220   5.734   5.216   1.123  0.0562 -0.2522 -0.1486
 1935TIP3    H227221   5.614   5.156   1.054 -0.0828  0.0458 -0.1701
 1936TIP3   OH227222   5.632   5.899  13.589 -0.0330 -0.7742  0.8277
 1936TIP3    H127223   5.541   5.908  13.617 -0.4294 -0.8172 -0.3751
 1936TIP3    H227224   5.627   5.855  13.504  1.0748 -0.3001  0.4915
 1937TIP3   OH227225   0.246   4.667  16.456  0.0160  0.1139 -0.1922
 1937TIP3    H127226   0.290   4.744  16.420  0.2531  0.8436  1.5571
 1937TIP3    H227227   0.316   4.619  16.502 -0.2460 -0.8455 -0.7729
 1938TIP3   OH227228   6.353   3.461   3.801  0.0796 -0.3473  0.1723
 1938TIP3    H127229   6.410   3.398   3.756 -1.0737 -0.2683 -1.5072
 1938TIP3    H227230   6.302   3.408   3.863 -1.1592 -1.2111 -1.4992
 1939TIP3   OH227231   0.272   4.397  11.583 -0.0009 -0.4917 -0.2076
 1939TIP3    H127232   0.203   4.408  11.517  0.6187 -1.0373 -0.9737
 1939TIP3    H227233   0.353   4.393  11.532  0.3829 -2.1865  0.4689
 1940TIP3   OH227234   6.507   3.735  17.009  0.5139 -0.5031  0.3847
 1940TIP3    H127235   6.520   3.779  16.925 -0.1332 -0.4335  0.3124
 1940TIP3    H227236   6.454   3.658  16.988  1.1810 -1.0328  0.5898
 1941TIP3   OH227237   0.062   2.624   2.546 -0.5057  0.5590  0.0766
 1941TIP3    H127238   0.100   2.667   2.622  0.0283  0.3942 -0.0841
 1941TIP3    H227239   0.093   2.676   2.471  1.1737 -0.7625 -0.2156
 1942TIP3   OH227240   5.826   2.234  16.989 -0.6406  0.2893 -0.3072
 1942TIP3    H127241   5.804   2.246  16.897 -2.1090  3.2421  0.3151
 1942TIP3    H227242   5.742   2.230  17.034 -0.0170  2.2413  1.1957
 1943TIP3   OH227243   1.607   5.737  17.128  0.1060  0.5502  0.0957
 1943TIP3    H127244   1.651   5.723  17.211 -1.3403 -0.9386  0.6600
 1943TIP3    H227245   1.603   5.832  17.118  0.2882  0.7475  1.7451
 1944TIP3   OH227246   3.336   5.923  16.327  0.6303  0.3760 -0.0234
 1944TIP3    H127247   3.273   5.893  16.393  0.7320 -0.2154 -0.1956
 1944TIP3    H227248   3.385   5.845  16.303  1.0495  0.7259 -0.3099
 1945TIP3   OH227249   1.049   1.536  17.028 -0.3520 -0.1068 -0.1682
 1945TIP3    H127250   1.126   1.548  16.973  0.0609  1.7056  0.7272
 1945TIP3    H227251   0.975   1.537  16.967 -0.0643  3.5894 -0.6774
 1946TIP3   OH227252   4.922   4.106  12.709 -0.0389 -0.1130  0.4116
 1946TIP3    H127253   4.861   4.055  12.763  1.4722 -1.4654  0.9203
 1946TIP3    H227254   4.963   4.042  12.652  2.9201  0.1747  1.9921
 1947TIP3   OH227255   5.711   2.700   5.718  0.3705 -0.3291  0.4874
 1947TIP3    H127256   5.799   2.699   5.681  1.1864 -1.8068  2.3341
 1947TIP3    H227257   5.689   2.607   5.730 -0.6470  0.0512  1.8061
 1948TIP3   OH227258   1.078   6.686  11.305  0.1455 -0.1617 -0.2232
 1948TIP3    H127259   1.080   6.767  11.254 -0.5159 -0.4310 -0.6873
 1948TIP3    H227260   1.115   6.619  11.246  0.1854 -0.3031 -0.0398
 1949TIP3   OH227261   4.635   3.961   0.563 -0.3167 -0.0790  0.0547
 1949TIP3    H127262   4.575   4.035   0.551 -2.5074 -1.7121  0.3925
 1949TIP3    H227263   4.579   3.884   0.563  1.8843 -1.7866 -0.2553
 1950TIP3   OH227264   0.142   0.936  15.924 -0.3060  0.4327  0.2368
 1950TIP3    H127265   0.076   0.875  15.957  0.6757 -0.6279  0.2724
 1950TIP3    H227266   0.212   0.934  15.989  0.6277  0.0517 -0.7416
 1951TIP3   OH227267   3.046   1.065  13.818  0.2818  0.1690 -0.0364
 1951TIP3    H127268   3.122   1.115  13.789  0.2445  0.8602  1.0003
 1951TIP3    H227269   2.992   1.129  13.865 -2.0198  0.2224 -2.5692
 1952TIP3   OH227270   4.619   4.011  11.613 -0.1856 -0.3345  0.0109
 1952TIP3    H127271   4.655   3.964  11.538  2.1276  0.8998  0.2587
 1952TIP3    H227272   4.649   3.962  11.689 -1.4229 -0.8361  0.2114
 1953TIP3   OH227273   5.495   6.306   2.425 -0.0139  0.3461 -0.7597
 1953TIP3    H127274   5.418   6.330   2.374  0.3731  1.1771 -0.9607
 1953TIP3    H227275   5.494   6.210   2.426 -0.8337  0.3454 -1.0803
 1954TIP3   OH227276   3.900   5.935   4.427  0.0758 -0.3030 -0.3705
 1954TIP3    H127277   3.928   6.026   4.436  0.6661 -0.4012 -1.0662
 1954TIP3    H227278   3.918   5.896   4.512  0.2201  0.1286 -0.1972
 1955TIP3   OH227279   1.140   6.302   1.077 -0.6098 -0.2224  0.2182
 1955TIP3    H127280   1.108   6.355   1.150 -1.7155 -0.3614 -0.1441
 1955TIP3    H227281   1.231   6.329   1.066 -1.0022  1.2649  0.3511
 1956TIP3   OH227282   0.553   1.434   0.798 -0.3943 -0.4243 -0.1488
 1956TIP3    H127283   0.563   1.529   0.800 -0.2473 -0.4470  0.7963
 1956TIP3    H227284   0.622   1.404   0.739  0.2971 -0.0182  0.4379
 1957TIP3   OH227285   0.996   3.029  16.616  0.1132  0.3890  0.3174
 1957TIP3    H127286   1.024   3.032  16.524  1.7403  0.0396  0.7601
 1957TIP3    H227287   1.014   2.939  16.643  0.5994  0.7578  1.2471
 1958TIP3   OH227288   5.331   4.890  17.242  0.3832 -0.1244  0.3657
 1958TIP3    H127289   5.332   4.972  17.291  0.3264  0.6898 -0.9634
 1958TIP3    H227290   5.282   4.910  17.162  1.7715 -0.9766 -0.7516
 1959TIP3   OH227291   6.230   6.470  15.609  0.0242 -0.0300  0.6230
 1959TIP3    H127292   6.246   6.561  15.585  0.4014 -0.2809 -0.1136
 1959TIP3    H227293   6.248   6.466  15.703 -0.2830  0.7103  0.7226
 1960TIP3   OH227294   5.149   5.482   0.503 -0.0763  0.0905  0.4027
 1960TIP3    H127295   5.198   5.503   0.424  0.6332 -0.5352  0.6717
 1960TIP3    H227296   5.157   5.387   0.512  0.7702  0.2753  1.8183
 1961TIP3   OH227297   0.656   5.154  12.321  0.1567  0.2844  0.1463
 1961TIP3    H127298   0.653   5.127  12.412 -1.2945 -0.3459 -0.0518
 1961TIP3    H227299   0.726   5.102  12.282  1.2413  1.0543  1.0254
 1962TIP3   OH227300   2.515   6.557  16.076 -0.0406 -0.4497 -0.1422
 1962TIP3    H127301   2.561   6.514  16.003 -0.2915 -1.6272  0.3781
 1962TIP3    H227302   2.571   6.543  16.152 -0.8955 -1.2669  0.3545
 1963TIP3   OH227303   6.056   1.996   5.788  0.4804 -0.5360  0.4382
 1963TIP3    H127304   6.034   1.935   5.857  1.2191 -1.8821 -0.4776
 1963TIP3    H227305   6.019   1.958   5.709  0.7907  0.2990 -0.1289
 1964TIP3   OH227306   4.594   4.804  11.441  0.2819  0.3278  0.1607
 1964TIP3    H127307   4.687   4.824  11.447  0.7024 -1.1053 -1.0463
 1964TIP3    H227308   4.557   4.878  11.393  1.5062 -0.7937 -2.7427
 1965TIP3   OH227309   0.391   0.825   1.187  0.4852  0.3440 -0.0737
 1965TIP3    H127310   0.359   0.905   1.229  0.4645  0.0605  0.4600
 1965TIP3    H227311   0.312   0.783   1.152  0.2391 -0.3659  1.2641
 1966TIP3   OH227312   3.481   3.479   1.089 -0.4548 -0.1746 -0.2513
 1966TIP3    H127313   3.394   3.476   1.049 -0.7033 -1.5901  0.3706
 1966TIP3    H227314   3.530   3.541   1.034 -1.6129  0.0556 -1.0578
 1967TIP3   OH227315   1.358   2.865  15.812  0.4581 -0.2805  0.3281
 1967TIP3    H127316   1.374   2.923  15.737 -2.1147 -1.0107 -0.9118
 1967TIP3    H227317   1.266   2.878  15.833 -0.2352 -3.6987  0.0747
 1968TIP3   OH227318   1.971   6.592  11.663 -0.1047  0.8214 -0.2348
 1968TIP3    H127319   1.983   6.498  11.656  0.4164  0.8498  0.2428
 1968TIP3    H227320   1.885   6.608  11.623  0.1428  0.2483 -1.0330
 1969TIP3   OH227321   2.555   0.594  13.760 -0.1210 -0.0151  0.5559
 1969TIP3    H127322   2.603   0.543  13.825  0.8692  0.8324  0.5173
 1969TIP3    H227323   2.490   0.642  13.811  0.1057  0.0148  0.8199
 1970TIP3   OH227324   6.400   6.578  16.594  0.1085  0.2008 -0.6204
 1970TIP3    H127325   6.475   6.616  16.640  0.7042 -0.5961 -0.8928
 1970TIP3    H227326   6.334   6.647  16.593  1.1907  1.2545 -1.2050
 1971TIP3   OH227327   1.027   5.917  11.121 -0.0703  0.5919  0.6360
 1971TIP3    H127328   0.982   6.001  11.129  0.0008  0.6530  0.4124
 1971TIP3    H227329   0.963   5.852  11.149 -0.4813  0.6326 -0.1745
 1972TIP3   OH227330   5.845   4.450  13.843  0.4842  0.1180 -0.7559
 1972TIP3    H127331   5.837   4.428  13.750  0.1941 -1.3216 -0.4179
 1972TIP3    H227332   5.784   4.390  13.886  0.8475  0.5625  0.3921
 1973TIP3   OH227333   5.375   5.549   3.277  0.1783  0.3429 -0.0286
 1973TIP3    H127334   5.299   5.551   3.220  0.5630  2.0826 -0.5486
 1973TIP3    H227335   5.374   5.462   3.316 -2.7786  0.7105  0.9636
 1974TIP3   OH227336   0.692   5.338   5.252 -0.2658  0.5511 -0.9209
 1974TIP3    H127337   0.626   5.389   5.299  0.4868 -0.6786  1.6493
 1974TIP3    H227338   0.658   5.249   5.252  0.8162  0.1326 -0.7024
 1975TIP3   OH227339   4.465   3.668   4.992  0.0541 -0.3928  0.5012
 1975TIP3    H127340   4.545   3.618   4.979  0.8799  0.6238  1.3962
 1975TIP3    H227341   4.472   3.700   5.082 -1.1373  0.1048  0.4327
 1976TIP3   OH227342   0.128   5.683   0.370  0.6614 -0.1622  0.6573
 1976TIP3    H127343   0.158   5.605   0.324 -0.9706  0.0817 -0.9112
 1976TIP3    H227344   0.176   5.755   0.330 -1.6546  0.2017 -1.6962
 1977TIP3   OH227345   6.136   1.003  12.061  0.2815  0.2285 -0.2671
 1977TIP3    H127346   6.096   0.931  12.109 -0.3921  1.5219  1.1932
 1977TIP3    H227347   6.220   1.017  12.104 -0.6775  1.9335  1.1913
 1978TIP3   OH227348   1.370   3.806   3.351  0.0523 -0.0751  0.2600
 1978TIP3    H127349   1.462   3.830   3.341  0.0321  0.1355  0.5643
 1978TIP3    H227350   1.369   3.741   3.421  0.0567 -0.6584 -0.2715
 1979TIP3   OH227351   1.987   5.523   4.852 -0.1780  0.0708  0.2480
 1979TIP3    H127352   2.068   5.529   4.801  0.0748  0.3234  0.6795
 1979TIP3    H227353   2.015   5.531   4.943 -0.7284  0.5411  0.3822
 1980TIP3   OH227354   0.336   4.383   5.720  0.0681  0.5792  0.0312
 1980TIP3    H127355   0.413   4.437   5.735  0.1464  0.5083 -0.1132
 1980TIP3    H227356   0.306   4.358   5.807  2.0211 -2.0241  0.0599
 1981TIP3   OH227357   2.084   0.973  11.856 -0.1216  0.6194  0.5623
 1981TIP3    H127358   2.170   1.015  11.856  0.1773  0.1424 -1.6293
 1981TIP3    H227359   2.086   0.916  11.779 -2.5228  0.8229  0.2908
 1982TIP3   OH227360   4.800   2.014  13.107 -0.3867  0.6319 -0.1131
 1982TIP3    H127361   4.884   2.013  13.061  0.4520 -2.4464  1.2105
 1982TIP3    H227362   4.814   2.070  13.183  0.7764 -0.4813  0.5197
 1983TIP3   OH227363   3.351   4.723   4.905  0.1406 -0.0396 -0.3395
 1983TIP3    H127364   3.259   4.748   4.899  0.1709 -0.2104 -1.9057
 1983TIP3    H227365   3.353   4.650   4.967 -1.2577 -2.0873 -2.5235
 1984TIP3   OH227366   5.475   0.374  12.957  0.6103  0.1423  0.4781
 1984TIP3    H127367   5.553   0.328  12.988 -0.8624 -2.9314 -0.0088
 1984TIP3    H227368   5.447   0.326  12.879 -1.5338  1.4147  0.3607
 1985TIP3   OH227369   4.395   5.783   5.721  0.2162 -0.6059 -0.0086
 1985TIP3    H127370   4.479   5.769   5.678 -0.2158  0.3374 -1.1957
 1985TIP3    H227371   4.354   5.696   5.722  0.1897 -0.6396 -1.6343
 1986TIP3   OH227372   1.927   0.717   1.900  0.2264  0.8244 -0.0433
 1986TIP3    H127373   1.835   0.743   1.904  0.0227  0.8138 -2.6159
 1986TIP3    H227374   1.939   0.689   1.809  2.8996  1.2876  0.0953
 1987TIP3   OH227375   2.406   6.366  13.598  0.2482  0.5807  0.6195
 1987TIP3    H127376   2.312   6.381  13.583 -0.0102 -2.3273 -1.5885
 1987TIP3    H227377   2.409   6.283  13.646  1.6820  0.0025 -0.4204
 1988TIP3   OH227378   2.067   5.059  13.411  0.5277  0.0939 -0.1042
 1988TIP3    H127379   2.142   5.008  13.378  1.4124  0.1089  1.7473
 1988TIP3    H227380   1.992   5.000  13.403  0.4484  0.4243 -2.9543
 1989TIP3   OH227381   4.971   4.247   3.091  0.3067  0.2823 -0.7188
 1989TIP3    H127382   4.928   4.170   3.127 -0.0561  0.8078 -0.0042
 1989TIP3    H227383   5.039   4.212   3.034  0.8254 -0.5899  0.3887
 1990TIP3   OH227384   2.549   2.981   1.673 -0.0793 -0.0668 -0.2258
 1990TIP3    H127385   2.486   2.959   1.741  0.4969  1.4211  0.8471
 1990TIP3    H227386   2.610   2.908   1.673  1.1673  0.8343  2.4675
 1991TIP3   OH227387   1.577   5.956   0.014 -0.2736  0.4358  0.5328
 1991TIP3    H127388   1.645   5.890   0.003  0.0708  0.9051 -0.2326
 1991TIP3    H227389   1.518   5.942  -0.059  0.7984  2.1223 -0.7340
 1992TIP3   OH227390   1.110   1.014  16.073 -0.0596 -0.0903 -0.1194
 1992TIP3    H127391   1.176   1.004  16.142 -0.4347  1.9194  0.5882
 1992TIP3    H227392   1.146   1.080  16.015 -0.2175 -1.0239 -1.3122
 1993TIP3   OH227393   4.388   1.009   3.171  0.4725 -0.1544  0.2216
 1993TIP3    H127394   4.456   0.985   3.108 -0.0746  0.1338 -0.4883
 1993TIP3    H227395   4.418   1.091   3.209 -0.6478  1.3355 -1.9239
 1994TIP3   OH227396   4.201   1.899  15.551  0.2272 -0.4914  0.0468
 1994TIP3    H127397   4.161   1.844  15.618 -0.0306  0.3045  0.5596
 1994TIP3    H227398   4.261   1.955  15.600 -0.3846  0.4919 -0.3092
 1995TIP3   OH227399   5.283   2.800   5.468 -0.7553 -0.4866 -0.6418
 1995TIP3    H127400   5.359   2.841   5.426 -1.8863  0.5592 -1.7917
 1995TIP3    H227401   5.209   2.826   5.412 -2.2002  0.0241  1.3874
 1996TIP3   OH227402   5.892   1.467   4.753  0.6422 -0.0214 -1.0571
 1996TIP3    H127403   5.880   1.539   4.692 -2.0491  1.6772  1.2721
 1996TIP3    H227404   5.959   1.497   4.813  0.4140  0.0003 -0.8142
 1997TIP3   OH227405   6.548   0.130  14.321  0.5729 -0.5812  0.0001
 1997TIP3    H127406   6.455   0.134  14.346  0.2210  0.4199 -1.2957
 1997TIP3    H227407   6.568   0.037  14.317 -0.3447 -0.8122  0.4226
 1998TIP3   OH227408   3.528   4.063  13.165 -0.1578  0.0522  0.5678
 1998TIP3    H127409   3.509   4.155  13.146 -1.7849 -0.3539  0.0683
 1998TIP3    H227410   3.456   4.015  13.124  0.4128 -1.4196  1.2309
 1999TIP3   OH227411   0.526   3.646   2.643  0.1409 -0.0142 -0.4877
 1999TIP3    H127412   0.510   3.738   2.666  2.1381  0.0008  1.1190
 1999TIP3    H227413   0.600   3.648   2.583 -0.9098 -0.5121 -1.8511
 2000TIP3   OH227414   6.061   4.587   3.077  0.5147  0.4043  1.0161
 2000TIP3    H127415   6.077   4.682   3.079  1.4982  0.2645  0.5227
 2000TIP3    H227416   5.991   4.576   3.014  0.8430  0.7605  0.5799
 2001TIP3   OH227417   3.533   0.631  15.704  0.2916 -0.2691  0.3065
 2001TIP3    H127418   3.599   0.656  15.770  0.2405  2.1026 -0.4312
 2001TIP3    H227419   3.470   0.703  15.706 -0.4068 -0.7849 -1.4290
 2002TIP3   OH227420   2.974   3.653   0.047  0.4010 -0.1067  0.2892
 2002TIP3    H127421   2.976   3.645  -0.048  0.6839  0.9490  0.1980
 2002TIP3    H227422   2.947   3.566   0.077 -0.7129 -0.1679 -0.7933
 2003TIP3   OH227423   5.108   3.735  17.248 -0.2454  0.7962 -0.1355
 2003TIP3    H127424   5.180   3.762  17.304 -0.5335  2.2601 -0.4346
 2003TIP3    H227425   5.101   3.803  17.182 -0.5709 -0.3772 -1.3675
 2004TIP3   OH227426   2.889   2.092   4.275 -0.0876 -0.0301 -0.1865
 2004TIP3    H127427   2.872   2.161   4.338 -0.5933 -1.2119  1.0311
 2004TIP3    H227428   2.943   2.028   4.323  0.8452 -0.2352 -1.4431
 2005TIP3   OH227429   3.404   1.239  16.416 -0.0034  0.3340 -0.0779
 2005TIP3    H127430   3.486   1.205  16.380 -0.4135 -0.6878 -0.0961
 2005TIP3    H227431   3.349   1.255  16.340  0.2393  1.2006 -0.0771
 2006TIP3   OH227432   0.184   2.235  14.790  0.8704 -0.5739 -0.0746
 2006TIP3    H127433   0.274   2.226  14.820  0.4704 -0.5509  1.1969
 2006TIP3    H227434   0.172   2.162  14.729  1.5831 -0.9128  0.1749
 2007TIP3   OH227435   6.478   1.872  11.749 -0.8663 -0.1206 -0.0740
 2007TIP3    H127436   6.429   1.939  11.796 -0.4365 -0.8339  1.4478
 2007TIP3    H227437   6.569   1.885  11.776 -0.6624 -0.8008 -0.3962
 2008TIP3   OH227438   1.687   1.907  11.904 -0.2990 -0.2018  0.2669
 2008TIP3    H127439   1.640   1.823  11.900 -0.5484 -0.0330 -0.5811
 2008TIP3    H227440   1.681   1.933  11.996 -1.1284 -0.6111  0.3428
 2009TIP3   OH227441   2.467   1.848   2.840 -0.2500  0.2145 -0.1366
 2009TIP3    H127442   2.559   1.863   2.861 -0.7139  0.0290  2.3424
 2009TIP3    H227443   2.420   1.917   2.886 -1.4944 -1.1416  0.7285
 2010TIP3   OH227444   4.112   5.345  14.102 -0.1107 -0.3783 -0.1473
 2010TIP3    H127445   4.198   5.359  14.141 -0.6269 -0.3349  1.0006
 2010TIP3    H227446   4.127   5.354  14.007  0.6418  2.5503  0.1410
 2011TIP3   OH227447   4.026   0.528  15.349 -0.0014 -0.2407 -0.4841
 2011TIP3    H127448   3.940   0.497  15.377  0.6170 -0.3202  1.5065
 2011TIP3    H227449   4.076   0.448  15.331  0.2847 -0.2840  0.4509
 2012TIP3   OH227450   5.453   3.223  16.804  0.0468  0.2317 -0.3846
 2012TIP3    H127451   5.536   3.198  16.844  1.0905  2.8710 -0.6839
 2012TIP3    H227452   5.394   3.150  16.822  0.8986  0.4238  4.3857
 2013TIP3   OH227453   3.065   6.604   1.576 -0.4195  0.1654 -1.2099
 2013TIP3    H127454   3.101   6.547   1.508  1.7397  0.1161 -0.1342
 2013TIP3    H227455   2.992   6.554   1.613  0.1682 -1.0405 -1.6087
 2014TIP3   OH227456   1.861   4.981   2.976  0.3612  0.6905  0.0439
 2014TIP3    H127457   1.919   5.036   2.924  0.3558 -0.6633 -1.4707
 2014TIP3    H227458   1.842   4.906   2.920  0.3990 -0.8948  2.0401
 2015TIP3   OH227459   3.552   3.613  11.931 -0.1554  0.6059  0.2970
 2015TIP3    H127460   3.541   3.667  12.009 -0.3540  0.2147  0.5408
 2015TIP3    H227461   3.600   3.536  11.961  0.7670  0.9712 -0.1944
 2016TIP3   OH227462   1.462   2.907  11.881  0.2304  0.4558 -0.5867
 2016TIP3    H127463   1.522   2.961  11.932  0.2635  1.1991 -1.3714
 2016TIP3    H227464   1.505   2.822  11.874 -0.3209 -0.0692  1.6075
 2017TIP3   OH227465   0.359   0.799   4.462  0.7296  0.0330 -0.2182
 2017TIP3    H127466   0.282   0.825   4.512  1.3178  0.9890  0.2295
 2017TIP3    H227467   0.347   0.840   4.377  0.7038  0.1006 -0.1816
 2018TIP3   OH227468   6.328   2.054  14.120  0.0409  0.6075  0.4074
 2018TIP3    H127469   6.270   2.074  14.046  1.4450  0.0506 -0.8841
 2018TIP3    H227470   6.337   2.138  14.165 -1.2679  0.8389  0.2908
 2019TIP3   OH227471   2.945   1.762  16.756 -0.3371 -0.1641  0.2443
 2019TIP3    H127472   2.926   1.758  16.662 -0.6362  0.3738  0.2815
 2019TIP3    H227473   3.041   1.764  16.760 -0.3335  1.4039 -0.1251
 2020TIP3   OH227474   0.690   6.573   3.502  0.0755  0.3872 -0.0843
 2020TIP3    H127475   0.673   6.633   3.574  0.0187  1.0488 -0.6324
 2020TIP3    H227476   0.718   6.492   3.544  1.0710  1.0857  0.6564
 2021TIP3   OH227477   2.290   5.386  16.152 -0.1128  0.6213  0.1070
 2021TIP3    H127478   2.356   5.322  16.123 -0.1619  0.5778  0.0886
 2021TIP3    H227479   2.233   5.397  16.076  0.5399  1.5286 -0.2554
 2022TIP3   OH227480   5.356   5.397  14.044  0.3060  0.5109 -0.2861
 2022TIP3    H127481   5.449   5.394  14.069  0.2035 -0.1382  0.0493
 2022TIP3    H227482   5.311   5.429  14.121  0.2385  0.7029 -0.4061
 2023TIP3   OH227483   1.028   5.891  14.434  0.0317  0.2598  0.0260
 2023TIP3    H127484   0.991   5.810  14.470  0.2613  0.0020 -0.3196
 2023TIP3    H227485   1.107   5.863  14.388 -0.7814  0.4523 -1.5422
 2024TIP3   OH227486   3.580   4.884   3.685 -0.1322  0.0223 -0.3053
 2024TIP3    H127487   3.523   4.960   3.695  0.1592  0.1684  0.3522
 2024TIP3    H227488   3.546   4.819   3.748 -0.2521 -0.3086 -0.7098
 2025TIP3   OH227489   3.390   0.031   1.905  0.1588  0.0650  0.0290
 2025TIP3    H127490   3.310  -0.022   1.902  0.7508 -0.8772  0.3665
 2025TIP3    H227491   3.391   0.068   1.994 -0.1684  0.5140 -0.1512
 2026TIP3   OH227492   5.679   0.624   3.619 -0.5099 -0.0599 -0.3882
 2026TIP3    H127493   5.691   0.701   3.675 -0.5655  0.1906 -0.7180
 2026TIP3    H227494   5.757   0.570   3.635 -0.1705  0.3598 -0.6234
 2027TIP3   OH227495   2.617   1.558   4.005  0.3014  0.3304 -0.0597
 2027TIP3    H127496   2.552   1.583   4.071  0.5818  0.1513  0.2911
 2027TIP3    H227497   2.594   1.468   3.982  1.9701 -0.7383  2.0300
 2028TIP3   OH227498   1.387   4.711  16.322  0.2601  0.5716  0.0781
 2028TIP3    H127499   1.336   4.674  16.250 -0.6003  0.1347  0.9002
 2028TIP3    H227500   1.476   4.719  16.286 -0.0882  0.0817 -0.9305
 2029TIP3   OH227501   0.451   2.451   1.887 -0.2639 -0.4376 -0.0668
 2029TIP3    H127502   0.425   2.456   1.795  1.6577 -2.4331 -0.7888
 2029TIP3    H227503   0.443   2.358   1.910  0.9544 -0.2523  1.2589
 2030TIP3   OH227504   1.129   5.298   4.450 -0.1806 -0.0876  0.5914
 2030TIP3    H127505   1.142   5.237   4.377  0.3565 -1.6032  1.8858
 2030TIP3    H227506   1.034   5.309   4.456 -0.2061  2.0172 -1.8058
 2031TIP3   OH227507   1.012   1.770   1.894 -0.1165 -0.8371 -0.6040
 2031TIP3    H127508   1.081   1.753   1.830 -0.6430 -0.8524 -1.1777
 2031TIP3    H227509   1.058   1.776   1.977  0.3934 -2.7526 -0.6913
 2032TIP3   OH227510   2.488   0.754   5.307  0.4348  0.8312  0.1970
 2032TIP3    H127511   2.501   0.732   5.399  0.6453  1.4099  0.3059
 2032TIP3    H227512   2.425   0.826   5.308 -0.1664  0.3226 -0.1536
 2033TIP3   OH227513   3.673   5.736   5.663  0.1341  0.2183 -0.0623
 2033TIP3    H127514   3.733   5.740   5.737 -0.3127 -1.8300  0.4733
 2033TIP3    H227515   3.586   5.740   5.702 -0.1214  1.4630 -0.6957
 2034TIP3   OH227516   0.930   0.842   1.952 -0.1454 -0.0656  0.7558
 2034TIP3    H127517   0.838   0.857   1.977  0.2331  0.8421  1.6689
 2034TIP3    H227518   0.967   0.793   2.026  1.1382  3.1418  2.4058
 2035TIP3   OH227519   0.451   0.304   2.975  0.4477  0.1986 -0.0495
 2035TIP3    H127520   0.518   0.251   2.931 -0.9518 -0.4771 -1.4616
 2035TIP3    H227521   0.391   0.330   2.905 -2.1661 -1.3032  1.4892
 2036TIP3   OH227522   4.262   6.010  12.062 -0.1340  0.2567  0.4692
 2036TIP3    H127523   4.335   5.976  12.113  1.2788 -0.7377 -2.0410
 2036TIP3    H227524   4.234   6.088  12.109  1.5540 -0.1672  2.3033
 2037TIP3   OH227525   3.293   3.361  16.287  0.2047  0.5145 -0.5838
 2037TIP3    H127526   3.365   3.303  16.262  0.7552  1.2992 -0.8588
 2037TIP3    H227527   3.321   3.448  16.259 -0.3933  0.9945  0.2427
 2038TIP3   OH227528   1.122   4.363  17.019  0.0097  0.2939 -0.0272
 2038TIP3    H127529   1.079   4.279  17.035  0.7058 -0.4431 -1.7679
 2038TIP3    H227530   1.211   4.340  16.993  0.0506  1.5299 -1.0881
 2039TIP3   OH227531   0.822   0.286   5.137  0.8405  0.0116  0.5979
 2039TIP3    H127532   0.735   0.249   5.123  0.2384  1.4894  0.1271
 2039TIP3    H227533   0.845   0.324   5.052  3.2149 -2.7612 -0.1262
 2040TIP3   OH227534   4.324   0.954   0.559 -0.6530 -0.0583 -0.2456
 2040TIP3    H127535   4.261   0.892   0.523 -1.4567  0.2044  0.6598
 2040TIP3    H227536   4.409   0.926   0.524 -1.2240 -0.6251 -1.2102
 2041TIP3   OH227537   6.130   4.935   3.935  0.6210  0.1172 -0.0403
 2041TIP3    H127538   6.096   5.019   3.967  5.2592  1.5050  2.1640
 2041TIP3    H227539   6.131   4.879   4.013  0.3436 -0.9840 -0.8101
 2042TIP3   OH227540   1.362   3.103   4.804  0.5359 -0.5432 -0.0470
 2042TIP3    H127541   1.413   3.039   4.754  2.5819  1.1419 -0.2422
 2042TIP3    H227542   1.416   3.124   4.879  0.2298  1.4083 -0.3176
 2043TIP3   OH227543   5.479   3.661  15.817  0.2161 -0.2444  0.6125
 2043TIP3    H127544   5.443   3.620  15.896 -2.3708  1.3629  0.3944
 2043TIP3    H227545   5.520   3.742  15.848  1.6850 -0.9494  0.5806
 2044TIP3   OH227546   2.361   6.586   2.028 -0.0377  0.4398 -0.3812
 2044TIP3    H127547   2.393   6.576   2.118 -1.0162  1.1181  0.0589
 2044TIP3    H227548   2.438   6.615   1.978  0.8346 -1.1557 -0.0460
 2045TIP3   OH227549   1.231   4.246   0.632 -0.6322 -0.0013  0.2389
 2045TIP3    H127550   1.196   4.319   0.581 -0.8471 -0.7151 -0.6662
 2045TIP3    H227551   1.163   4.179   0.627  1.1624 -1.8054 -2.4150
 2046TIP3   OH227552   0.311   3.990   2.115  0.0548  0.2072 -0.1739
 2046TIP3    H127553   0.300   3.902   2.080 -0.6787  1.1011 -2.3800
 2046TIP3    H227554   0.387   4.025   2.067 -0.0748  0.9930  0.1815
 2047TIP3   OH227555   5.631   3.280   1.634  0.0332  0.2026 -0.0712
 2047TIP3    H127556   5.605   3.368   1.660  0.5441  0.5204 -0.6089
 2047TIP3    H227557   5.718   3.268   1.674 -0.0480 -0.0707  0.0255
 2048TIP3   OH227558   0.649   1.565  16.839 -0.2911  0.3788  0.2950
 2048TIP3    H127559   0.643   1.524  16.753 -1.3625  1.8114 -0.3616
 2048TIP3    H227560   0.741   1.587  16.849  0.1716 -1.4088  0.3350
 2049TIP3   OH227561   2.880   0.049  14.857 -0.0429 -0.4335  0.0548
 2049TIP3    H127562   2.936   0.124  14.837 -1.4060  1.0589  1.5493
 2049TIP3    H227563   2.829   0.034  14.778  0.0029  0.4484 -0.1464
 2050TIP3   OH227564   6.726   3.664   2.448 -0.0645  0.1541  0.7585
 2050TIP3    H127565   6.635   3.689   2.431  0.1315 -0.0467 -0.6663
 2050TIP3    H227566   6.778   3.736   2.412  0.3528  0.5269  2.0359
 2051TIP3   OH227567   0.007   0.860   1.918 -0.1528  0.3016 -0.0715
 2051TIP3    H127568   0.045   0.836   1.833  1.8324 -1.1543  1.1577
 2051TIP3    H227569   0.017   0.955   1.922  1.3487  0.1980 -0.7513
 2052TIP3   OH227570   0.822   2.398  16.944  0.2500  0.6569 -0.5422
 2052TIP3    H127571   0.859   2.442  17.021  1.6499 -0.0643 -0.7652
 2052TIP3    H227572   0.741   2.359  16.976  1.1978 -0.3092  0.8143
 2053TIP3   OH227573   5.522   0.039  11.436  0.4643 -0.2752 -0.5628
 2053TIP3    H127574   5.613   0.054  11.411  1.4422 -3.0582  0.8470
 2053TIP3    H227575   5.527  -0.032  11.501 -2.5044  1.2743  1.5742
 2054TIP3   OH227576   4.489   4.909   3.618  0.5555  0.7220 -0.2088
 2054TIP3    H127577   4.466   4.912   3.525 -2.6814  1.7290  0.4962
 2054TIP3    H227578   4.468   4.996   3.652 -1.3157 -0.4841  2.0182
 2055TIP3   OH227579   3.226   1.090  16.532 -0.1607 -0.1847  0.0014
 2055TIP3    H127580   3.287   1.146  16.484  1.0301 -0.4379  1.1778
 2055TIP3    H227581   3.237   1.004  16.492 -2.6942  0.4807 -2.4716
 2056TIP3   OH227582   2.690   2.448   5.139 -0.3119 -0.1426  0.3288
 2056TIP3    H127583   2.738   2.368   5.120  0.8359  1.0980 -2.5968
 2056TIP3    H227584   2.689   2.453   5.235  3.2667 -1.5309  0.5948
 2057TIP3   OH227585   6.219   6.090   3.865 -0.0048 -0.0001  0.8006
 2057TIP3    H127586   6.236   6.180   3.891 -0.7437  0.5435 -0.4875
 2057TIP3    H227587   6.123   6.085   3.856  0.1532 -0.1881 -1.4561
 2058TIP3   OH227588   6.577   2.065   0.331  0.1040 -0.6645  0.0668
 2058TIP3    H127589   6.518   2.135   0.358 -0.2326 -1.0397  0.2947
 2058TIP3    H227590   6.521   1.989   0.317  0.3698 -0.6962 -0.9130
 2059TIP3   OH227591   3.877   3.430  15.531 -0.4706 -0.4182  0.0514
 2059TIP3    H127592   3.936   3.469  15.466  1.6213 -2.1320  0.7911
 2059TIP3    H227593   3.922   3.444  15.614 -1.6713 -0.8319  0.7793
 2060TIP3   OH227594   5.930   0.517  16.958 -0.0250  0.0802 -0.2969
 2060TIP3    H127595   5.909   0.596  16.908 -3.3855  0.2490  1.1102
 2060TIP3    H227596   5.963   0.549  17.042 -1.0516  0.0017  0.1431
 2061TIP3   OH227597   2.868   1.447   0.676  0.2152 -0.2482 -0.2772
 2061TIP3    H127598   2.778   1.423   0.657  0.6264 -0.3623 -2.2670
 2061TIP3    H227599   2.898   1.381   0.739 -1.5202  0.7248  1.7082
 2062TIP3   OH227600   2.193   5.512  14.072 -0.4001  0.8498 -0.0469
 2062TIP3    H127601   2.159   5.565  14.144  0.0028  0.1636  0.6574
 2062TIP3    H227602   2.288   5.511  14.084 -0.3743  0.2238 -0.2202
 2063TIP3   OH227603   3.753   5.060   1.536 -0.1005  0.3311  0.3619
 2063TIP3    H127604   3.831   5.042   1.484 -0.0340  1.3409  0.0759
 2063TIP3    H227605   3.697   4.984   1.523  1.3273 -0.9909  1.5699
 2064TIP3   OH227606   5.743   5.632   4.331 -0.2735 -0.5587  0.2670
 2064TIP3    H127607   5.783   5.648   4.416 -0.6636  0.1948  0.3187
 2064TIP3    H227608   5.649   5.646   4.345 -0.3995 -0.9074 -0.1763
 2065TIP3   OH227609   1.074   6.473   4.842 -0.3292  0.1617 -0.0286
 2065TIP3    H127610   1.010   6.495   4.909  2.2388  3.2375  1.7011
 2065TIP3    H227611   1.134   6.411   4.885 -0.5886 -0.5963 -0.7242
 2066TIP3   OH227612   5.046   3.688  12.947 -1.1239  0.5863 -0.1282
 2066TIP3    H127613   5.134   3.704  12.981 -1.0634 -2.0319  1.2284
 2066TIP3    H227614   5.057   3.683  12.852  1.0536 -3.3309  0.1371
 2067TIP3   OH227615   3.209   5.146   1.748 -0.1766 -0.0676 -0.6430
 2067TIP3    H127616   3.276   5.117   1.685  0.0394 -1.1231  0.0472
 2067TIP3    H227617   3.134   5.169   1.693  0.6617  0.9352 -1.4188
 2068TIP3   OH227618   0.279   3.097  12.313 -0.1682  0.8795 -0.0604
 2068TIP3    H127619   0.247   3.155  12.244  1.2032  1.2615 -0.4032
 2068TIP3    H227620   0.369   3.075  12.287 -0.8376 -2.0071 -0.3223
 2069TIP3   OH227621   4.929   4.231   5.594 -0.1982 -0.7389  0.2457
 2069TIP3    H127622   4.992   4.167   5.560 -1.3709 -0.7215 -2.1358
 2069TIP3    H227623   4.885   4.185   5.666  0.9571 -1.5574  0.4553
 2070TIP3   OH227624   3.579   2.340  17.331  0.4376  0.0424 -0.4446
 2070TIP3    H127625   3.525   2.261  17.330  0.1872  0.2150 -0.9660
 2070TIP3    H227626   3.600   2.354  17.424  0.0187 -0.3210 -0.2921
 2071TIP3   OH227627   6.389   5.864  17.352 -0.2879 -0.3995 -0.1549
 2071TIP3    H127628   6.423   5.953  17.342  2.3502 -1.1216  1.3693
 2071TIP3    H227629   6.419   5.819  17.273 -0.7942 -0.1925 -0.4707
 2072TIP3   OH227630   3.939   2.676   1.066 -0.4911 -0.5700 -0.2444
 2072TIP3    H127631   3.985   2.646   0.987  0.3597 -2.2620  0.8354
 2072TIP3    H227632   3.851   2.639   1.057 -1.0763  1.0168 -1.3734
 2073TIP3   OH227633   5.782   4.125   5.148 -0.8427 -0.2683 -0.2681
 2073TIP3    H127634   5.702   4.076   5.168 -1.5057  0.5045 -0.9429
 2073TIP3    H227635   5.829   4.070   5.085 -0.2464 -1.2744  1.0129
 2074TIP3   OH227636   4.233   6.192  17.192 -0.1525  0.1804  0.1268
 2074TIP3    H127637   4.227   6.270  17.138 -0.1335 -0.2712 -0.5310
 2074TIP3    H227638   4.216   6.224  17.281 -0.6319  0.8490 -0.1929
 2075TIP3   OH227639   5.991   1.911  12.198 -0.3358  0.1809 -0.1684
 2075TIP3    H127640   6.061   1.957  12.152  1.2845 -0.5762  1.4207
 2075TIP3    H227641   5.997   1.821  12.166 -1.1406  0.2756 -0.6131
 2076TIP3   OH227642   1.909   2.742  16.043 -0.2628 -1.0042  0.1519
 2076TIP3    H127643   1.903   2.820  16.098 -0.9121 -0.9728  0.0460
 2076TIP3    H227644   1.990   2.698  16.071  1.1525  0.6784 -1.0818
 2077TIP3   OH227645   3.763   1.499  12.029  0.2612  0.4296  0.0835
 2077TIP3    H127646   3.704   1.440  11.981  0.8879  0.0820 -0.2687
 2077TIP3    H227647   3.796   1.446  12.101  0.6707  0.4120 -0.1157
 2078TIP3   OH227648   1.682   0.351   3.672 -0.1953  0.1859 -0.1796
 2078TIP3    H127649   1.678   0.343   3.577 -0.8413  2.4335 -0.3815
 2078TIP3    H227650   1.605   0.305   3.704  1.4571 -3.0809 -0.4552
 2079TIP3   OH227651   0.608   1.775  13.840 -0.5431  0.2253  0.0297
 2079TIP3    H127652   0.680   1.715  13.859 -0.6763 -0.0306 -0.2653
 2079TIP3    H227653   0.644   1.862  13.859 -0.4990  0.0238  0.9013
 2080TIP3   OH227654   2.362   4.383  16.566 -0.0902 -0.3222 -0.0995
 2080TIP3    H127655   2.339   4.290  16.570  0.2698 -0.4292 -0.4374
 2080TIP3    H227656   2.312   4.423  16.637  0.4064 -0.9104  0.5916
 2081TIP3   OH227657   0.428   6.096   5.721  0.1475  0.0455 -0.1828
 2081TIP3    H127658   0.373   6.110   5.644  2.3103  0.3859 -1.7691
 2081TIP3    H227659   0.442   6.184   5.757  1.6996  0.3033 -1.3328
 2082TIP3   OH227660   3.926   4.596   5.972 -0.5010 -0.1768 -0.1590
 2082TIP3    H127661   3.963   4.650   6.041  1.6245 -1.7566  0.0571
 2082TIP3    H227662   4.001   4.547   5.937 -1.6376 -0.0915 -3.0070
 2083TIP3   OH227663   0.984   1.990  16.206  0.0363 -0.1635  0.3591
 2083TIP3    H127664   0.970   1.985  16.111  1.2916 -2.3345  0.2423
 2083TIP3    H227665   1.076   2.012  16.215  0.1450 -0.9041  1.0832
 2084TIP3   OH227666   1.506   5.676  11.512 -0.4199 -0.4427  0.2370
 2084TIP3    H127667   1.484   5.755  11.462 -0.2866 -0.5535  0.0012
 2084TIP3    H227668   1.464   5.689  11.597  0.4487  0.3505  0.5593
 2085TIP3   OH227669   1.570   6.494   4.859  0.1762  0.2203  0.1341
 2085TIP3    H127670   1.498   6.461   4.806  0.4030  0.8265 -0.5809
 2085TIP3    H227671   1.564   6.446   4.941 -0.6913 -0.1443 -0.1306
 2086TIP3   OH227672   4.547   1.406   3.677  0.0514  0.7205 -0.3281
 2086TIP3    H127673   4.502   1.387   3.595  0.6472  2.0166 -0.9800
 2086TIP3    H227674   4.485   1.461   3.726  0.3653  1.3740 -0.6509
 2087TIP3   OH227675   3.680   6.132   5.722 -0.0792 -0.0139 -0.3832
 2087TIP3    H127676   3.615   6.190   5.683 -1.0772 -1.0717 -0.3588
 2087TIP3    H227677   3.764   6.173   5.703 -0.7130  1.0245 -1.0269
 2088TIP3   OH227678   2.495   4.455  17.329 -0.1381 -0.7939  0.0643
 2088TIP3    H127679   2.444   4.399  17.386  1.5820 -0.3121  2.2390
 2088TIP3    H227680   2.579   4.466  17.375  0.8394  0.7674 -1.9119
 2089TIP3   OH227681   2.777   1.199  16.188 -0.1359  0.0104 -0.5589
 2089TIP3    H127682   2.742   1.276  16.144 -3.1341 -0.7571  0.2555
 2089TIP3    H227683   2.730   1.125  16.149 -1.3210 -0.8887  2.2729
 2090TIP3   OH227684   3.458   2.822   0.776 -0.2165 -0.5918  0.4254
 2090TIP3    H127685   3.535   2.786   0.732 -0.2648 -0.2670  0.0678
 2090TIP3    H227686   3.389   2.818   0.709 -0.0459  0.8235  0.1318
 2091TIP3   OH227687   0.443   6.301  14.670  0.4999 -0.1974  0.3213
 2091TIP3    H127688   0.494   6.270  14.594  0.0414  0.5213 -0.2931
 2091TIP3    H227689   0.449   6.229  14.733  1.0162 -0.7549 -0.3387
 2092TIP3   OH227690   2.041   3.821  14.595 -0.1537  0.0260  0.4579
 2092TIP3    H127691   2.103   3.882  14.634  0.5801 -0.1435 -0.4144
 2092TIP3    H227692   2.023   3.857  14.509 -1.1638 -0.0137  0.6440
 2093TIP3   OH227693   1.891   1.652   5.539 -0.3926 -0.1729 -0.5009
 2093TIP3    H127694   1.904   1.608   5.456 -0.9414 -0.6980 -0.3131
 2093TIP3    H227695   1.971   1.704   5.552  0.0570 -0.7541 -0.9393
 2094TIP3   OH227696   3.600   4.361  15.594 -0.0448  0.1683 -0.6651
 2094TIP3    H127697   3.693   4.345  15.579  0.1309  1.1030 -0.6028
 2094TIP3    H227698   3.587   4.340  15.687 -0.5292 -2.7565 -1.2681
 2095TIP3   OH227699   6.714   0.864   0.713 -0.5574 -0.3056 -0.5573
 2095TIP3    H127700   6.788   0.921   0.732 -0.1198 -0.7670 -0.8551
 2095TIP3    H227701   6.701   0.813   0.793 -0.7396 -0.0154 -0.4039
 2096TIP3   OH227702   1.437   6.376  14.565 -0.8650 -0.3209 -0.3239
 2096TIP3    H127703   1.387   6.403  14.642  1.0988 -1.5329  1.4711
 2096TIP3    H227704   1.528   6.391  14.588 -0.2232 -0.4401 -2.5512
 2097TIP3   OH227705   3.933   5.613  15.424  0.0915 -0.4357  0.6125
 2097TIP3    H127706   3.861   5.603  15.487 -0.2324 -2.9817 -0.0372
 2097TIP3    H227707   4.011   5.588  15.472  0.1454 -0.3125  0.5882
 2098TIP3   OH227708   5.655   3.325  13.939 -0.1041  0.6067 -0.1730
 2098TIP3    H127709   5.563   3.352  13.933 -0.8707 -1.2886  1.5919
 2098TIP3    H227710   5.680   3.304  13.850 -1.5574  0.7148 -0.6334
 2099TIP3   OH227711   2.821   5.043  13.821 -0.1526  0.2647  0.2990
 2099TIP3    H127712   2.914   5.052  13.801  0.0040 -0.0507  0.8675
 2099TIP3    H227713   2.800   4.953  13.799 -0.2017  0.1895  0.6442
 2100TIP3   OH227714   3.159   0.941   0.480  0.0087 -0.5444  0.9952
 2100TIP3    H127715   3.073   0.901   0.496 -0.1292  0.0471  1.8085
 2100TIP3    H227716   3.205   0.935   0.564  1.1053 -1.6348  0.3358
 2101TIP3   OH227717   6.142   3.596  14.533  0.2492 -0.7399  0.3691
 2101TIP3    H127718   6.099   3.511  14.521 -0.9635 -0.1192  0.2135
 2101TIP3    H227719   6.129   3.616  14.626  1.8588 -1.3918  0.7838
 2102TIP3   OH227720   5.431   3.435  11.284 -0.4416 -0.4175 -0.2979
 2102TIP3    H127721   5.454   3.424  11.192 -1.1731  0.5575 -0.6243
 2102TIP3    H227722   5.378   3.515  11.285 -1.1882 -0.9026  0.8436
 2103TIP3   OH227723   4.551   3.425  15.841 -0.1675  0.4648 -0.4563
 2103TIP3    H127724   4.564   3.394  15.751 -0.5257 -0.7658 -0.0860
 2103TIP3    H227725   4.466   3.391  15.867 -1.2126  2.8486 -0.4683
 2104TIP3   OH227726   0.235   0.726  13.095  0.3493 -0.0344  0.6302
 2104TIP3    H127727   0.247   0.636  13.124 -0.8698 -0.3894  0.1047
 2104TIP3    H227728   0.179   0.766  13.162 -2.4398 -0.8444 -1.0665
 2105TIP3   OH227729   3.915   2.802  17.177 -0.0672  0.5151  0.0917
 2105TIP3    H127730   3.894   2.857  17.252 -0.5160  0.2858  0.1361
 2105TIP3    H227731   4.005   2.826  17.154  0.2194  0.3047  0.9490
 2106TIP3   OH227732   4.294   3.541   6.252 -0.5949 -0.5580  0.0344
 2106TIP3    H127733   4.224   3.605   6.266  0.0995  0.9642 -2.6580
 2106TIP3    H227734   4.368   3.574   6.304  0.0054  1.4260 -1.8898
 2107TIP3   OH227735   1.308   6.634   3.092  0.4278  0.5519 -0.2136
 2107TIP3    H127736   1.348   6.699   3.150 -0.3014  1.7926 -1.0478
 2107TIP3    H227737   1.218   6.627   3.124 -0.1931  1.7901 -1.5932
 2108TIP3   OH227738   5.741   2.555   5.047 -0.0545 -0.0072  0.1918
 2108TIP3    H127739   5.793   2.569   5.126  0.2611 -0.4546  0.0713
 2108TIP3    H227740   5.774   2.620   4.985 -0.1658  0.2127  0.3625
 2109TIP3   OH227741   4.451   1.952  12.973  0.3973  0.3770  0.4019
 2109TIP3    H127742   4.438   2.044  12.997  1.6414  0.3050  1.4890
 2109TIP3    H227743   4.405   1.942  12.890 -1.1162  1.5579  1.0553
 2110TIP3   OH227744   6.377   4.730   3.598 -0.4379 -0.0996  0.3009
 2110TIP3    H127745   6.281   4.729   3.608 -0.3742 -0.2508  0.9663
 2110TIP3    H227746   6.398   4.648   3.555 -0.7663  0.7487 -1.5942
 2111TIP3   OH227747   2.612   6.647   5.744 -0.4723  0.0733 -0.6987
 2111TIP3    H127748   2.679   6.678   5.805 -2.3298  2.2432  0.3906
 2111TIP3    H227749   2.573   6.571   5.786  0.6261 -0.6071 -0.8877
 2112TIP3   OH227750   6.673   5.076   4.761  0.6803  0.4334  0.0698
 2112TIP3    H127751   6.584   5.101   4.738  0.6660  0.4005  0.0895
 2112TIP3    H227752   6.724   5.157   4.755  0.7478  0.3578 -0.4353
 2113TIP3   OH227753   5.626   5.562  12.392  0.5071  0.5755  0.4210
 2113TIP3    H127754   5.541   5.526  12.419  0.7462  0.9507  1.7446
 2113TIP3    H227755   5.689   5.494  12.415  0.6566  0.6752  0.3024
 2114TIP3   OH227756   2.881   3.964  14.050 -0.0453 -0.3893 -0.0599
 2114TIP3    H127757   2.892   3.967  13.955  0.4049  1.7615  0.0141
 2114TIP3    H227758   2.941   4.031  14.084 -1.6627  0.3150  1.5817
 2115TIP3   OH227759   5.153   1.123  14.122 -0.7565  0.1240 -0.0000
 2115TIP3    H127760   5.109   1.172  14.192 -0.2008 -1.0514  1.2290
 2115TIP3    H227761   5.240   1.105  14.157 -0.8625 -1.5299 -0.4842
 2116TIP3   OH227762   2.445   1.877   0.768 -0.4192 -0.0956  0.7974
 2116TIP3    H127763   2.418   1.836   0.686 -2.0754 -1.6565  2.0469
 2116TIP3    H227764   2.535   1.847   0.781 -1.1013 -2.3041  0.9393
 2117TIP3   OH227765   5.012   6.049  15.202  0.1776  0.4711  0.0703
 2117TIP3    H127766   4.922   6.061  15.171  0.4803 -0.8490 -1.5199
 2117TIP3    H227767   5.055   6.004  15.129  1.9914  0.6166  1.0159
 2118TIP3   OH227768   0.797   2.230  17.257 -0.1264 -0.1829  0.0395
 2118TIP3    H127769   0.708   2.267  17.257  0.5895  1.7215  1.5184
 2118TIP3    H227770   0.783   2.135  17.247 -2.2397  0.1664 -0.9297
 2119TIP3   OH227771   5.744   2.069  13.972 -0.2002  0.2949 -0.4396
 2119TIP3    H127772   5.747   2.041  14.063  0.6918  1.1553 -0.1899
 2119TIP3    H227773   5.658   2.040  13.941 -0.1351 -0.8424  0.3915
 2120TIP3   OH227774   4.890   5.023  15.397 -0.0107 -0.0609 -0.1372
 2120TIP3    H127775   4.905   4.950  15.336 -3.2128  0.3366 -1.6041
 2120TIP3    H227776   4.894   4.982  15.484  1.0493 -1.3827 -0.7592
 2121TIP3   OH227777   5.419   0.781  13.583  0.0865 -0.2391 -0.6050
 2121TIP3    H127778   5.348   0.816  13.637  0.6370  0.2656 -0.1872
 2121TIP3    H227779   5.405   0.819  13.496 -0.0142  0.0570 -0.4595
 2122TIP3   OH227780   4.964   5.216   2.292  0.5689  0.5461 -0.0946
 2122TIP3    H127781   4.916   5.288   2.250 -2.7009 -0.9998  0.6121
 2122TIP3    H227782   5.055   5.228   2.265 -0.3532  3.0730 -2.5915
 2123TIP3   OH227783   6.276   1.010   3.393 -0.3190 -0.4737  0.3762
 2123TIP3    H127784   6.271   0.961   3.311  1.5789  1.2134 -0.8294
 2123TIP3    H227785   6.229   1.091   3.376  0.9181  0.3208  0.5747
 2124TIP3   OH227786   0.670   0.254   3.803  0.3720 -0.3443  0.5109
 2124TIP3    H127787   0.696   0.199   3.729 -0.2751 -0.9490  0.7139
 2124TIP3    H227788   0.751   0.296   3.832  0.5159  0.5073 -1.0072
 2125TIP3   OH227789   5.768   3.404  10.910  0.4276 -0.0908 -0.1133
 2125TIP3    H127790   5.698   3.468  10.906  1.6743  1.2699 -1.0424
 2125TIP3    H227791   5.824   3.434  10.982 -1.1238 -2.5228  2.3050
 2126TIP3   OH227792   3.664   5.499  14.160  0.0193 -0.0231  0.1419
 2126TIP3    H127793   3.674   5.404  14.150  1.1350  0.1959 -1.1294
 2126TIP3    H227794   3.744   5.527  14.205 -0.4253  0.2987  0.7514
 2127TIP3   OH227795   3.614   4.585   2.128  0.2847 -0.5014 -0.7500
 2127TIP3    H127796   3.621   4.679   2.111 -1.3435  0.2467  2.0471
 2127TIP3    H227797   3.562   4.550   2.056  2.7676  0.2064 -3.0556
 2128TIP3   OH227798   1.359   0.688   1.539 -0.4175  0.5349  0.9063
 2128TIP3    H127799   1.362   0.779   1.570  0.5110  0.6923  0.3900
 2128TIP3    H227800   1.272   0.678   1.501 -0.6223  1.1275  1.2112
 2129TIP3   OH227801   5.872   0.483  12.703 -0.0596  0.7998 -0.1864
 2129TIP3    H127802   5.827   0.453  12.782 -2.5685  3.1016 -0.6215
 2129TIP3    H227803   5.907   0.403  12.664 -3.4314 -1.1667  0.4507
 2130TIP3   OH227804   1.932   6.712  12.397 -0.0091 -0.3970  0.1432
 2130TIP3    H127805   1.894   6.648  12.337 -0.9523 -0.2884  0.6207
 2130TIP3    H227806   1.921   6.796  12.352 -2.3100 -0.0759  1.1741
 2131TIP3   OH227807   5.200   5.345  15.255  0.0814 -0.5447  0.6447
 2131TIP3    H127808   5.118   5.395  15.254  0.7477  0.6293 -0.7573
 2131TIP3    H227809   5.202   5.300  15.171  1.7779  1.1225 -0.3038
 2132TIP3   OH227810   6.537   2.940  14.843  0.9242 -0.1615  0.2903
 2132TIP3    H127811   6.618   2.925  14.891  1.2442  2.0565  0.5012
 2132TIP3    H227812   6.564   2.977  14.759  0.1397  0.8561  0.4668
 2133TIP3   OH227813   4.346   4.020  10.981 -0.6406 -0.1536 -0.3558
 2133TIP3    H127814   4.255   4.021  11.009 -0.4675  1.4789  0.2336
 2133TIP3    H227815   4.341   4.012  10.885 -1.4572  1.2401 -0.4529
 2134TIP3   OH227816   3.891   6.624   2.343 -0.5003  0.2535 -0.3863
 2134TIP3    H127817   3.805   6.651   2.311 -0.6705  0.3570  0.1429
 2134TIP3    H227818   3.937   6.707   2.358 -1.0093  0.2820  1.2037
 2135TIP3   OH227819   1.527   1.402   4.862  0.3137 -0.4324 -0.1635
 2135TIP3    H127820   1.527   1.468   4.793 -3.1669  2.0196  1.8083
 2135TIP3    H227821   1.564   1.446   4.938 -0.2094 -1.4258  0.7048
 2136TIP3   OH227822   5.413   2.261  14.888  0.1917 -0.7401  0.3822
 2136TIP3    H127823   5.467   2.336  14.864 -0.1053 -0.7065 -0.2288
 2136TIP3    H227824   5.323   2.291  14.873  0.0405 -1.0154  0.7247
 2137TIP3   OH227825   2.880   3.558  12.054 -0.5320  0.1107 -0.5438
 2137TIP3    H127826   2.856   3.645  12.085 -0.6506  0.0979 -0.5951
 2137TIP3    H227827   2.866   3.561  11.959  0.2528  0.2832 -0.6594
 2138TIP3   OH227828   4.370   1.076   5.503  0.3952 -0.9663  0.1479
 2138TIP3    H127829   4.293   1.113   5.460  0.9352 -0.4824 -0.4275
 2138TIP3    H227830   4.440   1.138   5.484  0.4065 -0.0869  2.7700
 2139TIP3   OH227831   0.140   5.094  15.424 -0.3394  0.5374  0.0608
 2139TIP3    H127832   0.224   5.092  15.469 -0.9675 -0.6396  1.2662
 2139TIP3    H227833   0.091   5.021  15.462 -1.8137  1.0407 -0.7867
 2140TIP3   OH227834   2.364   3.353  11.329 -0.4001  0.2061  0.3862
 2140TIP3    H127835   2.405   3.268  11.345 -1.9985 -1.0763 -1.8640
 2140TIP3    H227836   2.407   3.412  11.391  2.7524 -1.6192  0.1457
 2141TIP3   OH227837   4.423   5.857   6.282 -0.5755  0.0140  0.6219
 2141TIP3    H127838   4.341   5.808   6.283  0.9299 -2.8983 -1.7934
 2141TIP3    H227839   4.489   5.794   6.311  1.0899  1.6357  0.5553
 2142TIP3   OH227840   0.010   6.684   3.792  0.5288  0.6696  0.3527
 2142TIP3    H127841   0.037   6.736   3.717  0.8709  0.2947  0.2140
 2142TIP3    H227842  -0.083   6.706   3.804  0.4962  0.7990 -0.1204
 2143TIP3   OH227843   3.246   0.659   4.449  0.0927 -0.0310  0.1550
 2143TIP3    H127844   3.207   0.644   4.364  0.2551 -2.5100  0.4604
 2143TIP3    H227845   3.337   0.683   4.430  0.1359 -0.6026 -0.3888
 2144TIP3   OH227846   1.155   3.660   5.463  0.2792  0.1584  0.2117
 2144TIP3    H127847   1.204   3.599   5.407  1.9176  0.2866  1.4196
 2144TIP3    H227848   1.134   3.610   5.541  1.1298  0.9308  0.9669
 2145TIP3   OH227849   5.600   6.233   6.226  0.2775  0.0174 -0.1246
 2145TIP3    H127850   5.512   6.257   6.252  0.2004  0.4464 -0.7584
 2145TIP3    H227851   5.624   6.162   6.285 -1.3793 -1.7048 -1.3638
 2146TIP3   OH227852   0.255   2.449  10.348  0.5641 -0.1391  0.0100
 2146TIP3    H127853   0.196   2.471  10.276 -0.4032 -0.0607  0.7985
 2146TIP3    H227854   0.320   2.391  10.309 -0.1436 -0.3820 -0.8552
 2147TIP3   OH227855   6.669   3.399   1.300  0.0645  0.6938 -0.6246
 2147TIP3    H127856   6.717   3.319   1.279  1.0504  1.1806 -0.2891
 2147TIP3    H227857   6.578   3.371   1.308  0.5831 -0.6899  1.0262
 2148TIP3   OH227858   4.084   6.008   3.491 -0.3529 -0.0624 -0.4544
 2148TIP3    H127859   4.075   5.935   3.552 -1.0120 -0.5325 -1.0853
 2148TIP3    H227860   4.110   5.967   3.408 -1.4871  0.3183 -1.0189
 2149TIP3   OH227861   0.800   3.214  15.485 -0.0118  0.3568  0.1667
 2149TIP3    H127862   0.760   3.246  15.567 -0.8342  0.1361 -0.1332
 2149TIP3    H227863   0.894   3.221  15.500 -0.1491  1.6833  0.6021
 2150TIP3   OH227864   4.201   0.509   5.687 -0.3833  0.3002 -0.0769
 2150TIP3    H127865   4.232   0.428   5.728  0.5757  0.9704  0.5798
 2150TIP3    H227866   4.249   0.514   5.604  0.9072  1.0412  0.6742
 2151TIP3   OH227867   4.530   0.227  11.237  0.1499  0.7624 -0.0978
 2151TIP3    H127868   4.531   0.316  11.201 -0.4303  0.4013 -1.0474
 2151TIP3    H227869   4.617   0.193  11.216  0.6685  1.3590  0.9827
 2152TIP3   OH227870   0.238   0.645  12.267  0.0191  0.1124 -0.0533
 2152TIP3    H127871   0.310   0.611  12.320 -0.1638  1.1940  0.9521
 2152TIP3    H227872   0.273   0.653  12.179  0.5642 -1.0516  0.0449
 2153TIP3   OH227873   5.483   0.383   5.324 -0.1611  0.5909 -0.2880
 2153TIP3    H127874   5.520   0.299   5.350  0.8650  1.2025  0.3223
 2153TIP3    H227875   5.424   0.407   5.396 -1.1668 -0.0080 -0.8861
 2154TIP3   OH227876   0.491   0.098   1.142  0.0294 -0.4000  0.2980
 2154TIP3    H127877   0.433   0.167   1.108  0.5468 -0.2972 -0.4032
 2154TIP3    H227878   0.548   0.143   1.205 -0.2367 -0.3735  0.5200
 2155TIP3   OH227879   6.282   5.982  13.127  0.4202  0.2458  0.1884
 2155TIP3    H127880   6.297   5.960  13.035 -0.4469  0.5110 -0.0300
 2155TIP3    H227881   6.288   6.077  13.130  1.2338  0.1898  0.5660
 2156TIP3   OH227882   2.896   1.640  15.615  0.3332  0.5477  0.1957
 2156TIP3    H127883   2.900   1.733  15.593 -1.0405  0.6452  0.2606
 2156TIP3    H227884   2.855   1.639  15.702  0.9216 -0.0945  0.4713
 2157TIP3   OH227885   4.595   2.257   3.525 -1.1065 -0.0555 -0.0467
 2157TIP3    H127886   4.562   2.332   3.574  0.6581  0.7779 -0.0350
 2157TIP3    H227887   4.597   2.185   3.588 -0.0317  0.6783  0.7960
 2158TIP3   OH227888   2.074   0.363   4.132  0.3547 -0.2143  0.2809
 2158TIP3    H127889   2.162   0.372   4.168 -0.2455  0.3541  1.6862
 2158TIP3    H227890   2.074   0.278   4.089  1.6430 -0.1360  0.0961
 2159TIP3   OH227891   5.328   4.860   1.804 -0.0267 -0.1245 -0.1268
 2159TIP3    H127892   5.310   4.766   1.802 -0.0813 -0.1068 -0.9014
 2159TIP3    H227893   5.417   4.868   1.836 -0.5188 -0.3510  1.3923
 2160TIP3   OH227894   4.382   1.265  15.263 -0.0072  0.0156 -0.1506
 2160TIP3    H127895   4.348   1.175  15.260  1.6043 -0.6153 -0.8397
 2160TIP3    H227896   4.424   1.271  15.349  0.1793 -0.0100 -0.2396
 2161TIP3   OH227897   5.337   4.478  13.827  0.3432  0.6090 -0.0754
 2161TIP3    H127898   5.299   4.482  13.915 -0.5442 -1.2904 -0.3394
 2161TIP3    H227899   5.334   4.569  13.796  0.6784  1.3134  1.8328
 2162TIP3   OH227900   3.014   1.483   1.504 -0.1974  0.0690 -0.7022
 2162TIP3    H127901   2.920   1.475   1.491 -0.1311 -2.7975 -0.0686
 2162TIP3    H227902   3.024   1.551   1.570 -1.9052 -0.4001  0.0895
 2163TIP3   OH227903   4.925   6.296   5.120  0.1680 -0.2924  0.2031
 2163TIP3    H127904   4.831   6.291   5.133  0.4618 -2.0678  2.1364
 2163TIP3    H227905   4.946   6.220   5.065  0.3814  0.7115 -1.1640
 2164TIP3   OH227906   3.736   0.359   2.594  0.2321  0.2368  0.2327
 2164TIP3    H127907   3.757   0.424   2.661  1.3889 -0.0978  0.2223
 2164TIP3    H227908   3.754   0.404   2.511  0.9652 -0.0620  0.2234
 2165TIP3   OH227909   4.814   6.160  11.993 -0.5908  0.0817  0.0940
 2165TIP3    H127910   4.789   6.243  12.035 -1.3059 -0.1017  0.0411
 2165TIP3    H227911   4.765   6.094  12.041 -1.0830 -0.1745 -0.7453
 2166TIP3   OH227912   3.059   5.207  11.982  0.6042 -0.2497  0.1339
 2166TIP3    H127913   3.115   5.208  12.060  2.9525 -1.4875 -1.4122
 2166TIP3    H227914   3.045   5.114  11.964  1.6882 -0.0724 -1.9158
 2167TIP3   OH227915   2.746   1.822   0.512  0.2030 -0.0171 -0.2956
 2167TIP3    H127916   2.760   1.902   0.462  0.7102  0.1333  0.0705
 2167TIP3    H227917   2.674   1.778   0.468 -0.3608  0.8427 -0.2577
 2168TIP3   OH227918   5.969   6.059   1.675  0.5444 -0.1512  0.5988
 2168TIP3    H127919   5.883   6.099   1.688  0.4906 -0.0449 -0.0392
 2168TIP3    H227920   6.026   6.132   1.649  0.2374 -0.6055 -1.4671
 2169TIP3   OH227921   3.564   6.505   2.852  0.5498 -0.2518 -0.2241
 2169TIP3    H127922   3.502   6.433   2.857 -1.4792  1.3657 -0.9881
 2169TIP3    H227923   3.603   6.497   2.765 -2.1877  1.4586 -1.7079
 2170TIP3   OH227924   0.481   1.962  13.375  0.1470  0.6505  0.0994
 2170TIP3    H127925   0.552   1.969  13.310  0.8045  1.5723  0.8801
 2170TIP3    H227926   0.504   1.885  13.426 -1.7617 -1.6892 -2.3109
 2171TIP3   OH227927   0.155   2.252   2.061 -0.6113 -0.6943  0.0674
 2171TIP3    H127928   0.206   2.191   2.114 -0.6957 -2.0395 -1.3460
 2171TIP3    H227929   0.073   2.263   2.109  0.2457  0.0596  1.4270
 2172TIP3   OH227930   5.594   6.118  14.177 -0.1340 -0.0127 -0.5956
 2172TIP3    H127931   5.501   6.123  14.197  0.3542 -0.2043  2.1135
 2172TIP3    H227932   5.615   6.024  14.184  0.3138  0.0579 -0.9285
 2173TIP3   OH227933   4.536   6.724   5.503 -0.7938  0.5238  0.2051
 2173TIP3    H127934   4.519   6.742   5.596  1.0511  0.1677  0.6378
 2173TIP3    H227935   4.449   6.713   5.465 -1.6513  1.9148  1.6255
 2174TIP3   OH227936   3.039   5.958  11.914 -0.4126 -0.1682  0.2601
 2174TIP3    H127937   2.950   5.923  11.920  0.1513 -1.7288 -0.1569
 2174TIP3    H227938   3.087   5.895  11.861  0.9929  0.5702  0.5917
 2175TIP3   OH227939   5.337   1.136  16.756 -0.0871 -0.1325  0.2636
 2175TIP3    H127940   5.425   1.111  16.787  1.6212  1.3428 -2.8956
 2175TIP3    H227941   5.338   1.232  16.760 -1.4709 -0.0952 -0.1226
 2176TIP3   OH227942   3.225   4.291   1.129 -0.1678  0.1098  0.2400
 2176TIP3    H127943   3.318   4.313   1.120  0.0534 -0.0876  1.7896
 2176TIP3    H227944   3.221   4.197   1.112 -0.4046  0.4114 -1.6690
 2177TIP3   OH227945   3.026   2.204  10.565 -0.1593  0.1371  0.8075
 2177TIP3    H127946   3.109   2.180  10.605 -0.5016  0.3421  1.6528
 2177TIP3    H227947   3.028   2.300  10.561 -0.3172  0.1386  0.7466
 2178TIP3   OH227948   4.965   5.098   3.615  0.6132  0.5766  0.1568
 2178TIP3    H127949   4.990   5.181   3.575  1.8812 -0.3119 -0.9534
 2178TIP3    H227950   5.002   5.031   3.558 -1.8536 -0.8162  0.0502
 2179TIP3   OH227951   3.391   1.677  15.133  0.1755 -0.2355 -0.4041
 2179TIP3    H127952   3.382   1.626  15.052  0.6300  0.8311 -1.1455
 2179TIP3    H227953   3.303   1.712  15.149  0.0455 -0.5901 -0.3317
 2180TIP3   OH227954   5.462   2.269  15.476  0.4453  0.3975  0.1709
 2180TIP3    H127955   5.468   2.364  15.466  0.4576  0.3044 -0.7347
 2180TIP3    H227956   5.368   2.251  15.475  0.4640  0.2913 -0.8173
 2181TIP3   OH227957   5.574   4.312   5.691 -0.0097 -0.1187  0.1070
 2181TIP3    H127958   5.611   4.288   5.606  0.2810  2.4766 -0.5776
 2181TIP3    H227959   5.621   4.391   5.717 -2.2593  0.9639  1.1781
 2182TIP3   OH227960   4.445   4.521  12.975 -0.3224 -0.7450  0.5582
 2182TIP3    H127961   4.485   4.569  12.903 -0.0184 -0.4349  0.9303
 2182TIP3    H227962   4.428   4.434  12.939 -0.1079 -0.6140  0.1327
 2183TIP3   OH227963   0.432   5.767  10.902  0.2535 -0.1684 -0.6088
 2183TIP3    H127964   0.385   5.837  10.947  2.1383  0.5590  0.3246
 2183TIP3    H227965   0.414   5.782  10.809  1.0899  1.9417 -0.4811
 2184TIP3   OH227966   0.027   5.953  15.214  0.0602  0.2118 -0.4007
 2184TIP3    H127967   0.099   6.013  15.196  0.0494  0.8031  1.3766
 2184TIP3    H227968  -0.050   5.997  15.179  0.3091  0.4065 -0.7060
 2185TIP3   OH227969   3.253   5.445   4.875 -0.3675 -0.2225 -0.2441
 2185TIP3    H127970   3.307   5.518   4.843  0.6334 -1.1496 -0.7118
 2185TIP3    H227971   3.271   5.373   4.815  1.8102 -2.1255  2.4296
 2186TIP3   OH227972   2.210   0.546   2.178 -0.6109  0.8572 -0.4063
 2186TIP3    H127973   2.190   0.521   2.088  3.3299  2.0733 -1.8006
 2186TIP3    H227974   2.163   0.629   2.189 -1.3119  0.5954 -1.2207
 2187TIP3   OH227975   3.512   5.745   3.957  0.0506 -0.3643 -0.3868
 2187TIP3    H127976   3.503   5.700   3.873 -0.9456 -0.1552 -0.4098
 2187TIP3    H227977   3.544   5.832   3.934 -2.8974  0.7094 -0.8989
 2188TIP3   OH227978   3.867   0.619  13.953  0.0469  0.8755  0.3025
 2188TIP3    H127979   3.941   0.657  14.001  0.5956  0.4332 -0.1685
 2188TIP3    H227980   3.864   0.528  13.982 -0.1600  0.8292  0.1342
 2189TIP3   OH227981   6.048   2.701  16.015 -0.0426  0.1527 -0.1044
 2189TIP3    H127982   6.106   2.658  15.953 -0.3717 -0.1621 -0.2020
 2189TIP3    H227983   6.006   2.770  15.964 -0.1950 -0.0038 -0.1936
 2190TIP3   OH227984   4.480   6.367  13.900  1.0160  0.3073  0.6093
 2190TIP3    H127985   4.556   6.341  13.952  0.5488 -0.3621  0.9761
 2190TIP3    H227986   4.435   6.433  13.953  0.2046 -0.8127  1.3734
 2191TIP3   OH227987   6.332   4.428   1.333 -0.1484 -0.8969 -0.0971
 2191TIP3    H127988   6.334   4.510   1.284  0.2158 -1.2985 -0.7590
 2191TIP3    H227989   6.239   4.414   1.352 -0.6232 -1.9525 -2.7607
 2192TIP3   OH227990   0.965   2.685  12.886 -0.0255  0.1267  0.2751
 2192TIP3    H127991   0.991   2.634  12.963 -0.2053 -1.7922 -0.8734
 2192TIP3    H227992   1.044   2.734  12.862  0.6033 -0.7430  0.5530
 2193TIP3   OH227993   5.210   3.644  12.047 -0.2813  0.2907  0.5593
 2193TIP3    H127994   5.238   3.636  12.138 -0.8739 -0.8438  0.6583
 2193TIP3    H227995   5.254   3.573  12.002 -1.6792 -0.5160  0.4006
 2194TIP3   OH227996   2.076   3.234   1.254 -0.0075 -0.5077 -0.1104
 2194TIP3    H127997   2.048   3.319   1.219  0.4969 -0.6221 -0.8215
 2194TIP3    H227998   2.169   3.230   1.233 -0.0843 -1.3560 -0.3131
 2195TIP3   OH227999   1.824   1.060   3.332 -0.1973  0.2646 -0.3663
 2195TIP3    H128000   1.743   1.047   3.383 -0.8981 -1.4702 -1.8179
 2195TIP3    H228001   1.854   1.147   3.358 -0.4916 -0.4968  2.9746
 2196TIP3   OH228002   1.758   2.263  17.439  0.5568  0.5147 -0.1812
 2196TIP3    H128003   1.824   2.212  17.486 -0.2248  0.5888  1.0441
 2196TIP3    H228004   1.789   2.353  17.447  1.9716  0.2997 -2.3999
 2197TIP3   OH228005   4.233   3.348  13.131 -0.7347  0.1721 -0.0920
 2197TIP3    H128006   4.238   3.290  13.055 -0.4335  1.9837 -1.5219
 2197TIP3    H228007   4.146   3.386  13.127  0.2170  2.3955 -1.2269
 2198TIP3   OH228008   3.757   3.001   4.334 -0.0074  0.1758 -0.9187
 2198TIP3    H128009   3.768   2.925   4.278  1.0027  0.5777 -1.2855
 2198TIP3    H228010   3.777   2.970   4.422 -0.9298 -0.2936 -0.8661
 2199TIP3   OH228011   0.857   1.972  17.155 -0.0827 -0.6365  0.7918
 2199TIP3    H128012   0.919   1.992  17.225  0.3800 -2.1487  0.8431
 2199TIP3    H228013   0.911   1.934  17.086 -0.3967  1.5830 -0.7815
 2200TIP3   OH228014   0.773   4.267  15.835  0.8769  0.1603 -0.2220
 2200TIP3    H128015   0.809   4.266  15.924 -1.3202  0.7712  0.7265
 2200TIP3    H228016   0.800   4.352  15.799  2.8598 -0.6046 -0.6730
 2201TIP3   OH228017   0.489   1.995   2.300  0.5566 -0.5182  1.0602
 2201TIP3    H128018   0.453   1.941   2.230  1.3960  1.3997 -0.9609
 2201TIP3    H228019   0.582   2.001   2.280  0.3946  2.1994  0.7953
 2202TIP3   OH228020   4.800   2.973   2.403 -0.0920 -0.0287  0.7473
 2202TIP3    H128021   4.839   3.056   2.432  0.1870  0.4153 -0.8482
 2202TIP3    H228022   4.718   2.967   2.453  1.3841 -0.4156  3.2882
 2203TIP3   OH228023   2.726   3.404  12.722  0.0205  0.2676 -0.1070
 2203TIP3    H128024   2.673   3.325  12.711  0.2846  0.0218  0.3424
 2203TIP3    H228025   2.816   3.373  12.716  0.1350  0.4556  0.5370
 2204TIP3   OH228026   5.291   2.619   6.302 -0.0050  0.8693  0.2649
 2204TIP3    H128027   5.351   2.629   6.377  1.8483  0.1607 -1.0456
 2204TIP3    H228028   5.342   2.649   6.227 -1.2339  0.0396 -0.9332
 2205TIP3   OH228029   2.992   2.153  12.322  0.2532  0.1950  0.5594
 2205TIP3    H128030   2.924   2.141  12.255  1.1307 -0.1710 -0.2873
 2205TIP3    H228031   2.944   2.154  12.405 -0.8464  0.5936 -0.0704
 2206TIP3   OH228032   1.506   5.429  16.273 -0.3009 -0.1418  0.1696
 2206TIP3    H128033   1.434   5.368  16.258 -1.7253  1.6443 -0.7226
 2206TIP3    H228034   1.550   5.437  16.188  0.0695 -0.1708  0.3569
 2207TIP3   OH228035   6.457   0.437  13.097  0.2458  0.2755 -0.0018
 2207TIP3    H128036   6.516   0.414  13.026  0.0128 -0.0792 -0.0852
 2207TIP3    H228037   6.508   0.496  13.152  1.1150 -0.9686  0.5854
 2208TIP3   OH228038   5.932   5.943  12.135  0.1549  0.2178 -0.5039
 2208TIP3    H128039   5.945   5.990  12.217 -1.1749  0.0106 -0.1523
 2208TIP3    H228040   5.869   5.874  12.156  2.4255 -2.1081 -0.8655
 2209TIP3   OH228041   0.963   5.479  13.722  0.1157 -0.0429 -0.3413
 2209TIP3    H128042   1.034   5.478  13.786 -0.1555 -0.7094 -0.0405
 2209TIP3    H228043   1.001   5.521  13.645  0.4458  0.7584  0.2460
 2210TIP3   OH228044   3.681   2.157   5.708 -0.0619  0.5228  0.3498
 2210TIP3    H128045   3.652   2.096   5.776 -0.2046  1.5325  1.2149
 2210TIP3    H228046   3.712   2.100   5.638 -0.2512 -0.5521  1.0994
 2211TIP3   OH228047   5.347   1.900   4.124 -0.0417 -0.5957  0.1355
 2211TIP3    H128048   5.426   1.884   4.175 -1.5231  0.1160  2.8593
 2211TIP3    H228049   5.374   1.959   4.054  1.5898  0.8589  1.8869
 2212TIP3   OH228050   5.343   2.472  16.686 -0.1654  0.3288 -0.2483
 2212TIP3    H128051   5.374   2.414  16.617  0.4081 -1.8890  1.7412
 2212TIP3    H228052   5.360   2.424  16.767 -0.5340  2.9217  1.4856
 2213TIP3   OH228053   4.500   3.937  15.116  0.7806  0.8136 -0.1071
 2213TIP3    H128054   4.492   3.843  15.100  1.9482  0.9789 -1.9420
 2213TIP3    H228055   4.566   3.944  15.185  0.5516  0.3029  0.1713
 2214TIP3   OH228056   0.602   4.744   0.529  0.0694  0.4665  0.4505
 2214TIP3    H128057   0.558   4.748   0.614  0.9485  0.0444  0.9343
 2214TIP3    H228058   0.538   4.702   0.471 -0.2550  0.0777  1.0775
 2215TIP3   OH228059   2.810   0.305   5.325 -0.2599 -0.5590  0.0495
 2215TIP3    H128060   2.888   0.256   5.351 -0.3425 -0.7716 -0.1009
 2215TIP3    H228061   2.777   0.342   5.407  0.3949  0.1216  0.0174
 2216TIP3   OH228062   6.096   2.911   6.341 -0.4984  0.5310 -0.1305
 2216TIP3    H128063   6.152   2.985   6.318 -0.2784  0.5904  0.5633
 2216TIP3    H228064   6.007   2.941   6.323 -0.3406  0.5949 -0.8165
 2217TIP3   OH228065   0.943   6.210   2.064 -0.1403 -0.3101 -0.2426
 2217TIP3    H128066   0.979   6.202   1.976 -1.8046 -1.2199 -0.8734
 2217TIP3    H228067   0.930   6.304   2.077  1.4508 -0.0458 -0.3807
 2218TIP3   OH228068   5.855   4.523  12.165  0.5938 -0.5794  0.0952
 2218TIP3    H128069   5.813   4.536  12.250 -0.1095 -0.2455 -0.2956
 2218TIP3    H228070   5.918   4.594  12.158 -1.8635  1.6417 -1.1859
 2219TIP3   OH228071   3.193   1.665   4.535  0.0482 -0.1991 -0.7594
 2219TIP3    H128072   3.124   1.602   4.515 -0.5015 -0.1616  0.9018
 2219TIP3    H228073   3.255   1.617   4.589 -0.2530  0.5962  0.3217
 2220TIP3   OH228074   0.175   0.653  17.410 -0.1550 -0.2879 -0.9726
 2220TIP3    H128075   0.189   0.658  17.505  1.3046 -0.2915 -1.1675
 2220TIP3    H228076   0.082   0.673  17.399 -0.2333  0.2533  0.4157
 2221TIP3   OH228077   5.504   3.473   1.808  0.6296  0.0383 -0.1970
 2221TIP3    H128078   5.437   3.491   1.874 -0.3210 -2.3549 -0.4185
 2221TIP3    H228079   5.512   3.554   1.759 -1.3405  0.7258  0.5247
 2222TIP3   OH228080   1.490   3.087   5.399 -0.2203  0.0026 -0.3848
 2222TIP3    H128081   1.506   3.173   5.362 -1.7344  0.1909 -0.6449
 2222TIP3    H228082   1.398   3.088   5.424  0.0201 -1.1573  0.6424
 2223TIP3   OH228083   2.997   3.832   4.840 -0.2949 -0.0634  0.4631
 2223TIP3    H128084   3.065   3.785   4.792  0.5255 -0.3690  1.8824
 2223TIP3    H228085   2.915   3.792   4.811  0.1756 -0.2062 -0.6967
 2224TIP3   OH228086   1.835   4.366  15.516 -0.1306  0.0077 -0.4859
 2224TIP3    H128087   1.902   4.342  15.452 -1.5235 -3.0723 -0.9890
 2224TIP3    H228088   1.760   4.310  15.494 -1.8686  1.2546  1.7951
 2225TIP3   OH228089   6.167   2.056   2.284 -0.5457 -0.1795 -0.1749
 2225TIP3    H128090   6.107   2.036   2.356  0.0233 -0.9678  0.0964
 2225TIP3    H228091   6.193   1.970   2.250  0.7411  0.1343 -0.0201
 2226TIP3   OH228092   1.104   3.688   3.165 -0.5119  0.2053 -0.4318
 2226TIP3    H128093   1.044   3.729   3.228  0.3102 -1.0605  1.2593
 2226TIP3    H228094   1.139   3.761   3.114  0.5842  1.6168  2.1740
 2227TIP3   OH228095   4.900   6.476  16.553  0.6206 -0.0691 -0.2759
 2227TIP3    H128096   4.907   6.450  16.645 -1.5110 -0.7931 -0.2610
 2227TIP3    H228097   4.988   6.465  16.519  1.9007  1.9373  2.0691
 2228TIP3   OH228098   0.095   4.335   1.711  0.0793  0.0012 -0.6618
 2228TIP3    H128099   0.130   4.418   1.680  1.9828 -1.1042 -1.6643
 2228TIP3    H228100   0.003   4.336   1.686 -0.2508  2.2554  0.4108
 2229TIP3   OH228101   5.437   3.745   4.913 -0.1398 -0.6939 -0.4218
 2229TIP3    H128102   5.408   3.728   4.824  0.1694 -1.5544 -0.3716
 2229TIP3    H228103   5.529   3.717   4.914 -0.0793 -0.4926  0.1076
 2230TIP3   OH228104   2.604   1.582  16.542  0.3800  0.1985 -0.5372
 2230TIP3    H128105   2.605   1.501  16.490  1.6107 -0.5891  0.6248
 2230TIP3    H228106   2.512   1.596  16.563  0.2479 -1.7409  0.4420
 2231TIP3   OH228107   0.947   6.350  15.214 -0.0846 -0.6073 -0.1343
 2231TIP3    H128108   1.015   6.323  15.276 -0.8101 -1.1353  0.4516
 2231TIP3    H228109   0.973   6.438  15.187 -1.0090  0.7057  2.8368
 2232TIP3   OH228110   2.590   5.742   0.110 -0.1709  0.0294  0.1580
 2232TIP3    H128111   2.587   5.838   0.103  0.9421  0.1711  1.2415
 2232TIP3    H228112   2.581   5.711   0.020 -0.7377  1.1399 -0.1890
 2233TIP3   OH228113   1.352   5.299  11.314  0.2126  0.7341 -0.0197
 2233TIP3    H128114   1.422   5.324  11.374  0.8873  1.9213 -1.2562
 2233TIP3    H228115   1.274   5.340  11.351  0.0332 -0.9355  1.5903
 2234TIP3   OH228116   2.531   2.724  13.399  0.3017  0.3343  0.2794
 2234TIP3    H128117   2.510   2.631  13.407  0.5899  0.1060 -1.3037
 2234TIP3    H228118   2.456   2.769  13.438  0.7449 -0.5433  2.2748
 2235TIP3   OH228119   2.623   3.949  11.825  0.5099  0.1990 -0.1416
 2235TIP3    H128120   2.713   3.982  11.834  1.2151 -1.4858 -0.4907
 2235TIP3    H228121   2.602   3.963  11.732  0.4662  0.4870 -0.0878
 2236TIP3   OH228122   2.020   0.206   5.663  0.2475  1.2598  0.1145
 2236TIP3    H128123   2.076   0.152   5.718 -0.0769 -1.0428 -1.6454
 2236TIP3    H228124   2.064   0.291   5.659  2.8456  0.0005 -0.0236
 2237TIP3   OH228125   5.944   4.047   2.314 -0.5041 -0.2326 -0.0246
 2237TIP3    H128126   6.017   4.055   2.375 -1.2300 -0.5174  0.9130
 2237TIP3    H228127   5.949   4.126   2.260  0.3248 -0.1139  0.2167
 2238TIP3   OH228128   1.008   6.502  14.253  0.5857 -0.2105  0.5452
 2238TIP3    H128129   1.040   6.522  14.341  1.3498  1.1797 -0.0124
 2238TIP3    H228130   1.072   6.438  14.219  1.4471  0.7625  0.2931
 2239TIP3   OH228131   3.012   2.486   4.630  0.1898  0.2854  0.4657
 2239TIP3    H128132   2.935   2.526   4.673  0.4023 -0.7343  1.8853
 2239TIP3    H228133   3.086   2.535   4.664  0.1879  1.3214 -0.9682
 2240TIP3   OH228134   0.234   2.277  12.159 -0.4549 -0.2984 -0.1634
 2240TIP3    H128135   0.269   2.366  12.162 -0.1816 -0.4094  0.0440
 2240TIP3    H228136   0.267   2.241  12.077 -1.3249  0.0943 -0.6947
 2241TIP3   OH228137   1.465   6.257  12.326 -0.5292  0.3801 -0.2471
 2241TIP3    H128138   1.532   6.263  12.393 -1.2256 -0.0361  0.5085
 2241TIP3    H228139   1.383   6.245  12.375 -1.1842  1.1005 -1.1326
 2242TIP3   OH228140   0.702   4.557  15.966 -0.4662  0.0374 -0.3992
 2242TIP3    H128141   0.614   4.594  15.973 -0.4114  0.2581 -0.8439
 2242TIP3    H228142   0.737   4.563  16.055 -1.3446 -1.1991  0.0677
 2243TIP3   OH228143   0.387   4.634   4.030  0.0701 -0.0324  0.6513
 2243TIP3    H128144   0.386   4.544   3.998  0.7068  0.6655 -1.4460
 2243TIP3    H228145   0.327   4.681   3.972 -0.6433  0.8279  2.0255
 2244TIP3   OH228146   3.497   5.990   0.628  0.2260  0.3687  0.5485
 2244TIP3    H128147   3.410   5.976   0.592 -0.3954  0.2110  2.0330
 2244TIP3    H228148   3.500   6.084   0.648 -0.0607  0.1799  1.5569
 2245TIP3   OH228149   6.435   2.114   4.213  0.7355 -0.4622 -0.2370
 2245TIP3    H128150   6.456   2.053   4.284  1.2401  0.3571  0.3432
 2245TIP3    H228151   6.433   2.200   4.256  2.4986  0.2578 -1.4501
 2246TIP3   OH228152   1.312   0.149   1.416 -0.0336  0.0222 -0.0658
 2246TIP3    H128153   1.280   0.208   1.485  0.0385 -1.3572  1.2017
 2246TIP3    H228154   1.234   0.111   1.377 -0.0443 -0.1981  0.1693
 2247TIP3   OH228155   0.088   6.200  13.892 -0.2194 -0.5949  0.0146
 2247TIP3    H128156   0.021   6.140  13.860  0.3848 -0.8125 -0.8962
 2247TIP3    H228157   0.160   6.191  13.830  0.6397 -0.3285  0.9355
 2248TIP3   OH228158   2.957   5.289   3.030 -0.7868  0.0869  0.2746
 2248TIP3    H128159   2.898   5.245   3.091 -1.7106  1.8129  0.7144
 2248TIP3    H228160   2.905   5.362   2.996 -0.5967 -1.2125 -3.2123
 2249TIP3   OH228161   1.422   1.853  13.930  0.2445 -0.4634  0.1410
 2249TIP3    H128162   1.439   1.945  13.951  0.9917 -0.4228 -0.5635
 2249TIP3    H228163   1.499   1.807  13.963  1.3303 -0.4323 -2.1267
 2250TIP3   OH228164   3.571   5.057   2.772 -0.1192 -0.0961 -0.0845
 2250TIP3    H128165   3.613   5.143   2.779  0.8338 -0.5037 -0.6443
 2250TIP3    H228166   3.486   5.069   2.814 -0.1225  1.2016 -0.4168
 2251TIP3   OH228167   2.088   4.958  16.741  0.2687  0.0471 -0.0750
 2251TIP3    H128168   2.055   5.019  16.675  0.4534  0.4490  0.1981
 2251TIP3    H228169   2.058   4.995  16.824  0.5501 -0.1328  0.1064
 2252TIP3   OH228170   3.113   6.727  15.264  0.2460  0.1677 -0.1092
 2252TIP3    H128171   3.178   6.656  15.256 -1.3441 -1.4408  0.5867
 2252TIP3    H228172   3.036   6.694  15.219 -1.2834  0.4841  2.1193
 2253TIP3   OH228173   5.959   2.101  13.823  0.2039 -0.0666  0.3448
 2253TIP3    H128174   5.916   2.068  13.744 -1.8531 -0.9249  1.6993
 2253TIP3    H228175   5.896   2.082  13.893  0.2828  3.9274  1.7387
 2254TIP3   OH228176   0.809   3.134   4.008 -0.5343  0.9302 -0.2561
 2254TIP3    H128177   0.832   3.062   3.950 -0.4897  1.3249 -0.7361
 2254TIP3    H228178   0.790   3.207   3.950 -0.6850  1.2795  0.2202
 2255TIP3   OH228179   3.512   5.656   0.530  0.3849  0.2847  0.1106
 2255TIP3    H128180   3.447   5.727   0.526 -0.6182 -0.6246 -0.4930
 2255TIP3    H228181   3.477   5.589   0.471  1.6817 -0.4120  0.1029
 2256TIP3   OH228182   0.326   1.388   0.556  0.1894 -0.1700 -0.7033
 2256TIP3    H128183   0.380   1.444   0.500  1.1749 -0.4214 -0.0409
 2256TIP3    H228184   0.388   1.322   0.588 -0.3146  0.0725  0.8170
 2257TIP3   OH228185   0.911   2.506   2.897  0.0552  0.1075  0.1770
 2257TIP3    H128186   0.884   2.415   2.889 -0.2073  0.0362  1.5364
 2257TIP3    H228187   0.833   2.557   2.874  0.1474 -0.0155 -0.4015
 2258TIP3   OH228188   6.705   3.280  15.830  0.3245  0.1129 -0.1419
 2258TIP3    H128189   6.797   3.251  15.828  0.4974  0.2304  2.1814
 2258TIP3    H228190   6.709   3.373  15.809  0.6099 -0.0749 -0.9610
 2259TIP3   OH228191   4.603   5.393   3.843  0.0901 -0.0247 -0.3798
 2259TIP3    H128192   4.526   5.447   3.826 -1.0294 -1.1661  0.8435
 2259TIP3    H228193   4.671   5.455   3.869 -1.0348  0.8508  0.5901
 2260TIP3   OH228194   6.174   0.874  15.281 -0.6617  0.4192  0.3377
 2260TIP3    H128195   6.216   0.878  15.366  0.0933 -0.3351  0.0098
 2260TIP3    H228196   6.180   0.964  15.247  1.1801  0.2244  0.0694
 2261TIP3   OH228197   5.325   3.285   1.403  0.3466  0.3986 -0.2040
 2261TIP3    H128198   5.363   3.338   1.473 -1.6637  1.3097  0.2541
 2261TIP3    H228199   5.248   3.245   1.442 -0.6177  0.6358 -1.7611
 2262TIP3   OH228200   5.133   6.574  15.296 -0.2504  0.2264 -0.1143
 2262TIP3    H128201   5.101   6.586  15.207  1.3595 -0.8816 -0.8858
 2262TIP3    H228202   5.126   6.480  15.312  0.4141  0.2749  0.5377
 2263TIP3   OH228203   4.051   1.975  16.122 -0.4423 -0.2529 -0.4446
 2263TIP3    H128204   4.115   1.977  16.194 -0.5788 -1.5048 -0.2757
 2263TIP3    H228205   4.101   1.998  16.044 -0.2807  1.0849  0.0262
 2264TIP3   OH228206   5.996   1.219   5.367 -0.1828 -0.0393  0.0103
 2264TIP3    H128207   6.052   1.169   5.426  2.1603 -0.7109 -2.6027
 2264TIP3    H228208   5.917   1.165   5.358 -0.0054 -0.5668  1.4382
 2265TIP3   OH228209   4.284   4.494   2.422  0.4018 -0.7169 -0.0885
 2265TIP3    H128210   4.275   4.399   2.416  2.0397 -0.8838 -0.2989
 2265TIP3    H228211   4.357   4.515   2.363  0.6417  0.5617  0.6326
 2266TIP3   OH228212   2.284   0.611  16.408  0.5561  0.1764 -0.1668
 2266TIP3    H128213   2.350   0.559  16.362  0.6089  0.0714  0.0300
 2266TIP3    H228214   2.278   0.692  16.357 -0.7059 -0.6595 -1.4400
 2267TIP3   OH228215   2.967   4.757   5.546 -0.2288  0.1962  0.5539
 2267TIP3    H128216   2.973   4.668   5.512  0.2511  0.7889 -1.0463
 2267TIP3    H228217   2.929   4.808   5.473 -1.3116  1.1553  1.7303
 2268TIP3   OH228218   4.571   0.334   5.589 -0.2713  0.1405  0.0718
 2268TIP3    H128219   4.576   0.424   5.557 -1.0005 -0.5680 -2.2656
 2268TIP3    H228220   4.646   0.325   5.648  0.6005  1.8753 -0.6979
 2269TIP3   OH228221   1.909   1.527  12.449  0.1316  0.7985  0.8416
 2269TIP3    H128222   1.858   1.506  12.527 -1.7043  2.3378  0.1154
 2269TIP3    H228223   1.847   1.568  12.389  1.4978 -0.2083 -1.4163
 2270TIP3   OH228224   5.585   4.091   5.881  0.5618 -0.4445 -0.0900
 2270TIP3    H128225   5.672   4.053   5.873  1.7927  1.9561  0.8226
 2270TIP3    H228226   5.578   4.151   5.807 -1.0870 -1.8687 -1.1684
 2271TIP3   OH228227   5.653   1.994   3.550  0.2871 -0.6664 -0.1855
 2271TIP3    H128228   5.651   1.983   3.455 -0.0992  0.2752 -0.2901
 2271TIP3    H228229   5.677   1.907   3.583  1.1501 -0.8170 -1.1716
 2272TIP3   OH228230   4.519   4.648   4.589 -0.2345  0.5400 -0.3920
 2272TIP3    H128231   4.556   4.736   4.605  1.3909 -0.0756 -0.5557
 2272TIP3    H228232   4.426   4.657   4.609  0.2658  1.7982  1.6804
 2273TIP3   OH228233   5.183   5.392  14.278 -0.0095  0.3678 -0.1363
 2273TIP3    H128234   5.091   5.410  14.298  0.2470 -0.5411  2.1302
 2273TIP3    H228235   5.211   5.332  14.347  1.2262 -2.6048 -3.0148
 2274TIP3   OH228236   0.474   3.804   3.697  0.3845  0.9505  0.1125
 2274TIP3    H128237   0.379   3.793   3.693  0.6325 -1.3435 -1.9894
 2274TIP3    H228238   0.489   3.896   3.676 -1.3596  1.3523  0.5384
 2275TIP3   OH228239   0.713   4.043   2.415  0.4329 -0.5433 -0.0991
 2275TIP3    H128240   0.790   3.987   2.402 -0.1474 -1.3135 -0.3140
 2275TIP3    H228241   0.644   4.001   2.363  0.1991  0.8696 -0.9924
 2276TIP3   OH228242   1.967   4.557   3.870  0.4444  0.0641 -0.2903
 2276TIP3    H128243   1.953   4.518   3.956  2.9796 -0.4416 -0.0315
 2276TIP3    H228244   1.927   4.644   3.876 -0.2003 -0.2948  1.0658
 2277TIP3   OH228245   2.810   6.006  13.489 -0.2529  0.4187 -0.2431
 2277TIP3    H128246   2.849   6.015  13.402  0.5904 -2.4326 -0.2590
 2277TIP3    H228247   2.853   6.074  13.541  0.3931  1.1598 -1.6589
 2278TIP3   OH228248   3.745   4.693   6.603  0.1252 -0.4295  0.1642
 2278TIP3    H128249   3.755   4.624   6.668  1.1731  0.7303  1.2989
 2278TIP3    H228250   3.669   4.667   6.551 -1.0357 -1.1747  2.1352
 2279TIP3   OH228251   6.184   5.385   3.656 -0.2697  0.0389  0.1143
 2279TIP3    H128252   6.192   5.296   3.621 -3.4098  0.0115 -0.7872
 2279TIP3    H228253   6.176   5.374   3.750 -0.1478 -0.5741  0.0567
 2280TIP3   OH228254   5.736   2.495   3.823 -0.4317  0.1636  0.2002
 2280TIP3    H128255   5.687   2.484   3.904 -1.4148  0.4997 -0.3361
 2280TIP3    H228256   5.806   2.429   3.828 -0.3942  0.2811  1.3701
 2281TIP3   OH228257   4.721   6.678  12.119  0.3711 -1.2076 -0.4081
 2281TIP3    H128258   4.683   6.591  12.110  1.2786 -1.7367  0.6051
 2281TIP3    H228259   4.808   6.670  12.081  1.2206 -1.3295  1.4509
 2282TIP3   OH228260   2.600   0.502  14.624  0.3967 -0.7086  0.5084
 2282TIP3    H128261   2.640   0.539  14.545  2.5200 -2.0293  0.8970
 2282TIP3    H228262   2.539   0.570  14.654 -0.7330 -0.2804 -2.3968
 2283TIP3   OH228263   4.756   4.869  12.586  0.3770 -0.3476  0.1387
 2283TIP3    H128264   4.772   4.799  12.523  0.5936  0.4228 -0.6773
 2283TIP3    H228265   4.842   4.907  12.603 -0.0779  1.9760 -2.1196
 2284TIP3   OH228266   6.385   5.973   3.677  0.3312  0.2163  0.0016
 2284TIP3    H128267   6.329   5.966   3.600  1.7469 -0.9560 -0.9639
 2284TIP3    H228268   6.324   5.994   3.749 -1.0455  1.1079 -1.3558
 2285TIP3   OH228269   6.418   4.599  14.444 -0.2993  0.6612  0.2249
 2285TIP3    H128270   6.350   4.576  14.381  2.1235 -1.3488 -1.9190
 2285TIP3    H228271   6.425   4.694  14.439 -0.3521  0.5882 -2.4741
 2286TIP3   OH228272   4.412   4.132  16.364 -0.4058  0.0446 -0.3058
 2286TIP3    H128273   4.359   4.209  16.382 -0.2963 -0.2300  1.3284
 2286TIP3    H228274   4.501   4.167  16.352 -0.1168  0.1011  1.7014
 2287TIP3   OH228275   2.426   1.297   4.379 -0.0290 -0.2169 -0.4623
 2287TIP3    H128276   2.369   1.263   4.448  0.8918 -1.4189 -0.2461
 2287TIP3    H228277   2.379   1.371   4.342 -0.5327  0.4833  1.4796
 2288TIP3   OH228278   2.843   5.031  17.440  0.6333  0.7298  0.0982
 2288TIP3    H128279   2.914   5.077  17.396  0.1018  0.6706 -0.8338
 2288TIP3    H228280   2.853   4.940  17.413  1.1402  0.4320  1.2253
 2289TIP3   OH228281   5.662   1.284  10.490  0.4628 -0.0385  0.4716
 2289TIP3    H128282   5.619   1.219  10.546 -0.4357  0.0340 -0.1239
 2289TIP3    H228283   5.620   1.367  10.513 -0.2266 -0.0721 -0.6112
 2290TIP3   OH228284   6.542   6.654   6.679 -0.5012  0.8165 -0.0685
 2290TIP3    H128285   6.550   6.726   6.741  2.7116  0.8121 -0.3291
 2290TIP3    H228286   6.556   6.575   6.731  1.5848  0.7778 -0.6060
 2291TIP3   OH228287   4.623   2.947   5.005 -0.1472 -0.2248 -0.2196
 2291TIP3    H128288   4.679   2.973   5.078 -0.3260 -2.3370  0.7508
 2291TIP3    H228289   4.537   2.933   5.044 -0.0240 -2.3479 -0.5659
 2292TIP3   OH228290   6.627   6.697   1.397  0.1242  0.1276 -0.5081
 2292TIP3    H128291   6.644   6.771   1.338 -1.3031  0.3283 -0.6989
 2292TIP3    H228292   6.663   6.725   1.481  1.7608  0.0290 -1.1314
 2293TIP3   OH228293   2.749   2.115  14.437 -0.6116 -0.0867  0.7670
 2293TIP3    H128294   2.732   2.034  14.389 -2.7304 -0.6950  2.3647
 2293TIP3    H228295   2.742   2.184  14.372 -0.5736 -1.0604 -0.3027
 2294TIP3   OH228296   0.323   0.268  15.610  0.1561  0.1010 -0.2690
 2294TIP3    H128297   0.237   0.250  15.573  0.4259  1.4120 -1.6443
 2294TIP3    H228298   0.371   0.310  15.539  1.3603  0.9255  0.9769
 2295TIP3   OH228299   4.426   4.809   5.380  0.1240  0.5840  0.4391
 2295TIP3    H128300   4.420   4.874   5.310 -0.2057  0.2333  0.1406
 2295TIP3    H228301   4.464   4.857   5.454  2.4067  0.4864 -0.5674
 2296TIP3   OH228302   5.705   0.575  12.459  0.2587  0.1848 -0.4385
 2296TIP3    H128303   5.794   0.574  12.495 -0.1124 -1.0568  0.5188
 2296TIP3    H228304   5.667   0.491  12.487 -2.2213  1.8540  1.7078
 2297TIP3   OH228305   0.201   0.504  12.836  0.2059 -0.1590 -0.2468
 2297TIP3    H128306   0.232   0.533  12.922 -0.6049  0.2094 -0.0640
 2297TIP3    H228307   0.209   0.409  12.839  1.5598 -0.0659 -0.3198
 2298TIP3   OH228308   5.360   5.911  12.576 -0.0521 -0.1599 -0.3267
 2298TIP3    H128309   5.449   5.883  12.552  0.3420 -1.8646  2.5916
 2298TIP3    H228310   5.357   6.003  12.552  1.8544 -0.4617 -2.1222
 2299TIP3   OH228311   6.486   6.578   5.122  0.3354  0.4382 -0.0976
 2299TIP3    H128312   6.477   6.666   5.084  0.4922  1.1103  1.3667
 2299TIP3    H228313   6.482   6.592   5.216  0.6492 -1.1077  0.1684
 2300TIP3   OH228314   1.564   6.309  11.889  0.0838 -0.2245 -0.4570
 2300TIP3    H128315   1.525   6.392  11.864 -3.8218 -1.4891  0.7675
 2300TIP3    H228316   1.626   6.289  11.819  0.8994  3.4164 -0.9812
 2301TIP3   OH228317   5.691   0.905  12.945 -0.0900  0.4632 -0.5658
 2301TIP3    H128318   5.679   0.849  12.868 -0.7303  1.0430 -0.8917
 2301TIP3    H228319   5.731   0.847  13.010 -1.2639 -0.5471 -0.6980
 2302TIP3   OH228320   2.427   1.664  12.569  0.1025  0.1132 -0.9193
 2302TIP3    H128321   2.477   1.591  12.532  0.6036  0.9093 -1.8534
 2302TIP3    H228322   2.342   1.626  12.591  0.7597 -1.0335 -0.2368
 2303TIP3   OH228323   4.720   2.806  14.614  0.1288  0.2324 -0.2584
 2303TIP3    H128324   4.758   2.783  14.529  0.8465  0.9888 -0.1628
 2303TIP3    H228325   4.795   2.838  14.665 -0.4464  0.6228  0.3507
 2304TIP3   OH228326   2.040   1.687  14.773 -0.1718 -0.1820  0.4081
 2304TIP3    H128327   2.024   1.711  14.681  2.9158 -0.7129 -0.3789
 2304TIP3    H228328   1.973   1.621  14.792  0.2526 -1.4854 -2.1290
 2305TIP3   OH228329   4.934   2.733   4.675  0.1523 -0.0864  0.2012
 2305TIP3    H128330   4.875   2.803   4.701 -0.5256 -0.5083 -0.1764
 2305TIP3    H228331   4.881   2.654   4.680 -0.0210 -0.2264 -2.3494
 2306TIP3   OH228332   0.151   1.289   1.610 -0.2950 -0.0065  0.1051
 2306TIP3    H128333   0.143   1.272   1.516 -0.6464 -0.6013  0.2370
 2306TIP3    H228334   0.199   1.214   1.643 -0.9388 -0.2386  0.5350
 2307TIP3   OH228335   0.503   1.529  16.146  0.6938 -0.2192  0.5969
 2307TIP3    H128336   0.554   1.610  16.148 -1.2749  1.1024 -0.1640
 2307TIP3    H228337   0.444   1.539  16.072 -0.1313 -2.0389  0.9478
 2308TIP3   OH228338   0.275   2.958  13.834 -0.4509 -0.5804  0.2253
 2308TIP3    H128339   0.215   2.926  13.902 -1.0458 -1.1866 -0.5681
 2308TIP3    H228340   0.218   2.994  13.766  0.0410 -1.6466 -0.7862
 2309TIP3   OH228341   5.332   1.654   2.195  0.4027 -0.0274 -0.0839
 2309TIP3    H128342   5.281   1.662   2.276  0.7707 -0.6979  0.2233
 2309TIP3    H228343   5.283   1.590   2.142 -0.5182  1.3461 -0.9406
 2310TIP3   OH228344   0.809   1.750   4.532  0.3434  0.2175 -0.0069
 2310TIP3    H128345   0.843   1.823   4.480  0.1309  0.0209 -0.4291
 2310TIP3    H228346   0.878   1.684   4.529 -0.3408 -0.4929 -1.5082
 2311TIP3   OH228347   6.429   6.213  15.656  0.0073 -0.8143 -0.2225
 2311TIP3    H128348   6.498   6.219  15.590  1.6908 -2.7337  1.2637
 2311TIP3    H228349   6.352   6.183  15.607  0.0499  1.5783 -1.9563
 2312TIP3   OH228350   6.082   1.159   0.148 -0.0675  0.6760 -0.0535
 2312TIP3    H128351   6.018   1.222   0.182 -0.2897  0.9270 -0.9094
 2312TIP3    H228352   6.038   1.119   0.073  0.4467  0.2009 -0.1045
 2313TIP3   OH228353   4.317   4.282  12.503  0.5688 -0.3654 -0.0541
 2313TIP3    H128354   4.352   4.296  12.415 -0.1814  0.7862 -0.1866
 2313TIP3    H228355   4.274   4.197  12.497  1.1627 -0.6427 -0.5831
 2314TIP3   OH228356   6.179   6.379   2.472  0.1127  0.2944  0.0637
 2314TIP3    H128357   6.102   6.414   2.517 -0.4366 -0.1135 -0.5431
 2314TIP3    H228358   6.149   6.297   2.434  1.2301 -0.5843  1.0049
 2315TIP3   OH228359   2.233   1.021  13.183 -0.3406  0.3692  0.1019
 2315TIP3    H128360   2.298   0.986  13.122 -0.5965  0.7090 -0.3717
 2315TIP3    H228361   2.255   0.981  13.267 -2.1881 -3.0809 -0.8737
 2316TIP3   OH228362   3.187   0.790   1.226  0.6928 -0.1404 -0.0549
 2316TIP3    H128363   3.163   0.770   1.316 -0.7445  0.3982 -0.2803
 2316TIP3    H228364   3.113   0.757   1.174  1.0001  0.4982 -0.9280
 2317TIP3   OH228365   4.317   1.765   0.321  0.1369  0.0749  0.0587
 2317TIP3    H128366   4.249   1.741   0.258  0.7881 -1.8404  0.0515
 2317TIP3    H228367   4.305   1.704   0.394 -0.2749  1.9114  1.6185
 2318TIP3   OH228368   6.554   4.401  14.892  0.2311 -0.2115 -0.0426
 2318TIP3    H128369   6.491   4.368  14.957 -0.2295 -0.4383 -0.5989
 2318TIP3    H228370   6.499   4.441  14.825  0.7201  0.2439 -0.1696
 2319TIP3   OH228371   0.445   2.966   4.989  0.0820  0.4390 -0.0362
 2319TIP3    H128372   0.424   3.060   4.994 -2.9298 -0.1391  0.3459
 2319TIP3    H228373   0.481   2.945   5.075 -1.4130  0.8383  0.7218
 2320TIP3   OH228374   4.457   0.532  15.106 -0.5852  0.0932  0.2527
 2320TIP3    H128375   4.440   0.438  15.102  1.9757 -0.5578  2.2720
 2320TIP3    H228376   4.376   0.570  15.139 -2.9031 -0.8270 -3.7033
 2321TIP3   OH228377   0.076   4.665   5.608  0.5054 -0.7036  0.4134
 2321TIP3    H128378   0.072   4.659   5.704 -1.5609 -1.7580  0.3199
 2321TIP3    H228379   0.062   4.758   5.590 -0.4472 -0.6872  1.1310
 2322TIP3   OH228380   2.726   3.706   6.690  0.1245  0.3625  0.5039
 2322TIP3    H128381   2.764   3.693   6.777  2.2840 -1.2312 -0.6062
 2322TIP3    H228382   2.769   3.785   6.657 -0.0416  0.4640  0.5261
 2323TIP3   OH228383   2.988   3.108   1.978  0.6151  0.0903 -0.1434
 2323TIP3    H128384   3.005   3.100   1.884 -1.6022 -0.4781 -0.5460
 2323TIP3    H228385   2.978   3.018   2.009  1.1404  0.2796  0.6129
 2324TIP3   OH228386   5.498   0.167   4.519 -0.1077  0.2543  0.2292
 2324TIP3    H128387   5.567   0.197   4.459 -0.1247  0.8747  0.5174
 2324TIP3    H228388   5.421   0.216   4.493 -0.9915 -1.8116 -1.3715
 2325TIP3   OH228389   5.026   3.441  11.427 -0.7792  0.1485 -0.5498
 2325TIP3    H128390   5.082   3.519  11.432  0.1814 -0.6002  0.7987
 2325TIP3    H228391   5.082   3.374  11.388 -1.3370 -0.1238 -0.9016
 2326TIP3   OH228392   1.008   1.532  12.836  0.3124  0.6678  0.7231
 2326TIP3    H128393   0.991   1.452  12.787  0.2095 -0.2935  2.2340
 2326TIP3    H228394   1.050   1.591  12.773  0.0363 -0.4256 -0.5272
 2327TIP3   OH228395   4.553   0.608  15.423  0.3098 -0.0642 -0.6715
 2327TIP3    H128396   4.616   0.567  15.363  0.2278 -1.5016  0.1724
 2327TIP3    H228397   4.473   0.557  15.412  0.1975 -0.1513  0.4141
 2328TIP3   OH228398   1.940   3.988   6.723  0.0741 -0.0522 -0.0363
 2328TIP3    H128399   1.942   4.049   6.797 -1.4497 -0.6645  0.5465
 2328TIP3    H228400   1.863   3.934   6.739 -0.1336 -0.3768 -1.9313
 2329TIP3   OH228401   0.361   3.721   1.712  0.1693  0.1886 -0.0997
 2329TIP3    H128402   0.429   3.752   1.652  0.7169 -1.1033 -0.1605
 2329TIP3    H228403   0.328   3.801   1.753  1.9341  0.8284  0.1596
 2330TIP3   OH228404   1.591   0.189   0.715  0.5633 -0.3305  0.1402
 2330TIP3    H128405   1.497   0.179   0.733  0.3999  1.8230  0.8357
 2330TIP3    H228406   1.632   0.192   0.801  1.3749 -1.8038 -0.1713
 2331TIP3   OH228407   2.744   6.442   2.878 -0.1644  0.4735  0.7244
 2331TIP3    H128408   2.776   6.352   2.870  0.4402  0.6076  1.4794
 2331TIP3    H228409   2.717   6.467   2.789  0.0308 -0.3146  0.4423
 2332TIP3   OH228410   1.234   0.710  12.133  0.2245  0.2644  0.7359
 2332TIP3    H128411   1.245   0.722  12.039  0.3469 -0.2598  0.6807
 2332TIP3    H228412   1.150   0.666  12.142  0.0819  0.5737  0.8875
 2333TIP3   OH228413   1.149   0.957   0.642  0.0568 -0.3461 -0.1204
 2333TIP3    H128414   1.059   0.984   0.625 -0.4858 -0.6538  1.9252
 2333TIP3    H228415   1.156   0.871   0.602 -0.1533  0.1928 -1.3490
 2334TIP3   OH228416   3.998   0.774  15.463 -0.4321  0.2681 -0.4498
 2334TIP3    H128417   4.009   0.828  15.384  1.7888  0.3745 -0.1390
 2334TIP3    H228418   4.020   0.686  15.435 -1.0222  0.0540 -0.2515
 2335TIP3   OH228419   0.659   5.992  11.270  0.5276 -0.2354 -0.0989
 2335TIP3    H128420   0.693   5.903  11.284  0.4695 -0.0976  1.0191
 2335TIP3    H228421   0.603   5.984  11.193  0.1598 -1.2795  0.2542
 2336TIP3   OH228422   0.692   4.131   5.083  0.3978 -0.6447  0.2529
 2336TIP3    H128423   0.697   4.226   5.081  0.2607 -0.6350  0.3543
 2336TIP3    H228424   0.639   4.111   5.160 -0.2714 -0.7700 -0.2242
 2337TIP3   OH228425   6.015   3.186   3.975 -0.2759  0.5507 -0.3956
 2337TIP3    H128426   6.023   3.091   3.988 -0.1986  0.8031  1.9956
 2337TIP3    H228427   5.946   3.212   4.036 -0.7886  1.9502 -1.5480
 2338TIP3   OH228428   1.944   1.466   4.726 -0.8816 -0.2078  0.1055
 2338TIP3    H128429   1.923   1.453   4.819  2.1121 -1.8118  0.6557
 2338TIP3    H228430   1.890   1.401   4.680 -1.0076 -0.6857  0.9048
 2339TIP3   OH228431   2.104   0.059  15.257  0.0645 -0.2908 -0.1725
 2339TIP3    H128432   2.159   0.101  15.323 -2.8214 -0.1399  2.3724
 2339TIP3    H228433   2.023   0.109  15.258 -1.1392 -2.0638 -1.7791
 2340TIP3   OH228434   4.759   1.694   5.785 -0.2216  0.0630  0.2208
 2340TIP3    H128435   4.784   1.656   5.869  1.4119 -0.6422 -0.5320
 2340TIP3    H228436   4.801   1.779   5.783  0.2046 -0.1497 -0.0902
 2341TIP3   OH228437   0.766   3.082  12.891 -0.0729  0.0091 -0.4353
 2341TIP3    H128438   0.810   3.026  12.955 -1.4271 -1.2913 -0.5902
 2341TIP3    H228439   0.835   3.105  12.829  0.6198 -1.2222 -0.1650
 2342TIP3   OH228440   3.587   5.445   4.744  0.2776  0.0929 -0.0323
 2342TIP3    H128441   3.511   5.472   4.692  0.3831 -1.2064 -0.8829
 2342TIP3    H228442   3.656   5.507   4.720 -0.6485  1.7196  1.2568
 2343TIP3   OH228443   0.943   1.937  15.628  0.5533  0.2281 -0.3566
 2343TIP3    H128444   0.871   1.991  15.662  1.1458  1.3363 -0.8141
 2343TIP3    H228445   0.899   1.864  15.584 -0.2558 -0.1223  0.9577
 2344TIP3   OH228446   6.379   5.512  11.786  0.2539 -0.0563 -0.1527
 2344TIP3    H128447   6.356   5.466  11.867 -0.1223  0.3589 -0.0212
 2344TIP3    H228448   6.423   5.446  11.733 -2.4432 -1.3217 -0.9993
 2345TIP3   OH228449   1.818   1.796  13.498  0.0567  0.7296 -0.1388
 2345TIP3    H128450   1.833   1.859  13.568 -0.4562 -0.5606  1.1837
 2345TIP3    H228451   1.860   1.715  13.528 -1.3772 -0.2508 -0.6672
 2346TIP3   OH228452   6.657   0.480  14.700  0.5483  0.4036  0.2166
 2346TIP3    H128453   6.741   0.480  14.746  1.2878  3.8032 -0.9020
 2346TIP3    H228454   6.679   0.455  14.610  0.1691  0.3563  0.1337
 2347TIP3   OH228455   3.268   1.046   4.918  0.1904  0.7692 -0.2691
 2347TIP3    H128456   3.263   1.002   4.833 -1.2390  0.9592 -0.3061
 2347TIP3    H228457   3.273   0.975   4.982  1.4883  0.6270 -0.4982
 2348TIP3   OH228458   1.993   0.474  15.697  0.2247  0.4944  0.3934
 2348TIP3    H128459   2.006   0.462  15.791 -2.6803 -0.1556  0.8049
 2348TIP3    H228460   1.901   0.500  15.689  0.6507  1.4531 -2.2261
 2349TIP3   OH228461   6.342   2.546   1.530 -0.6342  1.1363  0.1882
 2349TIP3    H128462   6.354   2.631   1.489  1.7273  0.9974  0.4291
 2349TIP3    H228463   6.366   2.560   1.622 -0.1845  0.2394  0.2223
 2350TIP3   OH228464   3.497   0.949  15.002 -0.6262 -0.0504  0.2287
 2350TIP3    H128465   3.520   1.035  14.966  2.2644 -1.7660 -2.6243
 2350TIP3    H228466   3.557   0.938  15.077 -0.5882  0.1894  0.2342
 2351TIP3   OH228467   3.143   4.755  12.359 -0.3986 -0.1095 -0.3028
 2351TIP3    H128468   3.140   4.826  12.296 -0.7424  0.4803  0.3699
 2351TIP3    H228469   3.236   4.746  12.381 -0.5937  2.3970  2.0989
 2352TIP3   OH228470   5.804   3.622   2.606  0.3578  0.4814  0.7185
 2352TIP3    H128471   5.767   3.565   2.674  0.8937 -0.0667  0.5532
 2352TIP3    H228472   5.844   3.563   2.543 -2.0072  0.8306 -1.2825
 2353TIP3   OH228473   4.331   3.122   6.945  0.3223 -0.1638  0.3523
 2353TIP3    H128474   4.290   3.053   6.997  0.0565  0.7586  1.3834
 2353TIP3    H228475   4.259   3.159   6.893  0.3530 -0.2543  0.2435
 2354TIP3   OH228476   5.446   4.978  11.934 -0.0845  0.3832  0.7882
 2354TIP3    H128477   5.369   5.021  11.896 -0.4730  1.8207  3.0330
 2354TIP3    H228478   5.414   4.933  12.012  1.2825  0.8243  1.6492
 2355TIP3   OH228479   5.033   4.500  15.701  0.0658 -0.1976  0.1811
 2355TIP3    H128480   5.022   4.469  15.611 -0.1507  0.3022  0.0318
 2355TIP3    H228481   5.114   4.550  15.700  0.3029 -0.5727  0.3727
 2356TIP3   OH228482   2.774   1.446  16.030  0.1715  0.3544 -0.5964
 2356TIP3    H128483   2.697   1.486  15.989  0.5786  1.0832 -0.6661
 2356TIP3    H228484   2.816   1.518  16.077 -0.6548 -0.5808  1.7095
 2357TIP3   OH228485   3.037   6.127   5.632 -0.0126 -0.0105  1.0115
 2357TIP3    H128486   2.999   6.192   5.691 -0.8281  0.6668 -0.2181
 2357TIP3    H228487   3.051   6.175   5.550 -0.8582 -1.4382 -0.0049
 2358TIP3   OH228488   4.585   6.525   4.542 -0.0651  0.1466 -0.4863
 2358TIP3    H128489   4.538   6.558   4.618 -2.1207 -0.5932 -1.3604
 2358TIP3    H228490   4.528   6.457   4.506  1.4873 -0.4981 -1.8965
 2359TIP3   OH228491   2.955   3.870   2.502 -0.3016 -0.1248 -0.0933
 2359TIP3    H128492   3.025   3.825   2.455 -1.9945 -0.7974 -2.1640
 2359TIP3    H228493   2.953   3.830   2.588  1.3294 -0.6253 -0.2662
 2360TIP3   OH228494   1.864   4.591   4.782  0.1996  0.1616 -0.1289
 2360TIP3    H128495   1.863   4.528   4.854  0.0272  0.0655 -0.2145
 2360TIP3    H228496   1.785   4.643   4.795 -0.2705 -0.3820 -0.7071
 2361TIP3   OH228497   4.158   3.630  16.482 -0.0513 -0.4212  0.1576
 2361TIP3    H128498   4.248   3.660  16.489 -0.4708  1.7953 -2.1893
 2361TIP3    H228499   4.132   3.654  16.393 -3.3873  0.3581  1.2027
 2362TIP3   OH228500   4.577   3.750  15.505 -0.2565 -0.2233 -0.3751
 2362TIP3    H128501   4.656   3.706  15.536  0.4798  0.2562 -1.4927
 2362TIP3    H228502   4.536   3.785  15.584  0.3037 -1.0264  0.2902
 2363TIP3   OH228503   0.306   1.266  12.483  0.2508 -0.2962  0.2163
 2363TIP3    H128504   0.271   1.306  12.403  1.8595 -0.0655 -0.4048
 2363TIP3    H228505   0.380   1.213  12.453 -0.9289 -2.6085  1.2123
 2364TIP3   OH228506   5.479   0.413  12.004 -0.0921  0.0320 -0.0517
 2364TIP3    H128507   5.566   0.419  12.044 -0.1606 -1.8233  0.4819
 2364TIP3    H228508   5.419   0.439  12.074 -0.0533 -0.5310  0.1989
 2365TIP3   OH228509   0.596   3.337  13.416 -0.4745  0.2456 -0.1748
 2365TIP3    H128510   0.563   3.286  13.490 -1.6789  1.7295  0.3715
 2365TIP3    H228511   0.519   3.353  13.361  0.1095  0.4648 -0.9479
 2366TIP3   OH228512   3.064   6.624  14.995 -0.0788 -0.8604  0.1194
 2366TIP3    H128513   3.016   6.688  14.942  0.8817  0.2056  0.4861
 2366TIP3    H228514   3.146   6.609  14.947  0.3867 -0.6000  0.8103
 2367TIP3   OH228515   0.388   6.298  10.758 -0.1567 -0.0302  0.6169
 2367TIP3    H128516   0.484   6.303  10.748 -0.2715 -0.4417 -0.9303
 2367TIP3    H228517   0.375   6.237  10.830  0.7647  2.3155  2.9353
 2368TIP3   OH228518   2.919   0.749   0.846  0.4965 -0.7674 -0.3749
 2368TIP3    H128519   2.989   0.691   0.815  0.6065 -1.1805  0.6245
 2368TIP3    H228520   2.965   0.823   0.885  0.3586 -0.4325 -0.8364
 2369TIP3   OH228521   1.910   4.863   3.222 -0.0551 -0.6795  0.1546
 2369TIP3    H128522   1.827   4.843   3.264 -0.3930 -0.1579 -0.2679
 2369TIP3    H228523   1.887   4.910   3.142  0.6346 -0.6667 -0.0461
 2370TIP3   OH228524   5.868   2.111  14.574  0.2608  0.0350 -0.4426
 2370TIP3    H128525   5.886   2.170  14.501 -0.9374  1.3134  0.2660
 2370TIP3    H228526   5.809   2.045  14.538 -2.1681  1.9251 -0.1596
 2371TIP3   OH228527   3.283   1.095  12.767 -0.4439 -0.0600  0.1942
 2371TIP3    H128528   3.223   1.083  12.841 -0.1789 -1.2484  0.2430
 2371TIP3    H228529   3.269   1.018  12.712 -0.0244  0.3910 -0.5584
 2372TIP3   OH228530   0.689   0.442   4.668 -0.3314 -0.2972 -0.4255
 2372TIP3    H128531   0.706   0.488   4.751  0.2880  0.7472 -1.1000
 2372TIP3    H228532   0.672   0.513   4.605 -2.3248 -1.1189 -0.8865
 2373TIP3   OH228533   1.400   3.089  15.659 -0.7137 -0.1859 -0.7073
 2373TIP3    H128534   1.378   3.158  15.596  0.5087 -0.1501 -1.1259
 2373TIP3    H228535   1.403   3.134  15.743  0.0591  0.2877 -0.9752
 2374TIP3   OH228536   1.269   0.296   0.079 -0.7882 -0.4973 -0.1025
 2374TIP3    H128537   1.264   0.298  -0.017 -1.5414 -0.4316 -0.0726
 2374TIP3    H228538   1.338   0.232   0.098  0.9396  1.0961 -0.7013
 2375TIP3   OH228539   4.993   4.566  11.642 -0.2160  0.2539 -0.7438
 2375TIP3    H128540   5.048   4.643  11.654 -0.6253  0.3520  0.6431
 2375TIP3    H228541   5.053   4.498  11.611  0.4064  0.7589 -0.6469
 2376TIP3   OH228542   2.979   6.303   5.416 -0.1198 -0.0107  0.2630
 2376TIP3    H128543   2.906   6.250   5.385  1.7188 -2.7097  0.2371
 2376TIP3    H228544   2.938   6.380   5.455 -2.9459 -1.3902  0.2500
 2377TIP3   OH228545   2.218   2.966   0.960 -0.4129 -0.4730 -0.6058
 2377TIP3    H128546   2.203   2.956   1.054 -0.3955 -1.9115 -0.7374
 2377TIP3    H228547   2.140   2.928   0.919 -0.7994  0.8688 -1.1838
 2378TIP3   OH228548   4.398   5.095   4.349  0.1715 -0.2061  0.0173
 2378TIP3    H128549   4.353   5.123   4.270 -0.3091 -0.6635  0.1196
 2378TIP3    H228550   4.489   5.081   4.322 -0.4204 -2.5637 -1.0357
 2379TIP3   OH228551   1.418   6.131  14.694 -0.3111  0.5437 -0.1273
 2379TIP3    H128552   1.371   6.171  14.621  0.4660  1.9086  0.0788
 2379TIP3    H228553   1.504   6.174  14.694  0.0018 -0.0256  1.0833
 2380TIP3   OH228554   2.193   1.500  17.018  0.6132 -0.6003  0.1737
 2380TIP3    H128555   2.156   1.529  16.934  0.0148 -0.3048  0.5290
 2380TIP3    H228556   2.273   1.552  17.028  1.1579 -1.2537 -0.6102
 2381TIP3   OH228557   6.432   2.035   6.175 -0.7847  0.4425 -0.1738
 2381TIP3    H128558   6.509   2.053   6.230 -1.0290 -1.6031  0.9289
 2381TIP3    H228559   6.466   2.039   6.085  0.8065 -1.0358  0.3032
 2382TIP3   OH228560   5.902   0.724  16.768 -0.0496 -0.2106 -0.0117
 2382TIP3    H128561   5.843   0.707  16.694 -0.8170  0.0295  0.5282
 2382TIP3    H228562   5.985   0.748  16.727  0.0510 -1.7579 -0.7909
 2383TIP3   OH228563   4.793   2.989  12.917  0.0346 -0.1526  0.6847
 2383TIP3    H128564   4.801   3.077  12.881 -0.5550 -0.1445  0.5729
 2383TIP3    H228565   4.883   2.956  12.919  0.1307 -0.0211 -0.4637
 2384TIP3   OH228566   2.759   6.743   0.584  0.0393  0.2602 -0.0871
 2384TIP3    H128567   2.842   6.787   0.567  1.1728 -1.5958  0.3015
 2384TIP3    H228568   2.755   6.735   0.679  0.9474 -2.2561 -0.1742
 2385TIP3   OH228569   3.108   4.384  17.273 -0.1511  0.0801 -0.3892
 2385TIP3    H128570   3.051   4.361  17.346  0.4065 -1.9727 -0.5456
 2385TIP3    H228571   3.067   4.345  17.196  0.8326 -0.4085 -0.6840
 2386TIP3   OH228572   3.922   4.881  12.973 -0.1456 -0.4109 -0.2607
 2386TIP3    H128573   3.959   4.967  12.957  2.9441 -1.6640 -0.5481
 2386TIP3    H228574   3.874   4.890  13.056 -0.9069  1.7928 -0.8774
 2387TIP3   OH228575   4.235   6.286   5.477  0.5714  0.6640  0.0033
 2387TIP3    H128576   4.190   6.342   5.539  0.1666  1.4869 -0.9995
 2387TIP3    H228577   4.254   6.206   5.526  0.5207  1.3916  1.2461
 2388TIP3   OH228578   5.385   3.500   5.570  0.6843 -0.3698  0.0139
 2388TIP3    H128579   5.393   3.506   5.665 -0.5015  2.0342  0.0521
 2388TIP3    H228580   5.447   3.565   5.536  0.5287 -0.6347 -0.8138
 2389TIP3   OH228581   1.578   6.572  12.538  0.7152  0.3655 -0.1301
 2389TIP3    H128582   1.527   6.603  12.462  0.5334  0.0587 -0.1355
 2389TIP3    H228583   1.567   6.640  12.604  1.2984  0.8865 -0.5588
 2390TIP3   OH228584   6.442   2.019   2.380 -0.1496  0.3100 -0.0231
 2390TIP3    H128585   6.455   1.979   2.294 -1.6823 -0.8209  0.2163
 2390TIP3    H228586   6.361   1.978   2.413  0.3278  0.8135  1.8902
 2391TIP3   OH228587   3.468   4.715   3.876  0.0579 -0.1128 -0.6913
 2391TIP3    H128588   3.433   4.786   3.930 -0.9375 -1.4450  0.4962
 2391TIP3    H228589   3.399   4.700   3.810  0.9520  1.0229 -1.9410
 2392TIP3   OH228590   2.658   2.984  12.041  0.0735  0.2013  0.0913
 2392TIP3    H128591   2.699   3.023  11.963  0.8497  0.6664  0.7178
 2392TIP3    H228592   2.711   2.907  12.060  1.1520  1.2006  1.3311
 2393TIP3   OH228593   3.280   2.553  14.313  0.4611 -0.0786  0.1923
 2393TIP3    H128594   3.308   2.491  14.245  1.4832  0.8764 -0.2867
 2393TIP3    H228595   3.340   2.538  14.386  0.6486  0.2747  0.1121
 2394TIP3   OH228596   0.128   4.450   4.626 -0.3546  0.0481 -0.1246
 2394TIP3    H128597   0.215   4.424   4.596  1.1028  1.5670  2.4551
 2394TIP3    H228598   0.087   4.488   4.549  2.3667  1.8910 -0.8087
 2395TIP3   OH228599   6.311   4.639  12.184 -0.3509 -0.1679  0.2226
 2395TIP3    H128600   6.385   4.668  12.130 -0.5735  1.2703  0.6324
 2395TIP3    H228601   6.239   4.696  12.157 -0.6115  0.2037  1.6487
 2396TIP3   OH228602   1.337   4.104   3.999  0.1201  0.1454 -0.2817
 2396TIP3    H128603   1.293   4.177   3.955  0.1562  1.0728  1.1793
 2396TIP3    H228604   1.409   4.081   3.940 -1.0337 -0.0071 -1.6859
 2397TIP3   OH228605   5.531   2.278  14.203  0.0124  0.5383 -0.0861
 2397TIP3    H128606   5.528   2.363  14.248 -1.1912  0.4291  0.0892
 2397TIP3    H228607   5.514   2.299  14.111 -0.3858  0.4936 -0.0272
 2398TIP3   OH228608   6.725   5.316  15.708  0.3284  0.1309 -0.3422
 2398TIP3    H128609   6.806   5.338  15.663 -1.2676  0.1189 -3.5504
 2398TIP3    H228610   6.663   5.297  15.638 -2.1050 -1.2500  1.9677
 2399TIP3   OH228611   0.839   6.693   6.233 -0.1341 -0.6404 -0.0052
 2399TIP3    H128612   0.750   6.729   6.241  0.0293 -0.1324 -0.4374
 2399TIP3    H228613   0.871   6.726   6.149  0.3283 -1.1290 -0.0251
 2400TIP3   OH228614   4.294   0.066   4.790 -0.1532 -0.1774  0.0583
 2400TIP3    H128615   4.235   0.129   4.749  1.6704  0.4898 -1.7313
 2400TIP3    H228616   4.377   0.113   4.798  0.2606 -1.1645  2.2368
 2401TIP3   OH228617   5.217   5.882  14.592  0.1332  0.2159  0.3381
 2401TIP3    H128618   5.279   5.833  14.538 -0.1985  0.5319 -0.3462
 2401TIP3    H228619   5.168   5.815  14.639  1.7396 -0.0155  1.7644
 2402TIP3   OH228620   0.949   5.025  13.903 -0.4943  0.2701 -0.0891
 2402TIP3    H128621   0.863   4.989  13.922 -1.0120  1.0116 -0.9522
 2402TIP3    H228622   1.003   4.998  13.977 -1.6981  0.6076  0.9492
 2403TIP3   OH228623   3.297   5.281   4.647  0.2262 -0.8067  0.5900
 2403TIP3    H128624   3.365   5.228   4.607 -0.0426 -0.8010  0.1264
 2403TIP3    H228625   3.230   5.219   4.674 -1.1310 -0.5684 -1.9399
 2404TIP3   OH228626   1.476   0.659   3.763  0.4437  0.3043 -0.3782
 2404TIP3    H128627   1.537   0.697   3.827  0.3944 -1.6033  0.8805
 2404TIP3    H228628   1.412   0.613   3.817 -0.1476 -0.5815 -1.8062
 2405TIP3   OH228629   2.260   5.623   4.729  0.2598  0.3212 -0.6479
 2405TIP3    H128630   2.356   5.627   4.736  0.2358  0.6310 -0.4709
 2405TIP3    H228631   2.229   5.676   4.803 -0.0445  0.3698 -0.8122
 2406TIP3   OH228632   3.845   2.756   5.801 -0.1789 -0.1450 -0.4060
 2406TIP3    H128633   3.862   2.797   5.886 -1.0124 -2.5967  1.0522
 2406TIP3    H228634   3.847   2.829   5.738  0.1458  1.8042  1.7318
 2407TIP3   OH228635   3.376   0.821  14.801  0.0410  0.2708 -0.0103
 2407TIP3    H128636   3.319   0.888  14.763 -0.4154 -0.7758 -1.2775
 2407TIP3    H228637   3.422   0.865  14.872 -0.6968  1.7458 -0.4110
 2408TIP3   OH228638   3.138   1.642  17.244  0.5018  0.2335  0.0791
 2408TIP3    H128639   3.070   1.678  17.301  0.1042 -1.9507  1.0953
 2408TIP3    H228640   3.187   1.719  17.213 -1.4293  1.7392  0.5677
 2409TIP3   OH228641   0.646   2.595   1.158  0.6889  0.7851 -0.5616
 2409TIP3    H128642   0.568   2.539   1.148 -0.7023  2.6987 -0.9642
 2409TIP3    H228643   0.673   2.583   1.249 -0.2271  0.2837 -0.3435
 2410TIP3   OH228644   3.939   1.877   1.118 -0.8294  0.0190 -0.2537
 2410TIP3    H128645   3.856   1.861   1.163 -1.5557  0.0644 -1.5517
 2410TIP3    H228646   3.975   1.954   1.163 -2.3019  1.0409 -0.7470
 2411TIP3   OH228647   0.571   4.397  15.326  0.2498  0.0157 -0.7493
 2411TIP3    H128648   0.549   4.456  15.253  0.3525 -0.0991 -0.8713
 2411TIP3    H228649   0.522   4.317  15.308 -1.1405  0.6020  0.2236
 2412TIP3   OH228650   5.248   3.799  12.533  0.5471 -1.0500 -0.0129
 2412TIP3    H128651   5.333   3.839  12.517  0.0697  0.2409  0.5163
 2412TIP3    H228652   5.215   3.843  12.612  0.2156 -2.8826  0.9215
 2413TIP3   OH228653   0.245   0.284   5.716  0.0364  0.4565  0.7135
 2413TIP3    H128654   0.317   0.234   5.756 -0.2108 -0.3446  0.1793
 2413TIP3    H228655   0.196   0.320   5.790  0.0138 -0.3920  1.1165
 2414TIP3   OH228656   5.122   3.544   4.266  0.1012  0.1753 -0.3829
 2414TIP3    H128657   5.119   3.588   4.351  2.4250 -0.4164  0.0772
 2414TIP3    H228658   5.072   3.464   4.279  0.1957  0.2268  0.3358
 2415TIP3   OH228659   6.199   2.659   2.014  0.3774 -0.2304 -0.2347
 2415TIP3    H128660   6.233   2.741   1.977 -0.4014  0.6604  0.9318
 2415TIP3    H228661   6.194   2.676   2.108 -0.2533 -1.4593 -0.0238
 2416TIP3   OH228662   0.837   0.104  14.000 -0.5572  0.3695 -0.2186
 2416TIP3    H128663   0.774   0.052  13.950 -1.7979  0.1142  1.5293
 2416TIP3    H228664   0.921   0.087  13.957 -1.0679 -2.3270 -0.3461
 2417TIP3   OH228665   0.227   4.103  13.696 -0.4875 -0.0149  0.8136
 2417TIP3    H128666   0.194   4.190  13.671 -0.9503 -0.7738 -1.4346
 2417TIP3    H228667   0.207   4.047  13.621  2.6164 -1.3920  0.8641
 2418TIP3   OH228668   4.341   1.594   6.545  0.3087  0.3433  0.0764
 2418TIP3    H128669   4.343   1.648   6.466 -0.5057  0.4871  0.1440
 2418TIP3    H228670   4.341   1.504   6.512 -2.6669  0.3712 -0.2379
 2419TIP3   OH228671   4.110   1.749  13.092 -0.4555 -0.0704  0.6058
 2419TIP3    H128672   4.111   1.657  13.067  0.4949 -0.0040  0.3657
 2419TIP3    H228673   4.080   1.795  13.013 -0.0387 -0.0948  0.4319
 2420TIP3   OH228674   4.925   0.557  16.149 -0.3889 -0.2297 -0.2501
 2420TIP3    H128675   4.871   0.527  16.076  1.6750  0.4086 -2.1380
 2420TIP3    H228676   5.012   0.570  16.112  1.0581 -0.9048  2.5756
 2421TIP3   OH228677   3.838   2.614   3.613  0.0026 -0.1691 -0.5188
 2421TIP3    H128678   3.773   2.682   3.630 -0.8383 -0.4546 -2.3609
 2421TIP3    H228679   3.805   2.568   3.536  2.9754  0.4245 -2.3209
 2422TIP3   OH228680   6.729   6.126   6.017  0.1816  0.0695 -0.3883
 2422TIP3    H128681   6.816   6.103   5.985  0.9958 -1.8425  2.8014
 2422TIP3    H228682   6.731   6.221   6.025  0.7724  0.4012 -3.2493
 2423TIP3   OH228683   5.918   0.012  13.315 -0.3475 -0.0377 -0.0181
 2423TIP3    H128684   5.835  -0.022  13.280 -0.1244  0.2860 -0.8665
 2423TIP3    H228685   5.906   0.009  13.410 -1.0650 -0.6594 -0.1163
 2424TIP3   OH228686   6.078   0.498   1.291 -0.2556 -0.5466 -0.0885
 2424TIP3    H128687   6.018   0.561   1.251  0.2196  0.8193  1.2588
 2424TIP3    H228688   6.021   0.442   1.343 -0.4617  0.4123  0.7636
 2425TIP3   OH228689   4.166   6.404  15.813  0.2214  0.6509  0.3447
 2425TIP3    H128690   4.258   6.386  15.794  0.6348  0.4047  2.4054
 2425TIP3    H228691   4.167   6.467  15.884 -1.1956  0.3409  0.6780
 2426TIP3   OH228692   1.968   2.457   5.119  0.2648 -0.2482 -0.5570
 2426TIP3    H128693   1.930   2.455   5.032  0.7860  0.3359 -0.8069
 2426TIP3    H228694   2.059   2.430   5.107  0.7703  1.2751 -0.4503
 2427TIP3   OH228695   0.340   3.759   4.201 -0.2199 -0.1755  0.5182
 2427TIP3    H128696   0.279   3.726   4.134 -1.4789  2.2703  0.3106
 2427TIP3    H228697   0.283   3.795   4.269  1.0487 -0.9016  2.0250
 2428TIP3   OH228698   4.374   3.209   3.138 -0.4480 -0.7322  1.1494
 2428TIP3    H128699   4.456   3.165   3.163 -0.6133 -0.5737  2.0108
 2428TIP3    H228700   4.334   3.151   3.074  1.0582 -0.0926 -0.4615
 2429TIP3   OH228701   1.096   2.507  13.085 -0.1129  0.0743  0.4383
 2429TIP3    H128702   1.083   2.417  13.116  0.3974 -0.1221  0.0873
 2429TIP3    H228703   1.191   2.517  13.080 -0.1509  0.8146  0.9957
 2430TIP3   OH228704   4.950   4.958   0.930 -0.1040  0.1038  0.0934
 2430TIP3    H128705   4.928   4.991   0.843 -0.2887  0.6891  0.3517
 2430TIP3    H228706   4.866   4.931   0.967  0.2296 -2.3886 -0.7685
 2431TIP3   OH228707   6.505   6.701   4.782 -0.0713  0.0169  0.8129
 2431TIP3    H128708   6.428   6.713   4.728  0.7014 -1.0273 -0.5721
 2431TIP3    H228709   6.567   6.767   4.751 -0.1085  0.3333  1.3897
 2432TIP3   OH228710   0.332   6.602   3.209  0.4251  0.3998  0.4945
 2432TIP3    H128711   0.362   6.612   3.118 -0.6255  0.3987  0.1342
 2432TIP3    H228712   0.264   6.669   3.219 -1.7743 -1.6874  0.2431
 2433TIP3   OH228713   1.222   5.508   2.057 -0.0976  0.1561 -0.7272
 2433TIP3    H128714   1.159   5.543   2.120  1.7203  2.1216  0.1199
 2433TIP3    H228715   1.189   5.534   1.971 -0.9642  0.2328 -0.3765
 2434TIP3   OH228716   0.444   4.689   2.145  0.3050  0.4780  0.1019
 2434TIP3    H128717   0.457   4.671   2.238  1.1019 -0.5567 -0.1981
 2434TIP3    H228718   0.525   4.732   2.117 -0.6509  2.5212  0.2771
 2435TIP3   OH228719   1.342   4.293   4.867 -0.3262  0.6576  0.3189
 2435TIP3    H128720   1.251   4.324   4.870 -1.2033 -1.5655 -0.7723
 2435TIP3    H228721   1.367   4.300   4.775 -0.0141 -0.2819  0.3196
 2436TIP3   OH228722   2.022   1.243   0.382  0.1253 -0.5361 -0.3508
 2436TIP3    H128723   2.030   1.182   0.309  0.1272 -0.9377 -0.0145
 2436TIP3    H228724   2.047   1.328   0.345 -1.0864 -0.4998 -1.1543
 2437TIP3   OH228725   2.329   1.493  12.912  0.1332  0.0539  0.0192
 2437TIP3    H128726   2.341   1.537  12.996 -1.3697 -0.4073  0.5111
 2437TIP3    H228727   2.414   1.497  12.870  0.9575  0.1398  1.6347
 2438TIP3   OH228728   5.170   2.247  12.614 -0.2786 -0.0182  0.1225
 2438TIP3    H128729   5.146   2.339  12.621 -0.6549  0.1189 -2.1552
 2438TIP3    H228730   5.255   2.247  12.569 -0.5563 -0.7685 -0.4371
 2439TIP3   OH228731   2.215   6.529  15.430  0.2509  0.2810 -0.6228
 2439TIP3    H128732   2.157   6.599  15.460  0.9893  1.1403 -1.1528
 2439TIP3    H228733   2.289   6.574  15.390  1.5316 -0.7697  0.4514
 2440TIP3   OH228734   5.583   5.198   5.419  0.0320 -0.1293 -0.3472
 2440TIP3    H128735   5.529   5.211   5.342 -1.0405  0.7977  0.5224
 2440TIP3    H228736   5.575   5.281   5.468 -1.5752 -1.6013  2.1080
 2441TIP3   OH228737   2.501   6.320  15.166 -0.0483  0.4121 -0.1057
 2441TIP3    H128738   2.566   6.276  15.220  0.0400  0.2004 -0.3821
 2441TIP3    H228739   2.497   6.409  15.201  0.5022  0.4685 -0.1885
 2442TIP3   OH228740   4.233   5.351   1.798  0.3257 -0.4353  0.0685
 2442TIP3    H128741   4.309   5.406   1.779  0.6948 -1.1973 -0.7197
 2442TIP3    H228742   4.175   5.408   1.849  0.8790  0.5459 -0.3563
 2443TIP3   OH228743   5.733   5.487  11.805 -0.1012 -0.8846 -0.0946
 2443TIP3    H128744   5.744   5.421  11.736  0.2607 -0.4941 -0.4168
 2443TIP3    H228745   5.659   5.455  11.857 -1.5328 -0.3217 -1.6763
 2444TIP3   OH228746   5.573   4.694  11.410 -0.0017  0.0450  0.1633
 2444TIP3    H128747   5.517   4.771  11.419  0.4415  0.2814  0.9809
 2444TIP3    H228748   5.648   4.712  11.467  0.3889 -0.7377 -0.0888
 2445TIP3   OH228749   3.376   4.217   4.185 -0.0492  0.1141 -0.0274
 2445TIP3    H128750   3.394   4.135   4.138 -1.0164  0.4883 -1.0863
 2445TIP3    H228751   3.425   4.209   4.267  2.2651 -0.2842 -1.3665
 2446TIP3   OH228752   3.739   1.662  12.893 -0.3830  0.0526  0.1878
 2446TIP3    H128753   3.653   1.620  12.899 -1.0926  1.3721 -0.2648
 2446TIP3    H228754   3.781   1.621  12.818 -0.6569 -0.5434  0.3561
 2447TIP3   OH228755   3.031   1.110   0.745 -0.0984 -0.0851 -0.4584
 2447TIP3    H128756   3.110   1.162   0.758  1.2261 -1.6547 -1.7473
 2447TIP3    H228757   3.013   1.071   0.830  1.0951 -0.4557 -0.3566
 2448TIP3   OH228758   6.116   5.537  12.357  0.0614 -0.0978 -0.3331
 2448TIP3    H128759   6.093   5.553  12.448 -1.7669  1.7833 -1.0186
 2448TIP3    H228760   6.173   5.610  12.333 -0.9297  0.4641 -1.1121
 2449TIP3   OH228761   2.129   1.376   3.772 -0.2896  0.1065  0.3890
 2449TIP3    H128762   2.173   1.301   3.731 -1.6238 -1.3830  1.5430
 2449TIP3    H228763   2.070   1.409   3.704  0.4335  0.2433 -0.1865
 2450TIP3   OH228764   5.894   0.405   1.680 -0.2726 -0.3360 -0.2756
 2450TIP3    H128765   5.967   0.461   1.706 -0.1267 -0.7422  0.2002
 2450TIP3    H228766   5.893   0.334   1.744 -1.2000 -0.2451 -0.1730
 2451TIP3   OH228767   0.712   5.416  11.145 -0.2167  0.2472  0.0873
 2451TIP3    H128768   0.747   5.432  11.233  0.3379 -1.4925  0.2256
 2451TIP3    H228769   0.686   5.503  11.114 -2.1897  0.7292  2.6655
 2452TIP3   OH228770   6.131   3.969   6.888  0.2566 -0.1961 -0.5519
 2452TIP3    H128771   6.059   3.928   6.839 -0.9517  0.1195  0.8887
 2452TIP3    H228772   6.102   4.059   6.902  0.7804 -0.1581  0.3425
 2453TIP3   OH228773   4.701   0.785  17.409  0.1939 -0.1681  0.6635
 2453TIP3    H128774   4.787   0.800  17.449 -0.8530  0.8442  2.7070
 2453TIP3    H228775   4.708   0.822  17.321  1.9346 -0.3998  0.6835
 2454TIP3   OH228776   1.605   0.353  17.085 -0.6731  0.8850 -0.0521
 2454TIP3    H128777   1.611   0.385  16.994 -1.8551  0.7059 -0.2025
 2454TIP3    H228778   1.590   0.433  17.137  0.9588  1.1157  0.1286
 2455TIP3   OH228779   4.822   1.132   5.766  0.2854 -0.2792  0.3061
 2455TIP3    H128780   4.770   1.155   5.843  1.1376 -4.2679  2.3122
 2455TIP3    H228781   4.913   1.140   5.795  0.6716 -0.1125 -0.9034
 2456TIP3   OH228782   0.478   4.159   0.254 -0.5634 -0.3223 -0.0115
 2456TIP3    H128783   0.391   4.124   0.238 -0.6803 -0.5514  1.0943
 2456TIP3    H228784   0.511   4.108   0.328  0.0462  0.5681  0.3371
 2457TIP3   OH228785   4.761   5.836   5.932  0.0227  0.3017  0.1643
 2457TIP3    H128786   4.769   5.817   6.026  1.0411  0.4206  0.1126
 2457TIP3    H228787   4.709   5.916   5.929 -3.0895 -1.5475  0.4399
 2458TIP3   OH228788   1.474   3.795  11.143  0.4668  0.1737  0.1871
 2458TIP3    H128789   1.449   3.866  11.201  0.0254  1.0030 -0.9978
 2458TIP3    H228790   1.391   3.754  11.117  0.5713  0.4937 -0.6944
 2459TIP3   OH228791   5.306   4.715   5.036  0.8242  0.3990 -0.2224
 2459TIP3    H128792   5.235   4.682   4.982 -1.2698  2.5219  1.0272
 2459TIP3    H228793   5.385   4.673   5.002 -0.8988 -1.3624 -2.2591
 2460TIP3   OH228794   5.821   3.732  14.935  0.0192 -0.8978 -0.1799
 2460TIP3    H128795   5.748   3.673  14.951  0.5232 -1.0424  1.8942
 2460TIP3    H228796   5.886   3.709  15.002  2.4370 -1.4746 -2.5459
 2461TIP3   OH228797   1.477   3.218   1.385 -0.0574  0.7474 -0.4071
 2461TIP3    H128798   1.535   3.143   1.375  0.5124  1.0510  0.5200
 2461TIP3    H228799   1.495   3.273   1.308 -0.5031 -0.0631 -1.1046
 2462TIP3   OH228800   0.368   0.626   2.829  0.1761  0.5856  0.0883
 2462TIP3    H128801   0.301   0.573   2.873 -0.2177  0.3065 -0.8226
 2462TIP3    H228802   0.395   0.690   2.895  0.1716 -0.3200  0.9808
 2463TIP3   OH228803   3.655   6.393  11.870 -0.1219 -0.1196  0.2688
 2463TIP3    H128804   3.657   6.335  11.946  0.5126 -0.9961 -0.3941
 2463TIP3    H228805   3.728   6.453  11.884  0.7172 -1.0000 -0.1666
 2464TIP3   OH228806   3.486   0.771   0.222 -0.3205 -0.1866 -0.2426
 2464TIP3    H128807   3.454   0.843   0.276  0.4253  0.4183 -0.5709
 2464TIP3    H228808   3.555   0.730   0.274 -0.9161 -0.8245  0.0451
 2465TIP3   OH228809   1.355   3.377  11.160 -0.1855 -0.0389 -0.4451
 2465TIP3    H128810   1.285   3.432  11.194  0.2807  0.5508 -0.4327
 2465TIP3    H228811   1.373   3.412  11.073  0.9570  0.6182  0.0385
 2466TIP3   OH228812   2.366   3.705   2.920 -0.0640 -0.1059  0.6945
 2466TIP3    H128813   2.326   3.748   2.996  2.2341 -0.2033  2.0791
 2466TIP3    H228814   2.398   3.776   2.865 -1.3637 -0.0418 -0.0191
 2467TIP3   OH228815   0.939   0.764   2.658 -0.0842  0.2136 -0.5352
 2467TIP3    H128816   1.030   0.758   2.629  0.5863 -1.6963  1.7178
 2467TIP3    H228817   0.903   0.678   2.641 -0.8440  0.3118  0.5458
 2468TIP3   OH228818   5.092   2.052  17.160 -0.8391  0.2234 -0.3772
 2468TIP3    H128819   5.044   2.110  17.219 -1.7904 -1.2121  0.2946
 2468TIP3    H228820   5.039   2.048  17.081 -0.8154  0.2084 -0.3917
 2469TIP3   OH228821   0.114   0.076   2.675  0.1945 -0.0085  0.1754
 2469TIP3    H128822   0.082   0.033   2.755  0.0629  0.5125  0.4130
 2469TIP3    H228823   0.049   0.055   2.609 -0.1192  0.2165  0.4089
 2470TIP3   OH228824   0.939   2.006   1.034  0.2831  0.4916  0.2815
 2470TIP3    H128825   0.851   1.993   1.000  0.4751  0.3534 -0.1710
 2470TIP3    H228826   0.930   2.076   1.099 -0.2296  0.1853  0.5468
 2471TIP3   OH228827   4.287   3.700  15.966 -0.1274 -0.4786 -0.0796
 2471TIP3    H128828   4.319   3.618  16.003  0.6251  0.0265  0.4420
 2471TIP3    H228829   4.192   3.694  15.970 -0.0993 -1.6507 -0.7923
 2472TIP3   OH228830   0.903   1.467  13.123 -1.0852 -0.0484  0.3319
 2472TIP3    H128831   0.915   1.545  13.178  0.1342 -0.7771  1.1432
 2472TIP3    H228832   0.991   1.445  13.094 -1.6080 -0.2297 -1.1926
 2473TIP3   OH228833   5.751   4.885  15.722 -0.5629  0.3400 -0.2753
 2473TIP3    H128834   5.845   4.899  15.721 -0.7482  1.8626  0.2553
 2473TIP3    H228835   5.723   4.917  15.808 -1.6429  0.6219 -0.7109
 2474TIP3   OH228836   1.153   3.467   6.438 -0.8722 -0.3766  0.2884
 2474TIP3    H128837   1.100   3.532   6.391 -2.0622 -0.3804  1.5500
 2474TIP3    H228838   1.216   3.519   6.488  0.4142 -0.3730 -1.2295
 2475TIP3   OH228839   4.897   0.259   3.462  0.6475 -0.3752 -0.1454
 2475TIP3    H128840   4.929   0.237   3.375 -0.6823 -1.2607 -0.4432
 2475TIP3    H228841   4.870   0.350   3.456  1.9891  0.0360 -0.2046
 2476TIP3   OH228842   0.490   2.321  10.291 -0.0850  0.6215  0.1163
 2476TIP3    H128843   0.581   2.353  10.290 -0.1401  0.9663  1.8161
 2476TIP3    H228844   0.493   2.244  10.348 -0.4618 -0.8370 -1.7451
 2477TIP3   OH228845   4.660   5.315   4.964 -0.2799  0.5812  0.1210
 2477TIP3    H128846   4.613   5.349   4.888 -0.9669  0.4828  0.4940
 2477TIP3    H228847   4.732   5.265   4.927 -0.9386  0.0508 -0.4736
 2478TIP3   OH228848   3.006   1.042   1.995  0.0022  0.4424  0.5190
 2478TIP3    H128849   3.015   1.068   2.087  1.7313 -1.7052  1.0456
 2478TIP3    H228850   3.028   0.949   1.994 -0.6921  0.2233 -1.9943
 2479TIP3   OH228851   4.899   3.793   2.955 -0.1791 -0.0039 -0.3288
 2479TIP3    H128852   4.928   3.707   2.987  2.2934  1.3581  1.4414
 2479TIP3    H228853   4.963   3.816   2.887 -0.3523  0.7589 -0.2388
 2480TIP3   OH228854   4.413   3.638   3.740 -0.3767 -0.2988  0.0415
 2480TIP3    H128855   4.451   3.550   3.745  1.7768  0.5813  0.6752
 2480TIP3    H228856   4.476   3.688   3.689 -0.5628  1.3124  1.3065
 2481TIP3   OH228857   3.152   6.171   1.573  0.0870  0.5073 -0.3113
 2481TIP3    H128858   3.109   6.215   1.647  1.9206  1.7439  0.0849
 2481TIP3    H228859   3.079   6.147   1.515 -1.3523 -0.0168  1.6101
 2482TIP3   OH228860   5.137   0.777  13.647  0.1542 -0.5963  0.4675
 2482TIP3    H128861   5.148   0.748  13.738  0.5141  1.6395  1.1954
 2482TIP3    H228862   5.051   0.817  13.644 -0.0742 -1.1193 -0.3391
 2483TIP3   OH228863   2.693   4.181   3.897 -0.0134 -0.2776 -0.3701
 2483TIP3    H128864   2.670   4.254   3.839 -0.6435 -1.5341 -1.7762
 2483TIP3    H228865   2.608   4.141   3.919  0.1727  0.3673  1.7553
 2484TIP3   OH228866   4.561   5.880   0.892 -0.3847  0.1535 -0.6744
 2484TIP3    H128867   4.648   5.892   0.855 -0.2031 -1.3245 -0.7885
 2484TIP3    H228868   4.571   5.902   0.985  0.1666 -0.1822 -0.6484
 2485TIP3   OH228869   5.574   1.742   1.404 -0.3502 -0.4516  0.2483
 2485TIP3    H128870   5.573   1.837   1.408 -3.5784 -0.2019 -2.2062
 2485TIP3    H228871   5.657   1.721   1.361  0.0320  1.2940  0.0540
 2486TIP3   OH228872   5.309   6.027  14.221 -0.9272 -0.1640  0.4498
 2486TIP3    H128873   5.255   5.959  14.263  0.0188 -2.9284 -2.4128
 2486TIP3    H228874   5.282   6.025  14.129  2.6936 -0.4355 -0.7598
 2487TIP3   OH228875   1.502   6.402  15.035 -0.3765 -0.2657 -0.5988
 2487TIP3    H128876   1.518   6.393  15.129 -0.2910 -1.2086 -0.6882
 2487TIP3    H228877   1.578   6.360  14.994  0.5626  1.8367 -1.1329
 2488TIP3   OH228878   4.744   0.181   1.343 -0.0333 -0.3906 -0.0786
 2488TIP3    H128879   4.816   0.164   1.404 -0.2760 -0.7251  0.1228
 2488TIP3    H228880   4.785   0.182   1.257  0.4153  0.6978  0.1268
 2489TIP3   OH228881   6.421   1.401  13.742  0.2508 -0.1397 -0.5711
 2489TIP3    H128882   6.347   1.351  13.775 -0.0179  1.6747  1.8790
 2489TIP3    H228883   6.460   1.345  13.675 -1.4655 -2.4904  0.2478
 2490TIP3   OH228884   1.277   5.863   6.600 -0.3881 -0.2760  0.2620
 2490TIP3    H128885   1.372   5.850   6.602 -0.2302  0.8473  0.6915
 2490TIP3    H228886   1.253   5.883   6.690 -1.1909 -1.4625  0.3422
 2491TIP3   OH228887   1.237   5.466   1.555  0.5917  0.2054  0.7651
 2491TIP3    H128888   1.193   5.441   1.473  1.4669  0.5134  0.1854
 2491TIP3    H228889   1.284   5.546   1.533 -0.4536  1.2163  2.0159
 2492TIP3   OH228890   4.964   4.300  13.972  0.0033  0.4739 -0.0008
 2492TIP3    H128891   4.943   4.303  13.879 -1.5271 -0.2024  0.2751
 2492TIP3    H228892   4.878   4.295  14.015  0.7049 -0.9563  1.3389
 2493TIP3   OH228893   2.128   2.968  11.726  0.0012 -0.0628  0.0354
 2493TIP3    H128894   2.115   3.051  11.680  0.1263 -0.9617 -1.7149
 2493TIP3    H228895   2.205   2.983  11.780 -0.6372  1.2946  0.6197
 2494TIP3   OH228896   1.178   1.281   4.461 -0.3284  0.3182 -0.1854
 2494TIP3    H128897   1.226   1.311   4.538 -0.4473  1.4200 -0.5149
 2494TIP3    H228898   1.218   1.197   4.438 -0.1399  0.0905  0.9289
 2495TIP3   OH228899   5.867   6.624   0.663 -0.3740  0.1111 -0.0730
 2495TIP3    H128900   5.900   6.543   0.623 -0.1172  0.5141 -0.6906
 2495TIP3    H228901   5.924   6.638   0.739  1.5536  1.2748 -1.6117
 2496TIP3   OH228902   0.499   0.017   4.324  0.0003 -0.3114 -0.2288
 2496TIP3    H128903   0.530  -0.063   4.367  1.8166  0.3880 -0.1487
 2496TIP3    H228904   0.577   0.072   4.317 -0.9085  0.8655 -1.6085
 2497TIP3   OH228905   4.751   0.949   5.559 -0.3153 -0.0078 -0.2358
 2497TIP3    H128906   4.775   0.989   5.643  1.0847 -0.8367 -0.1894
 2497TIP3    H228907   4.784   1.010   5.493 -1.3453  0.6062 -0.1903
 2498TIP3   OH228908   5.552   3.106   2.070 -0.2260 -0.1456 -0.0154
 2498TIP3    H128909   5.498   3.170   2.115 -1.6441 -1.3137  0.0218
 2498TIP3    H228910   5.490   3.055   2.017  0.7120 -1.9585  0.5350
 2499TIP3   OH228911   1.619   0.149   5.547  0.8859  0.0162 -0.1491
 2499TIP3    H128912   1.669   0.143   5.629 -0.1537  0.3217  0.5186
 2499TIP3    H228913   1.686   0.147   5.478  1.7807 -0.1437  0.7031
 2500TIP3   OH228914   3.807   0.359  15.407  0.6791 -0.2745 -0.1220
 2500TIP3    H128915   3.726   0.339  15.362  1.6577 -2.0837 -1.1939
 2500TIP3    H228916   3.837   0.274  15.442  1.9026  0.4060  0.5706
 2501TIP3   OH228917   3.080   3.005  11.749 -0.1053 -0.4294  0.3066
 2501TIP3    H128918   3.020   2.954  11.694  0.5791 -1.3710  0.4044
 2501TIP3    H228919   3.167   2.977  11.721  0.3282  1.1498 -0.0611
 2502TIP3   OH228920   6.118   3.397  12.709  0.7911 -0.5684 -0.0511
 2502TIP3    H128921   6.037   3.377  12.661  1.2985  1.1140 -1.7606
 2502TIP3    H228922   6.153   3.312  12.734 -0.7499 -1.3992 -0.5672
 2503TIP3   OH228923   6.238   2.072  13.578 -0.1037 -0.1660 -0.2545
 2503TIP3    H128924   6.219   2.013  13.651 -1.1850  0.2616 -0.1706
 2503TIP3    H228925   6.329   2.052  13.554  0.4982  0.1127  1.6052
 2504TIP3   OH228926   1.426   6.523  11.745  0.7464 -0.0248  0.4911
 2504TIP3    H128927   1.465   6.579  11.811  1.2531  0.1866  0.0159
 2504TIP3    H228928   1.345   6.490  11.786  0.5531  0.8782  0.8497
 2505TIP3   OH228929   4.166   5.067  16.095  0.4531  0.2693  0.1925
 2505TIP3    H128930   4.109   5.013  16.149  1.0483 -1.2469 -0.6201
 2505TIP3    H228931   4.250   5.019  16.095  1.1141  1.3974 -0.2614
 2506TIP3   OH228932   4.225   3.646   4.466 -0.1749 -0.0064  0.3672
 2506TIP3    H128933   4.238   3.740   4.459 -0.0915 -0.0892 -0.8090
 2506TIP3    H228934   4.267   3.622   4.548  3.0409  0.4704 -0.9744
 2507TIP3   OH228935   1.646   1.551   2.219 -0.3441 -0.2774 -0.2649
 2507TIP3    H128936   1.590   1.612   2.171  0.1101  0.0678 -0.3639
 2507TIP3    H228937   1.727   1.548   2.168  1.0123  1.8004  1.6168
 2508TIP3   OH228938   0.611   1.532   3.616  0.3295 -0.0425  0.0329
 2508TIP3    H128939   0.581   1.547   3.706  1.7439  2.4616  0.1983
 2508TIP3    H228940   0.548   1.580   3.561  0.7434  0.3628 -0.0970
 2509TIP3   OH228941   0.076   2.117   5.277 -0.4568 -0.4764 -0.7750
 2509TIP3    H128942   0.094   2.209   5.299 -2.1298  0.3484 -2.5972
 2509TIP3    H228943   0.013   2.089   5.343 -0.8747  0.0797 -0.9266
 2510TIP3   OH228944   2.799   4.936   1.571 -0.4194  0.3253 -0.2645
 2510TIP3    H128945   2.777   4.961   1.481 -0.7441  0.9133 -0.0314
 2510TIP3    H228946   2.818   5.019   1.615 -0.3725  0.0531  0.2368
 2511TIP3   OH228947   3.009   2.996  15.976  0.3040 -0.2723  0.0924
 2511TIP3    H128948   3.057   2.914  15.982 -0.3411 -1.1094 -3.4986
 2511TIP3    H228949   3.075   3.061  15.951  0.2453 -0.5822 -0.9216
 2512TIP3   OH228950   4.849   2.959  14.356  0.1903  0.3282 -0.0036
 2512TIP3    H128951   4.758   2.934  14.342  0.1843  0.0880  0.4583
 2512TIP3    H228952   4.846   3.055  14.364 -0.0369  0.3119  0.1181
 2513TIP3   OH228953   3.097   5.951  15.800 -0.7833 -0.2467  0.0680
 2513TIP3    H128954   3.158   5.964  15.872  0.4702 -0.8169 -0.8561
 2513TIP3    H228955   3.118   5.864  15.766 -1.7738 -0.2489 -0.5860
 2514TIP3   OH228956   1.508   4.616   6.157  0.2503  0.6908  0.2861
 2514TIP3    H128957   1.434   4.652   6.110  0.5327 -0.9599 -1.5477
 2514TIP3    H228958   1.472   4.541   6.205  0.7349 -0.2765 -0.8184
 2515TIP3   OH228959   1.193   3.801  11.287 -0.4607  0.3229  0.0358
 2515TIP3    H128960   1.127   3.801  11.217 -0.0737  0.4651 -0.3355
 2515TIP3    H228961   1.189   3.889  11.323 -1.9843 -0.2752  1.4827
 2516TIP3   OH228962   5.650   1.855  10.563  0.3865  0.2064 -0.9196
 2516TIP3    H128963   5.673   1.805  10.641  1.0360  0.5986 -0.8493
 2516TIP3    H228964   5.684   1.943  10.581 -0.4404  0.5930 -1.1785
 2517TIP3   OH228965   1.799   2.418   5.322  0.1672  0.0937 -0.2126
 2517TIP3    H128966   1.862   2.402   5.251 -0.7491  0.1140 -1.0497
 2517TIP3    H228967   1.761   2.332   5.340  0.0899  0.1615 -0.0532
 2518TIP3   OH228968   5.708   5.144   6.378  0.0980  0.8419 -0.2235
 2518TIP3    H128969   5.801   5.138   6.358 -0.3145  0.2294 -2.1232
 2518TIP3    H228970   5.678   5.054   6.384 -0.6785  1.0152 -1.2226
 2519TIP3   OH228971   2.225   6.471  13.888 -1.1122 -0.6694 -0.0778
 2519TIP3    H128972   2.218   6.561  13.920 -3.2333 -0.9005  0.2028
 2519TIP3    H228973   2.317   6.462  13.863 -0.6871  1.3231  0.6118
 2520TIP3   OH228974   1.890   1.735   0.994 -0.7129  0.1485 -0.3046
 2520TIP3    H128975   1.807   1.715   1.036 -0.4009 -1.9587 -0.5979
 2520TIP3    H228976   1.886   1.691   0.909  0.1615  1.1886 -0.9177
 2521TIP3   OH228977   4.665   6.363  14.129 -0.7475 -0.2965  0.2667
 2521TIP3    H128978   4.658   6.459  14.123 -1.4737 -0.3717 -0.1287
 2521TIP3    H228979   4.610   6.340  14.204 -1.2521 -0.4800 -0.1574
 2522TIP3   OH228980   1.888   3.119   0.019  0.3689 -0.5421 -0.2011
 2522TIP3    H128981   1.865   3.040   0.069 -0.8483  0.6472  1.2605
 2522TIP3    H228982   1.941   3.171   0.080  3.4468 -1.3062 -2.0491
 2523TIP3   OH228983   6.485   6.670  16.187 -0.3056 -0.0884 -0.3787
 2523TIP3    H128984   6.460   6.578  16.178 -1.7452  0.2252  0.1546
 2523TIP3    H228985   6.573   6.668  16.224 -0.7306 -1.2641  0.6339
 2524TIP3   OH228986   6.056   1.456  13.240  0.7527 -0.4343  0.1000
 2524TIP3    H128987   5.985   1.500  13.287  1.1480  1.1861 -0.7706
 2524TIP3    H228988   6.013   1.384  13.193  0.0725 -0.9280  1.4139
 2525TIP3   OH228989   4.270   3.721  15.343  0.0168  0.2544  0.2364
 2525TIP3    H128990   4.274   3.778  15.420 -0.8069  0.6351  0.0096
 2525TIP3    H228991   4.257   3.634  15.378  2.0070  0.0602  0.6273
 2526TIP3   OH228992   1.326   4.906  16.485 -0.3043  0.4830 -0.7978
 2526TIP3    H128993   1.232   4.897  16.475 -0.2586  1.1233 -1.9337
 2526TIP3    H228994   1.363   4.833  16.436 -0.1979 -0.2904  0.3730
 2527TIP3   OH228995   2.208   2.947   1.538  0.1462  0.0975  0.6812
 2527TIP3    H128996   2.223   2.937   1.632  3.1219  0.1723  0.3119
 2527TIP3    H228997   2.237   2.865   1.500  2.7357  1.3868 -0.4040
 2528TIP3   OH228998   1.343   1.178   6.358  0.0044  0.5571 -0.4985
 2528TIP3    H128999   1.259   1.212   6.328  0.3605  2.2145  0.2717
 2528TIP3    H229000   1.407   1.243   6.329  1.1883 -1.1159 -1.8781
 2529TIP3   OH229001   2.652   0.350  11.544  0.0377 -0.1570 -0.5833
 2529TIP3    H129002   2.712   0.326  11.615 -0.1626  2.4815  0.5957
 2529TIP3    H229003   2.704   0.338  11.464  0.9013 -1.3883  0.1203
 2530TIP3   OH229004   3.289   1.295  16.164  0.4950 -0.1190 -0.4325
 2530TIP3    H129005   3.200   1.267  16.185  1.0059 -1.7120 -0.2825
 2530TIP3    H229006   3.301   1.272  16.071  1.1565 -1.0852 -0.1253
 2531TIP3   OH229007   5.552   4.912  12.604  0.0428  0.2937  0.0619
 2531TIP3    H129008   5.470   4.864  12.591  0.5140 -0.5851  0.2804
 2531TIP3    H229009   5.563   4.962  12.523 -1.1414  1.0980  0.3709
 2532TIP3   OH229010   5.878   2.100   3.893  0.0718  0.2410 -0.3373
 2532TIP3    H129011   5.952   2.073   3.840 -0.2450 -0.1654 -0.5801
 2532TIP3    H229012   5.896   2.191   3.915  1.6839 -0.4313  1.3884
 2533TIP3   OH229013   2.681   5.324  16.497  0.2385 -0.2136  0.1363
 2533TIP3    H129014   2.738   5.253  16.527  0.3569 -0.0748  0.2388
 2533TIP3    H229015   2.688   5.392  16.564 -1.6823 -1.0355  1.2527
 2534TIP3   OH229016   1.813   0.063   2.358 -0.1088 -0.0396 -0.5560
 2534TIP3    H129017   1.735   0.055   2.413 -0.3652 -0.6438 -0.9993
 2534TIP3    H229018   1.883   0.021   2.409  0.3084  1.8649  0.5326
 2535TIP3   OH229019   4.570   1.959   3.335  0.1782 -0.0650  0.3055
 2535TIP3    H129020   4.570   2.013   3.256 -1.9053 -1.7889 -0.9672
 2535TIP3    H229021   4.657   1.919   3.337  1.2455  2.0750  0.4900
 2536TIP3   OH229022   4.694   3.561   0.611  0.2335  0.0222 -0.1129
 2536TIP3    H129023   4.604   3.586   0.591  0.4310  1.1214  0.2542
 2536TIP3    H229024   4.747   3.624   0.562  0.8060 -0.5513 -0.2443
 2537TIP3   OH229025   4.346   0.506  12.188 -0.3208 -0.6007  0.1842
 2537TIP3    H129026   4.286   0.556  12.134 -2.5634 -3.5336 -0.2638
 2537TIP3    H229027   4.423   0.494  12.133 -0.7364  0.2275 -0.6105
 2538TIP3   OH229028   3.903   1.550   2.494 -0.0168 -0.6153 -0.4461
 2538TIP3    H129029   3.823   1.499   2.481 -1.5751  1.1069  1.6221
 2538TIP3    H229030   3.912   1.555   2.589  1.7837  0.4189 -0.6409
 2539TIP3   OH229031   5.291   3.188  10.601  0.4531 -0.7079  0.3907
 2539TIP3    H129032   5.273   3.270  10.555  0.9869 -1.4034 -1.1397
 2539TIP3    H229033   5.373   3.156  10.562  1.1596 -1.1447  2.1462
 2540TIP3   OH229034   3.810   3.808  16.120  0.0681 -0.2782  0.3666
 2540TIP3    H129035   3.720   3.828  16.147 -0.2136 -2.0480  0.9128
 2540TIP3    H229036   3.864   3.838  16.193 -0.0693  0.7020  0.0814
 2541TIP3   OH229037   1.740   5.924  15.736 -0.1847 -0.0661  0.1940
 2541TIP3    H129038   1.709   5.951  15.650  0.6705 -1.0268 -0.4303
 2541TIP3    H229039   1.800   5.994  15.763 -1.7926  1.1287  0.8230
 2542TIP3   OH229040   3.929   5.831  11.701 -0.5641  0.0676  0.1339
 2542TIP3    H129041   3.912   5.826  11.795 -1.4505  1.4943  0.0836
 2542TIP3    H229042   3.999   5.896  11.693  0.1899 -0.7602 -0.1421
 2543TIP3   OH229043   1.386   3.331  14.721 -0.2076 -0.3018  0.7013
 2543TIP3    H129044   1.365   3.264  14.657  0.5219  1.6597 -1.7747
 2543TIP3    H229045   1.308   3.337  14.776 -1.2606 -1.4599 -0.5824
 2544TIP3   OH229046   1.662   5.497   6.016  0.2351 -0.1988  0.2055
 2544TIP3    H129047   1.616   5.543   6.086 -0.2980 -2.1704  1.2185
 2544TIP3    H229048   1.655   5.404   6.039  1.1697 -0.8285 -1.7941
 2545TIP3   OH229049   1.752   5.937   3.136  0.2076  0.7628  0.2434
 2545TIP3    H129050   1.783   5.922   3.225  0.2810  2.0569  0.4531
 2545TIP3    H229051   1.831   5.951   3.084  0.1435  0.4475  0.0562
 2546TIP3   OH229052   2.351   1.195  17.315 -0.4963 -0.8076  0.0431
 2546TIP3    H129053   2.437   1.184  17.357  0.3682  1.3040 -1.0148
 2546TIP3    H229054   2.326   1.286  17.335 -1.5569 -0.7775 -1.2971
 2547TIP3   OH229055   0.644   3.426   0.219  0.1050  0.1919 -0.9641
 2547TIP3    H129056   0.597   3.343   0.235 -1.9143  1.7479  2.5598
 2547TIP3    H229057   0.587   3.474   0.159  0.0158 -0.0530 -1.0771
 2548TIP3   OH229058   2.789   4.758   2.287 -0.5868  0.0669 -0.1172
 2548TIP3    H129059   2.773   4.846   2.255  0.5232 -0.2043 -1.4827
 2548TIP3    H229060   2.875   4.762   2.330 -0.0426 -0.5591 -1.1090
 2549TIP3   OH229061   6.401   3.074  16.489 -0.3482 -0.6092 -0.6963
 2549TIP3    H129062   6.480   3.097  16.439 -0.8251  1.6090 -0.5417
 2549TIP3    H229063   6.400   3.137  16.561 -0.5224 -2.7362  1.2585
 2550TIP3   OH229064   3.231   1.552  13.019  0.3675 -0.2254  0.3749
 2550TIP3    H129065   3.155   1.510  12.980  0.9676 -0.5774 -0.4218
 2550TIP3    H229066   3.250   1.500  13.097 -1.0113  0.6554  1.3506
 2551TIP3   OH229067   2.323   6.633  10.561 -0.5649  1.0786  0.0535
 2551TIP3    H129068   2.392   6.676  10.510 -0.6042  2.1307  0.8447
 2551TIP3    H229069   2.365   6.557  10.599 -0.4246  0.5095 -1.1956
 2552TIP3   OH229070   4.781   1.791  12.614  0.4645  0.1523  0.0917
 2552TIP3    H129071   4.790   1.836  12.699  0.6518  0.1592  0.0686
 2552TIP3    H229072   4.708   1.731  12.627  0.6039  0.0286  0.3129
 2553TIP3   OH229073   5.363   0.349   2.399  0.1635 -0.2226  0.1702
 2553TIP3    H129074   5.328   0.414   2.338  0.6949  0.3406  0.4560
 2553TIP3    H229075   5.456   0.370   2.405  0.8715 -2.4840 -1.5748
 2554TIP3   OH229076   1.367   6.142  16.497 -0.4587 -0.2898 -0.9772
 2554TIP3    H129077   1.446   6.104  16.536 -1.2401  0.6980  1.8181
 2554TIP3    H229078   1.307   6.068  16.489  0.3802 -0.8623 -2.1661
 2555TIP3   OH229079   6.243   4.960   5.684  0.3908 -0.4790 -0.0884
 2555TIP3    H129080   6.220   4.899   5.754  2.3136 -1.7388 -0.4586
 2555TIP3    H229081   6.287   4.905   5.619 -0.6488  0.7843 -1.9497
 2556TIP3   OH229082   6.162   4.832   4.190 -0.1333  0.1751  0.4915
 2556TIP3    H129083   6.133   4.874   4.271 -0.2293 -0.8534  1.0094
 2556TIP3    H229084   6.193   4.746   4.217  1.8346  0.5810 -0.2734
 2557TIP3   OH229085   5.436   0.935   3.027 -0.9720  0.4904 -0.2741
 2557TIP3    H129086   5.460   0.960   3.116 -1.5980 -0.7848  0.2804
 2557TIP3    H229087   5.516   0.897   2.990 -0.7609  0.8629 -0.2067
 2558TIP3   OH229088   1.948   6.251  16.241  0.0294 -0.2463  1.0344
 2558TIP3    H129089   1.929   6.179  16.181  0.2022 -0.2111  0.9373
 2558TIP3    H229090   1.913   6.223  16.325  0.4856 -0.6293  1.0986
 2559TIP3   OH229091   6.305   3.048   1.258 -0.2742  0.2238  0.1561
 2559TIP3    H129092   6.245   2.987   1.300  1.6471 -0.7974  1.5777
 2559TIP3    H229093   6.390   3.003   1.257  1.3346  2.8954  1.5799
 2560TIP3   OH229094   6.306   0.292   0.447 -0.5026  0.0537  0.4882
 2560TIP3    H129095   6.310   0.234   0.371  2.3502  0.6073  0.1075
 2560TIP3    H229096   6.257   0.369   0.417  0.3947  0.1658 -0.7508
 2561TIP3   OH229097   4.108   2.738  11.391 -0.4598 -0.4010 -0.1799
 2561TIP3    H129098   4.194   2.703  11.417  0.7986  0.6017 -2.6781
 2561TIP3    H229099   4.113   2.831  11.413  0.0109  0.1196 -2.2588
 2562TIP3   OH229100   1.828   2.715   4.965  0.5058 -0.0513 -0.2233
 2562TIP3    H129101   1.900   2.728   4.903 -0.0039 -0.6492 -0.9652
 2562TIP3    H229102   1.856   2.758   5.045  1.6845 -0.2633 -0.5120
 2563TIP3   OH229103   5.255   5.213   1.254 -0.2939  0.9197  0.4130
 2563TIP3    H129104   5.330   5.199   1.311  0.0949  0.6539 -0.1488
 2563TIP3    H229105   5.272   5.157   1.178 -1.0671  0.8483  0.2837
 2564TIP3   OH229106   3.764   5.974   5.491  0.2712  1.0740  0.6612
 2564TIP3    H129107   3.689   5.978   5.432  0.3783  0.3855  0.4792
 2564TIP3    H229108   3.734   6.020   5.570 -1.4043 -1.6322  1.7408
 2565TIP3   OH229109   4.751   4.492   6.008  0.4260 -0.0918 -0.4816
 2565TIP3    H129110   4.841   4.511   5.980  0.1803  0.2389 -1.0652
 2565TIP3    H229111   4.720   4.574   6.047  0.3766 -0.2070 -0.2755
 2566TIP3   OH229112   2.268   3.536   2.195 -0.0216  0.0337  0.5620
 2566TIP3    H129113   2.232   3.589   2.123 -1.3870 -2.6887 -0.9284
 2566TIP3    H229114   2.363   3.543   2.184 -0.1749 -1.0758 -2.2287
 2567TIP3   OH229115   1.089   0.408   3.636 -0.1505 -1.0488 -0.2387
 2567TIP3    H129116   1.061   0.499   3.622 -1.7296 -1.1921  1.6101
 2567TIP3    H229117   1.077   0.367   3.550 -1.0469  0.0958 -0.6935
 2568TIP3   OH229118   4.162   4.988   6.405 -0.1565 -0.1270 -0.1127
 2568TIP3    H129119   4.250   4.991   6.370 -0.0232  0.1270  0.2323
 2568TIP3    H229120   4.126   5.075   6.388 -0.5952 -0.4536 -0.8884
 2569TIP3   OH229121   6.657   5.518  13.908 -0.4060 -0.1282  0.2599
 2569TIP3    H129122   6.632   5.469  13.986  0.7457 -1.2983 -0.0725
 2569TIP3    H229123   6.635   5.460  13.835  3.3477 -1.3913 -0.0480
 2570TIP3   OH229124   3.406   2.082   2.944  0.1661 -0.6022  0.4213
 2570TIP3    H129125   3.485   2.090   2.891 -1.5835  1.1970 -2.0926
 2570TIP3    H229126   3.401   2.164   2.993  0.0319 -0.8658  0.8583
 2571TIP3   OH229127   1.756   1.280  13.078  0.5328  0.3562  0.0105
 2571TIP3    H129128   1.788   1.191  13.063  0.3453  0.3944 -0.6234
 2571TIP3    H229129   1.694   1.271  13.151 -0.2057 -0.1935 -0.6663
 2572TIP3   OH229130   2.963   5.271  14.481  0.1869 -0.1412 -0.1074
 2572TIP3    H129131   3.048   5.237  14.508  0.6274 -0.0841 -1.3507
 2572TIP3    H229132   2.949   5.349  14.535  0.8372 -0.2560  0.2306
 2573TIP3   OH229133   2.250   5.158   3.900  0.5914 -0.0914  0.2216
 2573TIP3    H129134   2.257   5.191   3.811  0.6128 -0.1553  0.1994
 2573TIP3    H229135   2.176   5.097   3.898 -0.9155  1.6283  0.7763
 2574TIP3   OH229136   4.683   6.596   3.429 -0.5872 -0.0770 -0.0252
 2574TIP3    H129137   4.692   6.635   3.516 -0.1424  0.2281 -0.2063
 2574TIP3    H229138   4.590   6.606   3.408 -1.4855 -3.1492  1.8126
 2575TIP3   OH229139   2.402   5.300   1.948  0.1711  0.4218 -0.4039
 2575TIP3    H129140   2.390   5.367   1.882 -1.9777  1.0488  0.5520
 2575TIP3    H229141   2.352   5.225   1.917 -0.4662  0.5581  0.2674
 2576TIP3   OH229142   2.628   6.218   1.473 -0.2746  0.2189 -0.2228
 2576TIP3    H129143   2.573   6.284   1.430 -0.1433  1.3226  1.2425
 2576TIP3    H229144   2.566   6.161   1.518 -0.3629 -0.4377 -1.1412
 2577TIP3   OH229145   2.415   6.285   4.816  0.4828 -0.0351  0.0014
 2577TIP3    H129146   2.458   6.268   4.900 -0.9630 -1.5632  0.4876
 2577TIP3    H229147   2.333   6.327   4.840  0.9433  1.3968 -0.8203
 2578TIP3   OH229148   0.370   3.227   4.978  0.6354 -0.2546 -0.7136
 2578TIP3    H129149   0.442   3.285   5.006  0.1399 -0.5044  1.1792
 2578TIP3    H229150   0.295   3.286   4.968  0.7711 -0.1914 -1.4007
 2579TIP3   OH229151   5.015   3.873   2.549  0.1375  0.2224  0.0646
 2579TIP3    H129152   4.987   3.931   2.620 -0.6318  0.0158 -0.0625
 2579TIP3    H229153   4.976   3.788   2.570  1.2126 -0.2452  0.2200
 2580TIP3   OH229154   5.914   4.415  17.269 -0.3895  0.4701  0.5296
 2580TIP3    H129155   5.972   4.443  17.198  0.9385 -0.0138  1.4042
 2580TIP3    H229156   5.839   4.375  17.224  0.0997  0.8052 -0.6078
 2581TIP3   OH229157   3.465   3.204  16.556  0.7790 -0.2177  0.0184
 2581TIP3    H129158   3.511   3.154  16.488  0.0341  0.0735 -0.7046
 2581TIP3    H229159   3.525   3.276  16.577  1.1171 -0.4460 -0.1541
 2582TIP3   OH229160   2.977   2.002   5.829  0.2721 -0.0495  0.3248
 2582TIP3    H129161   2.888   2.028   5.806  0.2957 -0.5459 -0.3622
 2582TIP3    H229162   2.990   2.036   5.918  0.0792  1.6830 -0.2817
 2583TIP3   OH229163   5.303   2.733  11.646 -0.2094 -0.1741  0.0293
 2583TIP3    H129164   5.311   2.648  11.601 -0.1700 -0.7115  1.0266
 2583TIP3    H229165   5.382   2.739  11.700 -0.5461  0.1889  0.4842
 2584TIP3   OH229166   0.920   2.791   2.545  0.2779 -0.3703  0.0202
 2584TIP3    H129167   0.980   2.741   2.601  1.2775  0.2135 -0.4987
 2584TIP3    H229168   0.940   2.761   2.456  0.1074  0.1592 -0.1979
 2585TIP3   OH229169   4.618   0.431  17.129 -0.0387 -0.1945 -0.2427
 2585TIP3    H129170   4.586   0.350  17.168  0.4303  0.0479  0.6805
 2585TIP3    H229171   4.683   0.464  17.192  0.0793  0.6816 -0.8016
 2586TIP3   OH229172   4.212   1.902   1.921 -0.4932  0.2047  0.0253
 2586TIP3    H129173   4.224   1.994   1.946 -2.8184  0.1159  1.8433
 2586TIP3    H229174   4.298   1.863   1.931  0.0556  1.7044  1.6142
 2587TIP3   OH229175   5.948   6.510   5.028  0.1578 -0.0983  0.2471
 2587TIP3    H129176   6.027   6.553   4.998 -1.4944  1.8405 -1.6422
 2587TIP3    H229177   5.932   6.441   4.964  0.5525 -0.8233  0.9109
 2588TIP3   OH229178   6.232   5.547   4.570 -0.4607  0.6683  0.1044
 2588TIP3    H129179   6.171   5.498   4.626 -0.2588  2.0467  1.6197
 2588TIP3    H229180   6.273   5.610   4.630  1.7387  0.4309 -1.0800
 2589TIP3   OH229181   0.798   3.364   5.257  0.0929 -0.4199 -0.3811
 2589TIP3    H129182   0.835   3.275   5.256 -0.5617 -0.6959 -0.2807
 2589TIP3    H229183   0.761   3.373   5.345  0.1024 -0.0700 -0.4127
 2590TIP3   OH229184   0.269   3.567  16.891  0.1714 -0.3125 -0.1612
 2590TIP3    H129185   0.293   3.657  16.872  2.1539 -1.0740 -1.5284
 2590TIP3    H229186   0.350   3.527  16.923 -0.8700 -1.4355  1.2137
 2591TIP3   OH229187   4.468   2.927  12.564 -0.1850  0.5705  0.4818
 2591TIP3    H129188   4.537   2.993  12.565  1.4847 -1.1121  1.7791
 2591TIP3    H229189   4.416   2.945  12.643  0.9401 -0.2937  1.4469
 2592TIP3   OH229190   4.662   0.963  14.010  0.0686  0.7535 -0.1539
 2592TIP3    H129191   4.704   1.049  14.004 -0.6200  1.0384 -1.2079
 2592TIP3    H229192   4.617   0.953  13.926  0.2096 -0.6809 -0.0712
 2593TIP3   OH229193   4.067   6.592   3.821  0.3538 -0.3827  0.5735
 2593TIP3    H129194   4.016   6.601   3.741 -0.9702 -0.4355  1.3786
 2593TIP3    H229195   4.028   6.517   3.866 -1.1107  1.5309  2.7548
 2594TIP3   OH229196   3.627   1.920  12.590  0.0694 -0.5824 -0.1077
 2594TIP3    H129197   3.679   1.993  12.624 -0.0955 -0.3927 -0.2604
 2594TIP3    H229198   3.561   1.905  12.657 -0.2073 -0.2600 -0.3089
 2595TIP3   OH229199   5.536   6.096  16.640  0.2534  0.4844  0.0127
 2595TIP3    H129200   5.597   6.142  16.583  1.9387 -2.1330 -0.5196
 2595TIP3    H229201   5.561   6.003  16.631 -1.4255 -0.3411  2.6361
 2596TIP3   OH229202   6.341   2.690  12.218  0.3613  0.4045 -0.1745
 2596TIP3    H129203   6.341   2.774  12.171  0.6816  0.2271 -0.4925
 2596TIP3    H229204   6.425   2.650  12.195 -0.7154 -1.0126 -1.8053
 2597TIP3   OH229205   0.001   5.076  16.945  0.0554  0.0579  0.3748
 2597TIP3    H129206   0.013   5.057  17.039  1.6695  0.3134  0.2462
 2597TIP3    H229207  -0.068   5.142  16.943  0.2044  0.2675  1.4125
 2598TIP3   OH229208   0.806   6.305  16.775 -0.3166 -0.2532 -0.2161
 2598TIP3    H129209   0.873   6.345  16.720 -0.8055  0.4713 -0.3013
 2598TIP3    H229210   0.854   6.250  16.837  0.1650 -2.7867 -2.6435
 2599TIP3   OH229211   2.188   2.110  14.404  0.4040  0.0594  0.2347
 2599TIP3    H129212   2.218   2.021  14.418  0.5512 -0.0429 -0.6961
 2599TIP3    H229213   2.252   2.164  14.452  0.5401 -0.3062  0.4721
 2600TIP3   OH229214   6.376   2.457  14.964 -0.4333  0.1575 -0.3673
 2600TIP3    H129215   6.429   2.514  14.908  0.7609 -1.0780 -0.5498
 2600TIP3    H229216   6.305   2.513  14.995  0.0564  1.4272 -1.4388
 2601TIP3   OH229217   6.635   1.223   6.686  0.1791 -0.5920 -0.2489
 2601TIP3    H129218   6.672   1.157   6.744 -1.1207 -0.0897  1.2328
 2601TIP3    H229219   6.552   1.185   6.656 -0.1253 -0.0236 -0.1429
 2602TIP3   OH229220   1.172   2.412  12.796 -0.0430 -0.6345 -0.1878
 2602TIP3    H129221   1.241   2.469  12.830 -0.3846 -1.0293  1.2290
 2602TIP3    H229222   1.123   2.384  12.873  0.0928 -2.8275 -0.8168
 2603TIP3   OH229223   0.768   5.486   0.500 -0.1455 -0.3683  0.5494
 2603TIP3    H129224   0.719   5.561   0.466  0.1287  0.6477  2.3083
 2603TIP3    H229225   0.858   5.517   0.506 -0.0323 -0.8327  1.3291
 2604TIP3   OH229226   2.708   3.777   1.955  0.6595 -0.2667 -0.3772
 2604TIP3    H129227   2.693   3.711   1.887  0.4277 -1.0449  0.4206
 2604TIP3    H229228   2.629   3.830   1.956  0.2795 -0.8309 -0.0886
 2605TIP3   OH229229   4.054   6.290   3.843  0.1182  0.7232 -0.2265
 2605TIP3    H129230   4.102   6.288   3.760 -0.6714  0.9399 -0.6988
 2605TIP3    H229231   3.963   6.278   3.818 -0.1310  0.8096  0.6145
 2606TIP3   OH229232   3.982   6.100   0.644 -0.5651  0.2053  0.0056
 2606TIP3    H129233   4.053   6.062   0.694  0.2210  0.3222 -0.9842
 2606TIP3    H229234   3.936   6.025   0.606 -0.4319  0.1577 -0.0629
 2607TIP3   OH229235   2.583   1.601   4.998  0.0101 -0.2924  0.0492
 2607TIP3    H129236   2.503   1.548   4.992  0.5836 -1.0344 -1.3734
 2607TIP3    H229237   2.638   1.571   4.926  0.1277  2.6557 -1.2331
 2608TIP3   OH229238   4.028   4.684   0.384  0.1580 -0.8674 -0.8777
 2608TIP3    H129239   4.010   4.718   0.296 -0.2294 -0.7793 -0.7678
 2608TIP3    H229240   3.954   4.716   0.436 -0.1017 -1.7129 -0.7259
 2609TIP3   OH229241   3.868   3.713  16.591 -0.4399  0.0761  0.1975
 2609TIP3    H129242   3.882   3.807  16.588  0.0227 -0.0156 -0.9106
 2609TIP3    H229243   3.955   3.676  16.605 -0.5578 -0.2043  0.2009
 2610TIP3   OH229244   4.787   1.519  11.823 -0.1445  0.5315 -0.0004
 2610TIP3    H129245   4.733   1.553  11.751  1.4896  1.7011 -0.7260
 2610TIP3    H229246   4.877   1.525  11.790  0.4870 -1.0802  1.2900
 2611TIP3   OH229247   0.958   2.376  13.671  0.7030  0.0275 -0.1434
 2611TIP3    H129248   0.949   2.348  13.579  1.0339  1.0148 -0.4857
 2611TIP3    H229249   1.013   2.309  13.711 -0.8628 -1.3706 -0.2103
 2612TIP3   OH229250   4.373   2.581  11.483  0.2890 -0.2633  0.6949
 2612TIP3    H129251   4.421   2.500  11.465 -1.1724 -0.7549 -1.3949
 2612TIP3    H229252   4.302   2.555  11.542  0.0304 -0.4540  0.3047
 2613TIP3   OH229253   0.768   2.099  13.669  0.6004 -0.1980  0.0487
 2613TIP3    H129254   0.739   2.077  13.757 -1.4414 -0.9234 -0.7348
 2613TIP3    H229255   0.821   2.024  13.641  0.1315 -0.5840  0.1881
 2614TIP3   OH229256   0.778   0.316   3.364 -0.0761  0.3366 -0.0406
 2614TIP3    H129257   0.774   0.412   3.362  0.8162  0.3804 -1.3876
 2614TIP3    H229258   0.847   0.294   3.301  0.5811 -1.1515  1.1269
 2615TIP3   OH229259   6.145   3.002  10.998 -0.1095 -0.0895  0.6308
 2615TIP3    H129260   6.173   2.939  10.931  2.4460  0.4079  1.1202
 2615TIP3    H229261   6.181   3.086  10.968 -1.0091  0.6062  1.4333
 2616TIP3   OH229262   4.961   2.366  13.003  0.2777 -0.1578  0.0549
 2616TIP3    H129263   4.959   2.279  13.043 -0.6827 -0.3651 -0.4119
 2616TIP3    H229264   5.031   2.412  13.049  0.7109 -1.1309  0.3968
 2617TIP3   OH229265   3.735   5.284   3.656 -0.5929  0.1107  0.1064
 2617TIP3    H129266   3.760   5.212   3.599  1.2054  0.9176 -0.2054
 2617TIP3    H229267   3.676   5.338   3.603 -2.0986 -1.1750  0.4085
 2618TIP3   OH229268   4.152   3.155   0.710  0.0546 -0.5980  0.0964
 2618TIP3    H129269   4.159   3.244   0.744  0.8420 -0.4520 -0.4334
 2618TIP3    H229270   4.068   3.153   0.665  0.0277 -0.1306  0.1276
 2619TIP3   OH229271   0.725   5.985  12.532  0.5539 -0.0444 -0.5562
 2619TIP3    H129272   0.637   5.966  12.500  0.2540  1.4260 -0.7090
 2619TIP3    H229273   0.776   5.907  12.513 -0.3509 -0.3344 -1.8810
 2620TIP3   OH229274   0.632   1.156  13.555 -0.7378  0.8224 -0.7223
 2620TIP3    H129275   0.677   1.208  13.488 -1.0097 -2.9844 -4.2247
 2620TIP3    H229276   0.695   1.090  13.582 -1.3950  0.9241  1.2209
 2621TIP3   OH229277   3.224   4.182  12.628  0.4569  0.0199  0.3455
 2621TIP3    H129278   3.206   4.259  12.574  0.9520 -0.3043 -0.3060
 2621TIP3    H229279   3.319   4.176  12.630  0.4390 -0.1045  1.0823
 2622TIP3   OH229280   1.673   0.381  13.691  0.1990  0.7113  0.4537
 2622TIP3    H129281   1.626   0.457  13.656 -1.7098 -1.1338 -1.3120
 2622TIP3    H229282   1.654   0.310  13.628  3.7479 -0.7221  0.7400
 2623TIP3   OH229283   3.641   1.600  11.667  0.5894  0.3432 -0.3612
 2623TIP3    H129284   3.570   1.653  11.630  0.8339  0.7103 -0.3118
 2623TIP3    H229285   3.606   1.511  11.668 -0.1996  0.6401  0.4557
 2624TIP3   OH229286   6.430   0.935  15.080 -0.0354 -0.1473  0.6179
 2624TIP3    H129287   6.335   0.943  15.081 -0.1136 -0.9171  0.5776
 2624TIP3    H229288   6.446   0.850  15.038  0.7135  0.4750 -0.4049
 2625TIP3   OH229289   3.491   0.384   4.609 -0.0843 -0.5760 -0.3517
 2625TIP3    H129290   3.526   0.473   4.604  0.4620 -0.8170 -0.9973
 2625TIP3    H229291   3.407   0.394   4.653 -0.2174  0.3180 -0.7880
 2626TIP3   OH229292   6.163   5.258  15.547  0.3759 -0.1067  0.0708
 2626TIP3    H129293   6.173   5.339  15.497  0.0768  0.2528  0.5871
 2626TIP3    H229294   6.076   5.226  15.526 -0.9797  1.6252  2.6081
 2627TIP3   OH229295   4.074   2.654  13.987  0.4721  0.0780 -0.2319
 2627TIP3    H129296   4.081   2.562  14.011  0.5515  0.2233  0.3133
 2627TIP3    H229297   4.079   2.701  14.070  1.7538  0.6413 -0.5917
 2628TIP3   OH229298   5.090   0.928  11.517 -0.2526 -0.2002 -0.6864
 2628TIP3    H129299   5.090   0.863  11.587 -0.5972 -0.5102 -0.9727
 2628TIP3    H229300   5.155   0.993  11.545 -1.3956  0.4293  0.6097
 2629TIP3   OH229301   2.181   5.739   3.634 -0.6475 -0.6241  0.1100
 2629TIP3    H129302   2.106   5.756   3.577 -0.0134 -2.3082 -1.2910
 2629TIP3    H229303   2.231   5.671   3.590  1.3400 -0.0829  1.3703
 2630TIP3   OH229304   5.544   3.189   2.463 -0.1531 -0.1663 -0.1315
 2630TIP3    H129305   5.537   3.280   2.492  0.3027 -0.4514  0.9057
 2630TIP3    H229306   5.489   3.185   2.385 -0.3700  0.9414 -0.0552
 2631TIP3   OH229307   4.005   3.435   0.603 -0.0006  0.1937  0.1133
 2631TIP3    H129308   4.089   3.453   0.560  0.8831 -0.5270  1.4798
 2631TIP3    H229309   3.980   3.348   0.572  0.7134 -0.3916  1.1363
 2632TIP3   OH229310   4.735   2.298   5.700  0.3187 -0.2050 -0.0217
 2632TIP3    H129311   4.774   2.285   5.613 -0.0981  0.4584 -0.3227
 2632TIP3    H229312   4.656   2.243   5.699  0.6865 -0.7448  0.2042
 2633TIP3   OH229313   1.360   2.200  15.165  0.4609 -0.2821  0.1610
 2633TIP3    H129314   1.318   2.283  15.142  0.4947 -0.2014  0.3865
 2633TIP3    H229315   1.411   2.176  15.088 -1.2984 -1.2253 -0.7824
 2634TIP3   OH229316   0.283   6.233   2.958  0.1764  0.2150  0.6041
 2634TIP3    H129317   0.265   6.266   3.046  1.2594 -0.4829  1.1097
 2634TIP3    H229318   0.243   6.146   2.956  0.0407  0.2811  0.3595
 2635TIP3   OH229319   4.425   5.322   5.294 -0.1270 -0.7162  0.0504
 2635TIP3    H129320   4.334   5.306   5.318 -0.9824 -0.2537 -2.5730
 2635TIP3    H229321   4.433   5.418   5.294  0.3144 -0.7510  0.1064
 2636TIP3   OH229322   1.202   3.468   1.595 -0.3153 -0.1043 -0.1292
 2636TIP3    H129323   1.162   3.511   1.519 -0.0471 -0.3303 -0.4046
 2636TIP3    H229324   1.172   3.377   1.589  1.5058 -0.6856 -1.2727
 2637TIP3   OH229325   0.391   6.504  14.873  0.0243 -0.0331 -0.5311
 2637TIP3    H129326   0.464   6.502  14.935  1.2151 -1.1503 -1.8832
 2637TIP3    H229327   0.419   6.447  14.802 -2.6265 -1.4021 -0.6130
 2638TIP3   OH229328   2.647   3.462   5.861  0.2041  0.3683  0.7639
 2638TIP3    H129329   2.579   3.408   5.820  0.6698 -0.3587  0.9272
 2638TIP3    H229330   2.614   3.479   5.950  0.4906 -0.4673  1.0353
 2639TIP3   OH229331   1.951   1.741  12.650  0.0651 -0.2392  0.1230
 2639TIP3    H129332   1.966   1.704  12.737 -0.8883  0.6431  0.6869
 2639TIP3    H229333   1.908   1.825  12.667  0.6958  0.3809 -1.1684
 2640TIP3   OH229334   5.614   3.170  11.113  0.2958  0.6307  0.4583
 2640TIP3    H129335   5.594   3.249  11.063 -0.4127  0.7378  0.9098
 2640TIP3    H229336   5.530   3.142  11.150  0.7866  0.4718  1.4833
 2641TIP3   OH229337   5.512   4.816   3.499 -0.3112 -0.1221 -0.2711
 2641TIP3    H129338   5.572   4.767   3.556 -1.8797  0.5654  2.1615
 2641TIP3    H229339   5.544   4.906   3.503 -0.2454 -0.1218 -0.7558
 2642TIP3   OH229340   4.837   1.833   3.396 -0.1532 -0.7638 -0.1822
 2642TIP3    H129341   4.840   1.832   3.492  1.3663 -1.0656 -0.2012
 2642TIP3    H229342   4.872   1.748   3.370 -0.3109 -0.5812 -1.0131
 2643TIP3   OH229343   5.602   6.199   2.671  0.5772 -0.6579 -0.2638
 2643TIP3    H129344   5.519   6.222   2.712  1.8537  1.4658  1.3250
 2643TIP3    H229345   5.582   6.194   2.578 -1.4058 -0.6804  0.1199
 2644TIP3   OH229346   1.945   5.119  14.900 -0.9627  0.2505  0.2288
 2644TIP3    H129347   1.877   5.174  14.940 -0.2574  1.2727  0.0874
 2644TIP3    H229348   2.023   5.175  14.900  0.0810 -1.1531  1.0833
 2645TIP3   OH229349   3.613   1.908  17.169  0.6754  0.1795 -0.1633
 2645TIP3    H129350   3.609   1.853  17.091  0.6715  0.1341 -0.1313
 2645TIP3    H229351   3.672   1.862  17.228  1.8045  0.9008 -0.6936
 2646TIP3   OH229352   5.696   2.180   2.387  0.4207  0.2839 -0.5543
 2646TIP3    H129353   5.602   2.190   2.396  0.7784  1.9536  2.2691
 2646TIP3    H229354   5.716   2.219   2.302 -1.4360 -0.5514 -1.4277
 2647TIP3   OH229355   2.964   3.874   0.631  0.4835 -0.1267 -0.1399
 2647TIP3    H129356   2.949   3.965   0.604  0.4179 -0.6234 -1.9360
 2647TIP3    H229357   3.019   3.837   0.562  0.4581 -1.4789  0.5229
 2648TIP3   OH229358   2.519   2.760  12.448 -0.0348 -0.3250  0.4233
 2648TIP3    H129359   2.460   2.806  12.509 -0.6434 -1.2620  0.5619
 2648TIP3    H229360   2.590   2.727  12.504  0.1626  0.0522  0.3957
 2649TIP3   OH229361   1.394   0.777  14.630  0.0586  0.3426 -0.3064
 2649TIP3    H129362   1.432   0.729  14.556  0.7586 -1.0212  0.8828
 2649TIP3    H229363   1.379   0.866  14.597 -1.8260 -0.7826 -2.7856
 2650TIP3   OH229364   6.688   6.565  17.085 -0.0637  0.3319 -0.3973
 2650TIP3    H129365   6.729   6.480  17.102  0.7175  0.4203 -1.6963
 2650TIP3    H229366   6.728   6.625  17.147 -1.9458 -0.5511  1.8280
 2651TIP3   OH229367   1.448   3.585   1.407  0.1613 -0.0435  0.0459
 2651TIP3    H129368   1.409   3.523   1.346 -1.7894  1.2041 -0.0595
 2651TIP3    H229369   1.374   3.635   1.442  1.5104  1.2702  1.1912
 2652TIP3   OH229370   1.334   3.599   1.810  0.4282 -0.0925 -0.0498
 2652TIP3    H129371   1.294   3.560   1.733 -0.0918 -1.9765  1.1028
 2652TIP3    H229372   1.387   3.671   1.776 -0.5105 -0.2810 -2.0442
 2653TIP3   OH229373   5.581   1.555  13.667  0.1832  0.0525  0.0176
 2653TIP3    H129374   5.578   1.484  13.603 -1.1010 -0.4686  0.6067
 2653TIP3    H229375   5.495   1.597  13.660  0.6627  1.1081  0.1869
 2654TIP3   OH229376   0.913   1.809   0.487 -0.3165  0.2533  0.7361
 2654TIP3    H129377   1.001   1.845   0.474 -0.4657 -0.0975 -1.5544
 2654TIP3    H229378   0.914   1.776   0.577  2.7314 -1.9283  0.0763
 2655TIP3   OH229379   0.334   0.321  11.718  0.4025  0.1093 -0.0287
 2655TIP3    H129380   0.412   0.299  11.667 -0.2888 -0.5068 -0.8496
 2655TIP3    H229381   0.271   0.252  11.697  0.1529 -0.2980  1.8444
 2656TIP3   OH229382   1.461   6.555  11.026 -0.3598 -0.2761  0.4887
 2656TIP3    H129383   1.395   6.603  10.976 -1.2351  0.7407  2.5118
 2656TIP3    H229384   1.540   6.558  10.971 -0.8773  1.9735 -0.2211
 2657TIP3   OH229385   5.595   5.403  14.448  0.3141  0.4165  0.0645
 2657TIP3    H129386   5.580   5.357  14.365  0.2354 -0.5700  0.6163
 2657TIP3    H229387   5.522   5.465  14.455  0.2003  0.3529 -0.4932
 2658TIP3   OH229388   5.979   1.126  15.965  0.5263 -0.0641 -0.3138
 2658TIP3    H129389   5.981   1.113  16.060  0.6732  1.6719 -0.0428
 2658TIP3    H229390   6.071   1.118  15.938  0.3938 -1.3589 -0.4664
 2659TIP3   OH229391   3.036   5.713  11.119  0.0665 -0.1778  0.4550
 2659TIP3    H129392   3.056   5.637  11.064  0.0237 -0.0787  0.3018
 2659TIP3    H229393   3.118   5.764  11.120 -0.1316  0.1604 -0.0657
 2660TIP3   OH229394   1.971   1.985   1.096  0.1799  0.3990  0.0295
 2660TIP3    H129395   1.967   1.912   1.034 -1.6915  0.5617 -0.0978
 2660TIP3    H229396   1.923   1.954   1.173  2.1687  0.3338  1.3059
 2661TIP3   OH229397   0.279   3.495   2.814  0.6245  0.0629 -0.2507
 2661TIP3    H129398   0.359   3.487   2.763 -0.3644 -0.3962 -1.7864
 2661TIP3    H229399   0.226   3.559   2.767 -0.4861 -0.6846 -0.0735
 2662TIP3   OH229400   0.739   3.432  12.323 -0.1736  1.0597 -0.1909
 2662TIP3    H129401   0.781   3.494  12.382  1.2506 -1.2396  1.4254
 2662TIP3    H229402   0.667   3.395  12.374  0.8913 -0.7467  0.0923
 2663TIP3   OH229403   3.378   3.795  11.090 -0.0773 -0.6378  0.5391
 2663TIP3    H129404   3.318   3.847  11.037 -0.5296 -1.0679  0.6212
 2663TIP3    H229405   3.463   3.839  11.081 -0.1935 -0.5851 -0.3565
 2664TIP3   OH229406   6.750   0.399   4.248 -0.6012  0.0798  0.0409
 2664TIP3    H129407   6.824   0.401   4.309 -0.3096  1.6387 -0.3303
 2664TIP3    H229408   6.694   0.330   4.282 -1.9645  2.7361  3.8986
 2665TIP3   OH229409   5.235   4.174   1.778  0.7597  0.5066 -0.2888
 2665TIP3    H129410   5.261   4.082   1.775  1.0392  0.6028 -1.0995
 2665TIP3    H229411   5.140   4.173   1.767  0.6736  0.2824  0.4079
 2666TIP3   OH229412   6.415   2.596   0.488  0.1127  0.1308 -0.0072
 2666TIP3    H129413   6.320   2.596   0.475  0.2724  0.5800 -1.2950
 2666TIP3    H229414   6.428   2.653   0.564 -0.5231  1.9324 -1.1771
 2667TIP3   OH229415   0.285   2.516   4.923  0.2592 -0.2062  0.4262
 2667TIP3    H129416   0.217   2.471   4.874  1.4269 -0.6101 -0.8829
 2667TIP3    H229417   0.303   2.459   4.997  1.2200 -1.5995 -0.8229
 2668TIP3   OH229418   6.062   5.279  14.222 -0.0814  0.2533 -0.1820
 2668TIP3    H129419   5.996   5.220  14.258 -1.1114  0.7429 -1.2119
 2668TIP3    H229420   6.097   5.325  14.298 -0.2700 -0.6673  0.4740
 2669TIP3   OH229421   4.095   5.370  10.771 -0.5387  0.0401  0.0643
 2669TIP3    H129422   4.149   5.423  10.711 -0.8066  0.9640  0.6162
 2669TIP3    H229423   4.005   5.395  10.751 -0.7257 -0.8979 -0.2953
 2670TIP3   OH229424   6.444   2.036  16.509 -0.1444  0.6105 -0.4397
 2670TIP3    H129425   6.383   1.995  16.449 -0.5297  0.2762  0.1732
 2670TIP3    H229426   6.499   1.965  16.541 -2.3272  0.0365  2.4582
 2671TIP3   OH229427   4.534   2.899   0.026  0.6085 -0.1976 -0.2102
 2671TIP3    H129428   4.520   2.965  -0.042 -0.6067 -1.7082 -1.5004
 2671TIP3    H229429   4.622   2.918   0.060 -0.1832  2.9175  0.4842
 2672TIP3   OH229430   6.123   6.294   4.646 -0.1075  0.0648 -0.2216
 2672TIP3    H129431   6.130   6.280   4.740  1.7787  1.5216 -0.0788
 2672TIP3    H229432   6.155   6.383   4.633 -1.1728  0.2201 -2.1671
 2673TIP3   OH229433   5.755   3.607  14.648 -0.3545  0.2460 -0.3825
 2673TIP3    H129434   5.735   3.591  14.556 -0.3636 -1.2779 -0.1391
 2673TIP3    H229435   5.676   3.648  14.683  0.6126  3.4837 -1.6250
 2674TIP3   OH229436   5.853   1.467   0.990  0.3644 -0.2045  0.1157
 2674TIP3    H129437   5.877   1.450   1.081 -1.4528 -1.1467  0.4680
 2674TIP3    H229438   5.807   1.387   0.962  0.1051  0.4195 -1.3271
 2675TIP3   OH229439   0.184   1.333  10.870  0.1935 -0.0432 -0.4855
 2675TIP3    H129440   0.253   1.270  10.847  0.9947  0.3796  0.6811
 2675TIP3    H229441   0.140   1.294  10.945  1.0398  0.9926  0.5920
 2676TIP3   OH229442   5.733   6.147   3.493  0.6491  0.3278  0.2409
 2676TIP3    H129443   5.748   6.237   3.520 -0.9075  0.4103  0.8771
 2676TIP3    H229444   5.663   6.115   3.549  1.6302 -1.5213  0.5084
 2677TIP3   OH229445   4.264   1.879   0.989  0.1285 -0.0482 -0.6063
 2677TIP3    H129446   4.320   1.954   1.009 -0.6588  0.4608 -0.2261
 2677TIP3    H229447   4.297   1.808   1.043  0.4936  0.2000 -0.4983
 2678TIP3   OH229448   3.655   0.190   1.304  0.2683 -0.6239  0.1214
 2678TIP3    H129449   3.705   0.110   1.318  2.0279  0.5805  1.0907
 2678TIP3    H229450   3.569   0.171   1.340  0.8610 -1.8614  0.9578
 2679TIP3   OH229451   0.188   5.266   0.043  0.4523 -0.3694  0.2867
 2679TIP3    H129452   0.227   5.209  -0.024  0.7002 -0.0928  0.1908
 2679TIP3    H229453   0.176   5.350  -0.002  0.4833 -0.2245  0.5505
 2680TIP3   OH229454   4.967   4.242   4.902  0.0597 -0.4427 -0.4550
 2680TIP3    H129455   5.013   4.160   4.888 -1.1833 -1.4531  1.0728
 2680TIP3    H229456   4.902   4.223   4.969 -1.5880  1.2877 -1.4322
 2681TIP3   OH229457   3.357   3.478   1.319 -0.2059 -0.4120 -0.5203
 2681TIP3    H129458   3.359   3.403   1.378  0.6452  0.1318  0.1592
 2681TIP3    H229459   3.404   3.448   1.241 -0.2882 -0.7424 -0.4437
 2682TIP3   OH229460   5.872   4.647   1.426 -0.5716 -0.5181 -0.4476
 2682TIP3    H129461   5.888   4.709   1.355 -1.4200 -0.3374 -0.4966
 2682TIP3    H229462   5.777   4.651   1.440 -0.5587 -1.3732 -0.0544
 2683TIP3   OH229463   1.606   5.664  15.638 -0.2483  0.0324 -0.6311
 2683TIP3    H129464   1.651   5.681  15.556  1.6864 -2.2862 -0.1596
 2683TIP3    H229465   1.665   5.697  15.706  0.3435 -2.0330 -0.0527
 2684TIP3   OH229466   6.300   2.865   2.520 -0.1642 -0.9072 -0.7570
 2684TIP3    H129467   6.297   2.960   2.519  0.8016 -0.8635 -0.5990
 2684TIP3    H229468   6.393   2.844   2.512  0.0649 -1.7668  2.6251
 2685TIP3   OH229469   5.300   4.984   5.179 -0.2856 -0.2321  0.0081
 2685TIP3    H129470   5.327   4.930   5.105  0.5622  1.4828 -0.9614
 2685TIP3    H229471   5.364   4.964   5.248 -0.8078 -1.4820  0.1609
 2686TIP3   OH229472   3.955   3.422  12.118  0.6148  0.1688  0.1998
 2686TIP3    H129473   3.937   3.486  12.048 -0.6346 -2.4278 -2.0311
 2686TIP3    H229474   4.029   3.371  12.085  1.6649  0.4464  1.9949
 2687TIP3   OH229475   0.968   5.524   5.700  0.4765  0.1830 -0.6556
 2687TIP3    H129476   0.921   5.492   5.777 -0.3668  0.5744 -0.9964
 2687TIP3    H229477   0.927   5.479   5.626 -0.3545  1.5858 -1.0911
 2688TIP3   OH229478   3.614   4.489   0.414 -0.9047 -0.0495  0.1127
 2688TIP3    H129479   3.520   4.494   0.397 -0.7525 -1.9235 -1.8568
 2688TIP3    H229480   3.654   4.520   0.333  0.0487 -2.7269 -0.5583
 2689TIP3   OH229481   2.745   2.439  14.513 -0.7458 -0.0893  0.4967
 2689TIP3    H129482   2.768   2.528  14.488  0.5743 -0.1404  1.4043
 2689TIP3    H229483   2.676   2.414  14.452 -0.5267  1.2355 -0.3422
 2690TIP3   OH229484   5.899   0.780   1.967  0.6374 -0.3376 -0.1234
 2690TIP3    H129485   5.921   0.736   2.048  2.9385 -0.9964 -1.0293
 2690TIP3    H229486   5.942   0.866   1.973 -1.3821  0.7038  0.4024
 2691TIP3   OH229487   5.558   1.117  17.275 -0.0519 -0.2143 -1.0959
 2691TIP3    H129488   5.515   1.045  17.229  0.4734 -0.9117 -0.5371
 2691TIP3    H229489   5.566   1.186  17.210 -0.7212 -0.6020 -1.6010
 2692TIP3   OH229490   0.815   2.049   5.569 -0.3629  0.6944 -0.4574
 2692TIP3    H129491   0.841   2.026   5.658 -1.7665  1.0541  0.0776
 2692TIP3    H229492   0.719   2.052   5.573 -0.4600  0.3638 -2.0712
 2693TIP3   OH229493   4.804   2.413  14.713  0.1658 -0.2945 -0.2024
 2693TIP3    H129494   4.896   2.389  14.710  0.0469 -0.7660 -0.1908
 2693TIP3    H229495   4.802   2.493  14.765  0.3193 -1.6271  2.0094
 2694TIP3   OH229496   3.511   5.203  12.448  0.0338  0.0315  0.0637
 2694TIP3    H129497   3.450   5.131  12.458 -0.5438  0.4444 -0.4359
 2694TIP3    H229498   3.457   5.278  12.424  0.7938  0.2667 -1.0058
 2695TIP3   OH229499   4.122   4.950  16.752 -0.3013  0.5996 -0.5255
 2695TIP3    H129500   4.123   4.915  16.663  0.9143 -0.5874 -0.0883
 2695TIP3    H229501   4.159   5.038  16.744  1.7063 -0.2200 -0.9781
 2696TIP3   OH229502   0.240   1.198   0.104 -0.1352  0.1147  0.1893
 2696TIP3    H129503   0.197   1.116   0.078 -1.0038  0.4056  0.6520
 2696TIP3    H229504   0.225   1.204   0.198 -1.7397  1.7125 -0.1133
 2697TIP3   OH229505   1.213   5.900  15.926  0.0831 -0.6031 -0.4395
 2697TIP3    H129506   1.274   5.873  15.857  0.8311  0.9346 -0.4067
 2697TIP3    H229507   1.152   5.959  15.882  0.6586  0.5128  0.2169
 2698TIP3   OH229508   5.139   4.000  14.414  0.1243 -0.3846  0.8262
 2698TIP3    H129509   5.116   4.045  14.496  1.2347  0.1354  0.8692
 2698TIP3    H229510   5.233   4.013  14.405 -0.1531  0.6521 -1.1854
 2699TIP3   OH229511   4.537   2.473  14.088  0.1324  0.1124  0.1658
 2699TIP3    H129512   4.531   2.528  14.010 -0.0092 -1.1895 -0.7765
 2699TIP3    H229513   4.447   2.464  14.119  0.1839  0.5944  0.4664
 2700TIP3   OH229514   4.706   4.861   0.994 -0.1081 -0.8869  0.0113
 2700TIP3    H129515   4.631   4.901   0.948 -0.6702 -1.3413  0.5181
 2700TIP3    H229516   4.706   4.903   1.080 -0.0560 -1.2148  0.1710
 2701TIP3   OH229517   3.747   5.578  15.905  0.2049 -0.0599  0.2682
 2701TIP3    H129518   3.741   5.483  15.920  2.0240 -0.0699  1.1891
 2701TIP3    H229519   3.840   5.595  15.898 -0.0967  1.6855  0.1582
 2702TIP3   OH229520   0.446   5.574  14.115 -0.3723  0.1053  0.1586
 2702TIP3    H129521   0.415   5.630  14.043 -1.8511 -0.5434  0.2583
 2702TIP3    H229522   0.367   5.553  14.165  0.2399 -1.5352  0.5032
 2703TIP3   OH229523   5.408   6.133   0.888 -0.1093 -0.1546  0.3215
 2703TIP3    H129524   5.383   6.041   0.900  4.2641 -1.5454  0.7004
 2703TIP3    H229525   5.438   6.139   0.797  1.4091  0.2920  0.8104
 2704TIP3   OH229526   3.208   2.242   5.362 -0.0255 -0.4180 -0.3797
 2704TIP3    H129527   3.152   2.173   5.398  1.2270 -0.9043  0.7403
 2704TIP3    H229528   3.163   2.324   5.384  0.6125 -0.6828  2.3576
 2705TIP3   OH229529   1.469   2.570  12.152  0.4998  0.3650  0.9320
 2705TIP3    H129530   1.374   2.574  12.155  0.4776 -0.4205  2.5817
 2705TIP3    H229531   1.496   2.655  12.116 -0.8343 -0.0525 -1.2248
 2706TIP3   OH229532   2.439   2.295  15.961 -0.2107  0.1606 -0.6533
 2706TIP3    H129533   2.422   2.389  15.962 -0.2773  0.1431 -0.2235
 2706TIP3    H229534   2.356   2.256  15.989  0.1216  0.0170  0.1490
 2707TIP3   OH229535   5.618   5.497   1.188 -0.0473  0.5876 -0.3409
 2707TIP3    H129536   5.567   5.439   1.132  0.6760 -0.3052 -0.0928
 2707TIP3    H229537   5.565   5.577   1.195 -1.0968 -0.0743 -0.6033
 2708TIP3   OH229538   5.347   2.473  16.235 -0.1406  0.5072  0.1935
 2708TIP3    H129539   5.435   2.436  16.244 -0.2044  0.5612  1.1696
 2708TIP3    H229540   5.297   2.434  16.307 -0.9286  0.4658 -0.3568
 2709TIP3   OH229541   0.287   3.708   3.375 -0.8060 -0.2897  0.2403
 2709TIP3    H129542   0.250   3.793   3.397 -0.4470  0.0042 -0.2541
 2709TIP3    H229543   0.367   3.729   3.327  0.0623 -0.9062  1.3679
 2710TIP3   OH229544   0.616   6.686  14.138  0.0175 -0.1833  0.0293
 2710TIP3    H129545   0.525   6.689  14.168  0.0253 -1.7801  0.2819
 2710TIP3    H229546   0.639   6.778  14.122 -1.4752  0.2843  0.4270
 2711TIP3   OH229547   1.583   6.011  11.749 -0.2338  0.2449  0.2836
 2711TIP3    H129548   1.650   5.961  11.794 -0.8117  0.2967  1.2213
 2711TIP3    H229549   1.632   6.070  11.691  0.5100  0.0857  0.7421
 2712TIP3   OH229550   5.903   3.960   5.406  0.0586 -0.0129  0.0120
 2712TIP3    H129551   5.814   3.966   5.371 -0.5379 -2.2470  0.9727
 2712TIP3    H229552   5.908   3.873   5.445  2.1932  0.6160  1.3416
 2713TIP3   OH229553   1.807   6.632  14.040  0.0198  0.0459  0.8912
 2713TIP3    H129554   1.787   6.572  14.113  1.2255  0.1009  1.2811
 2713TIP3    H229555   1.740   6.700  14.047 -0.5568 -0.5405  1.2587
 2714TIP3   OH229556   2.208   3.975  13.848 -0.2420 -0.1258  0.5348
 2714TIP3    H129557   2.180   4.044  13.788  1.4604 -1.1906 -1.6151
 2714TIP3    H229558   2.294   4.003  13.879 -0.3294 -0.4312  1.0595
 2715TIP3   OH229559   4.043   5.689   0.925 -0.3970  0.4613  0.4332
 2715TIP3    H129560   4.007   5.612   0.880  1.3767 -0.3418  0.3196
 2715TIP3    H229561   3.989   5.762   0.894 -1.3371 -0.5487 -0.3992
 2716TIP3   OH229562   3.295   0.067  14.815  0.2828  0.1317  0.3533
 2716TIP3    H129563   3.367   0.129  14.825  2.5267 -2.2767  0.3869
 2716TIP3    H229564   3.292   0.048  14.722 -1.3995  1.3170  0.1212
 2717TIP3   OH229565   5.040   4.237  13.659 -0.5860 -0.6847  0.1509
 2717TIP3    H129566   5.033   4.298  13.585  1.9909 -1.1663 -0.5858
 2717TIP3    H229567   5.007   4.154  13.624  0.3138 -0.8297 -0.3917
 2718TIP3   OH229568   1.159   4.943  13.523  0.4339  0.5466  0.4181
 2718TIP3    H129569   1.255   4.947  13.519  0.4323  0.7128  0.5364
 2718TIP3    H229570   1.136   4.867  13.469  0.7720 -1.0333  2.3688
 2719TIP3   OH229571   0.850   3.777   3.051  0.2549  0.6497 -0.1077
 2719TIP3    H129572   0.838   3.746   3.141 -0.4228  1.6266  0.1515
 2719TIP3    H229573   0.856   3.872   3.059 -3.6941  1.1853 -1.4014
 2720TIP3   OH229574   0.736   0.781  12.892  0.3075 -0.5884 -0.2038
 2720TIP3    H129575   0.728   0.689  12.917  2.8121 -0.7827  0.1361
 2720TIP3    H229576   0.782   0.780  12.808  0.7492  0.3452  0.0076
 2721TIP3   OH229577   0.533   5.357  14.812 -0.2450 -0.5566  0.1351
 2721TIP3    H129578   0.570   5.278  14.773  0.0624 -0.2423 -0.2185
 2721TIP3    H229579   0.492   5.327  14.892  1.6863 -0.7860  1.1097
 2722TIP3   OH229580   0.626   4.670   4.261  0.4658  0.3109 -0.4046
 2722TIP3    H129581   0.538   4.637   4.243  0.4128  0.1284  0.1528
 2722TIP3    H229582   0.664   4.687   4.175  0.5434 -1.3398 -0.7353
 2723TIP3   OH229583   1.944   1.153   1.408  1.1762  0.2017 -0.1561
 2723TIP3    H129584   1.977   1.144   1.318  2.6659 -0.5123  0.4225
 2723TIP3    H229585   2.016   1.195   1.455  0.2572  0.9183  0.6399
 2724TIP3   OH229586   3.987   2.986  10.511  0.0165  0.2827 -0.1762
 2724TIP3    H129587   3.989   3.063  10.568  1.4353 -0.6075  1.0107
 2724TIP3    H229588   4.006   3.021  10.424  1.0845  1.2327  0.4160
 2725TIP3   OH229589   1.195   1.751   4.263 -0.1477  0.2983 -0.3618
 2725TIP3    H129590   1.260   1.688   4.232  1.4096  1.9387 -0.5383
 2725TIP3    H229591   1.141   1.700   4.324  3.1318 -0.5069  2.1677
 2726TIP3   OH229592   2.020   1.149   5.582 -0.0315 -0.2318  0.2953
 2726TIP3    H129593   1.970   1.070   5.563  1.9947 -1.3369 -0.7302
 2726TIP3    H229594   2.037   1.188   5.497  2.4407 -0.9471  0.3984
 2727TIP3   OH229595   5.706   5.425   0.233  0.3511 -0.2390 -0.1465
 2727TIP3    H129596   5.752   5.408   0.151  1.1136 -0.1687  0.2626
 2727TIP3    H229597   5.762   5.486   0.280 -0.1807 -0.1224  0.3480
 2728TIP3   OH229598   1.672   6.127   2.071  0.0966 -0.4412 -0.4263
 2728TIP3    H129599   1.595   6.082   2.106 -1.1887  2.3922  0.7860
 2728TIP3    H229600   1.636   6.195   2.013  1.3539  2.4917  1.9406
 2729TIP3   OH229601   2.564   6.289   2.128  0.6469  0.4109 -0.2877
 2729TIP3    H129602   2.588   6.326   2.044  2.2826  0.0833 -0.0037
 2729TIP3    H229603   2.536   6.200   2.108  1.2167  0.2708 -0.4815
 2730TIP3   OH229604   2.869   1.738   4.982 -0.0962  0.3182 -0.5033
 2730TIP3    H129605   2.814   1.686   4.924 -1.0410  0.9718 -0.2300
 2730TIP3    H229606   2.958   1.724   4.950 -0.4993 -0.0920 -1.4982
 2731TIP3   OH229607   4.196   3.710   1.435 -0.0506  0.4277 -0.3194
 2731TIP3    H129608   4.264   3.646   1.458 -0.2638  0.1812 -0.3713
 2731TIP3    H229609   4.216   3.787   1.489  1.1882  0.9460 -1.4700
 2732TIP3   OH229610   0.165   6.074  15.684 -0.2386  0.2815 -0.2991
 2732TIP3    H129611   0.187   6.031  15.601 -0.1096  0.8015 -0.5338
 2732TIP3    H229612   0.211   6.158  15.681 -0.6742  0.5341  0.0643
 2733TIP3   OH229613   3.877   4.909  15.555 -0.2779 -0.1748 -0.2499
 2733TIP3    H129614   3.945   4.918  15.488 -0.1445 -0.0215 -0.0970
 2733TIP3    H229615   3.898   4.825  15.598  0.1821  0.1576  0.1940
 2734TIP3   OH229616   5.901   2.985   2.794 -0.1553  0.0779  0.5756
 2734TIP3    H129617   5.852   2.915   2.837  0.8768  1.0268  3.5455
 2734TIP3    H229618   5.976   3.000   2.851  1.1875  1.6911 -1.4774
 2735TIP3   OH229619   0.062   5.431  15.088 -0.6056 -0.2582 -0.3505
 2735TIP3    H129620   0.012   5.512  15.075 -0.5037 -0.0499  0.5206
 2735TIP3    H229621   0.081   5.401  14.999  0.8946  1.6185 -0.7497
 2736TIP3   OH229622   0.046   5.646   3.814 -0.1597  0.0333 -0.0611
 2736TIP3    H129623  -0.047   5.661   3.796 -0.2348 -1.4716 -1.2250
 2736TIP3    H229624   0.053   5.551   3.822  1.1248  0.1967  1.0278
 2737TIP3   OH229625   1.044   0.201  10.893 -0.2725 -0.0974  0.5475
 2737TIP3    H129626   1.032   0.258  10.969 -1.6187  0.0761  0.2317
 2737TIP3    H229627   1.089   0.124  10.927 -0.2857  0.2563  1.3893
 2738TIP3   OH229628   0.471   5.108   2.786 -0.7297 -0.1466  0.2238
 2738TIP3    H129629   0.427   5.151   2.713 -0.6053 -0.0789  0.1876
 2738TIP3    H229630   0.523   5.039   2.745 -0.4402  0.0718  0.2191
 2739TIP3   OH229631   4.528   3.395  16.613 -0.3056  0.4388 -0.0822
 2739TIP3    H129632   4.449   3.343  16.595  1.1123 -2.1686  0.5833
 2739TIP3    H229633   4.599   3.344  16.572  1.4453  0.7645  2.3239
 2740TIP3   OH229634   3.233   2.346   3.314 -0.3396 -0.0638  0.1849
 2740TIP3    H129635   3.230   2.442   3.305 -0.0470 -0.1667 -1.2797
 2740TIP3    H229636   3.148   2.323   3.351 -0.3626  0.7703  0.6759
 2741TIP3   OH229637   2.349   2.649   0.448 -0.0113 -0.3756 -0.5276
 2741TIP3    H129638   2.271   2.690   0.484 -0.4482 -0.3981 -1.4156
 2741TIP3    H229639   2.356   2.566   0.495 -0.3762 -0.2576 -0.2608
 2742TIP3   OH229640   2.956   4.294   5.176  0.1211 -0.0880 -0.3890
 2742TIP3    H129641   3.025   4.232   5.200  0.2866  0.0362 -0.5446
 2742TIP3    H229642   2.882   4.269   5.232 -0.0183 -0.8247 -0.8827
 2743TIP3   OH229643   2.639   3.139   5.824 -0.3310  0.4486  0.0297
 2743TIP3    H129644   2.591   3.060   5.797  1.0098 -0.3853 -0.0209
 2743TIP3    H229645   2.716   3.105   5.870  1.2982  1.6421 -1.6694
 2744TIP3   OH229646   0.027   2.875   2.378  0.0571 -0.4051  0.0461
 2744TIP3    H129647   0.084   2.890   2.302 -1.8223 -1.5381 -1.6970
 2744TIP3    H229648   0.017   2.962   2.418 -0.5081  0.6860 -2.2500
 2745TIP3   OH229649   5.188   4.988  11.505 -0.0318  0.4129  0.4177
 2745TIP3    H129650   5.136   4.908  11.507  0.5192 -0.0469 -1.6824
 2745TIP3    H229651   5.126   5.056  11.478 -0.0293  0.2849  0.0887
 2746TIP3   OH229652   3.931   3.663  13.882 -0.2486 -0.4699  0.0627
 2746TIP3    H129653   3.844   3.692  13.911 -1.3510 -2.1657 -1.3417
 2746TIP3    H229654   3.924   3.568  13.878  1.6940 -0.6377 -0.1165
 2747TIP3   OH229655   0.644   0.753  15.436 -0.3357  0.3783  0.2024
 2747TIP3    H129656   0.681   0.777  15.521 -0.0525  0.1540  0.1430
 2747TIP3    H229657   0.552   0.738  15.454 -0.1768 -0.1914  0.5766
 2748TIP3   OH229658   3.648   3.710  16.432  0.1838 -0.2956  0.0267
 2748TIP3    H129659   3.666   3.626  16.389  1.4945 -0.4361  0.7795
 2748TIP3    H229660   3.724   3.725  16.488  0.4154  1.8736 -0.7931
 2749TIP3   OH229661   2.488   0.299   1.332  0.0176 -0.2764 -0.3352
 2749TIP3    H129662   2.455   0.232   1.392 -0.8839  0.5530  0.1379
 2749TIP3    H229663   2.570   0.263   1.297 -1.0395 -2.1275 -1.0330
 2750TIP3   OH229664   3.353   0.612   2.059 -0.1398  0.4512 -0.0316
 2750TIP3    H129665   3.371   0.674   2.130  0.3557  1.2372 -0.8191
 2750TIP3    H229666   3.398   0.649   1.983 -2.0924  0.5684 -1.2088
 2751TIP3   OH229667   0.995   2.922  13.376 -0.2094  0.4002 -0.2839
 2751TIP3    H129668   1.059   2.971  13.428 -0.6388 -0.2582  0.9100
 2751TIP3    H229669   0.910   2.955  13.405 -0.5234 -1.1904  0.7569
 2752TIP3   OH229670   4.600   3.864  10.580 -0.1026 -0.0363  0.1647
 2752TIP3    H129671   4.552   3.808  10.641 -2.0745  0.8415 -0.5073
 2752TIP3    H229672   4.630   3.938  10.633  0.3884 -0.5035  0.5530
 2753TIP3   OH229673   1.313   1.212   1.010  0.0184  0.2411  0.4144
 2753TIP3    H129674   1.273   1.273   0.948 -0.7805  0.2759  0.9469
 2753TIP3    H229675   1.244   1.149   1.029  1.1757 -1.5623 -1.0148
 2754TIP3   OH229676   2.811   6.458  11.741  0.4839  0.0234  0.0716
 2754TIP3    H129677   2.737   6.496  11.789  0.3511  0.2655 -0.3236
 2754TIP3    H229678   2.869   6.532  11.723 -1.0932  0.6423 -3.1561
 2755TIP3   OH229679   1.448   3.960   5.549 -0.4705  0.1285  0.4534
 2755TIP3    H129680   1.446   3.868   5.578 -0.0255  0.3273  1.1355
 2755TIP3    H229681   1.484   3.956   5.460  1.3744 -0.2087  1.1673
 2756TIP3   OH229682   3.282   5.154  16.830  0.1971 -0.2855  0.1913
 2756TIP3    H129683   3.272   5.084  16.766  1.2135 -0.9386  0.7228
 2756TIP3    H229684   3.368   5.140  16.868  0.4618  1.3130  0.2570
 2757TIP3   OH229685   2.895   2.904   0.575 -0.4633  0.5384  0.0048
 2757TIP3    H129686   2.947   2.865   0.504 -0.7286  0.2672 -0.0417
 2757TIP3    H229687   2.871   2.991   0.542  0.8587  1.1000  0.4583
 2758TIP3   OH229688   3.133   1.713   1.681  0.3350  0.4078 -0.3407
 2758TIP3    H129689   3.126   1.807   1.670  0.4786  0.5895  0.8981
 2758TIP3    H229690   3.074   1.693   1.754 -0.3497 -0.5907 -1.1482
 2759TIP3   OH229691   4.134   4.957  15.451 -0.0535 -0.3636 -0.5630
 2759TIP3    H129692   4.190   4.958  15.529  0.0557  0.6821 -0.6408
 2759TIP3    H229693   4.180   4.900  15.390  0.4203 -0.3216 -0.2541
 2760TIP3   OH229694   4.843   0.189   1.089 -0.0342 -0.3097  0.3302
 2760TIP3    H129695   4.761   0.239   1.091  0.2658  0.2918  3.4687
 2760TIP3    H229696   4.911   0.255   1.072 -0.0786 -0.6665 -1.3792
 2761TIP3   OH229697   2.299   6.251   3.513  0.3127 -0.3888 -0.2637
 2761TIP3    H129698   2.343   6.259   3.598  2.3455  0.1067 -1.3136
 2761TIP3    H229699   2.298   6.157   3.495  0.5169 -0.4356 -0.0297
 2762TIP3   OH229700   5.031   5.574   0.796  0.2173 -0.2788  0.3558
 2762TIP3    H129701   5.045   5.550   0.888 -1.5253  0.1429  0.7694
 2762TIP3    H229702   5.037   5.491   0.749  1.1062 -0.5022  0.8282
 2763TIP3   OH229703   2.559   5.369  15.008 -0.3485  0.0051  0.0943
 2763TIP3    H129704   2.568   5.421  14.928  2.5514 -0.2836  0.1301
 2763TIP3    H229705   2.534   5.432  15.075 -1.6260  0.4514 -0.7497
 2764TIP3   OH229706   5.102   2.434  15.611 -0.1674 -0.1450 -0.6080
 2764TIP3    H129707   5.047   2.505  15.580  2.1559  1.5177 -1.2468
 2764TIP3    H229708   5.100   2.370  15.541 -0.9287  0.0766 -0.7969
 2765TIP3   OH229709   1.003   0.911   5.386 -0.4110  0.0721  0.8821
 2765TIP3    H129710   0.921   0.886   5.344  0.1747 -1.6847  0.7147
 2765TIP3    H229711   1.039   0.980   5.329 -0.9601 -0.3308  0.0279
 2766TIP3   OH229712   3.496   4.310   5.093  0.2809  0.2280  0.5504
 2766TIP3    H129713   3.545   4.300   5.011 -0.6979  0.1282 -0.0440
 2766TIP3    H229714   3.548   4.264   5.158  1.9225  1.7063  0.3586
 2767TIP3   OH229715   4.475   3.747   5.862 -0.2508 -0.6738 -0.5031
 2767TIP3    H129716   4.449   3.802   5.935  0.9835 -1.7713  0.8116
 2767TIP3    H229717   4.438   3.661   5.882  1.8219 -1.5137 -0.0679
 2768TIP3   OH229718   5.868   2.127  16.158 -0.4859 -0.1346  0.1562
 2768TIP3    H129719   5.887   2.214  16.123  3.3026 -0.0620  1.8917
 2768TIP3    H229720   5.836   2.077  16.083  3.4000  1.0518 -2.6162
 2769TIP3   OH229721   3.812   0.756  10.620 -0.7488 -0.5316  0.0308
 2769TIP3    H129722   3.869   0.817  10.666 -1.1672 -0.4277  0.4187
 2769TIP3    H229723   3.868   0.681  10.600  0.1962  0.5795 -1.8094
 2770TIP3   OH229724   3.722   2.952  12.122 -0.2815  0.1302 -0.1273
 2770TIP3    H129725   3.724   2.869  12.169 -0.8580 -0.3085 -0.8762
 2770TIP3    H229726   3.802   2.997  12.150 -0.6552 -0.0798  1.3466
 2771TIP3   OH229727   3.594   3.609   3.255 -0.4470 -0.2997 -0.3317
 2771TIP3    H129728   3.559   3.525   3.285  1.1212 -0.5701  0.8617
 2771TIP3    H229729   3.663   3.585   3.193 -0.8257  0.1604 -0.9433
 2772TIP3   OH229730   3.623   5.991   3.329  0.1531 -0.3853  0.2153
 2772TIP3    H129731   3.659   6.054   3.267  0.7311  1.3512  2.2055
 2772TIP3    H229732   3.540   6.030   3.357 -0.9455 -1.9596 -0.6155
 2773TIP3   OH229733   2.115   0.208  13.336 -0.2797 -0.5587  0.3235
 2773TIP3    H129734   2.151   0.294  13.359  0.2360 -1.4201  3.1395
 2773TIP3    H229735   2.026   0.227  13.305  0.2868  1.0544 -0.4675
 2774TIP3   OH229736   4.981   6.437  16.179 -0.1550  0.3414  0.2502
 2774TIP3    H129737   4.931   6.425  16.097  3.1778 -0.7567 -1.8210
 2774TIP3    H229738   5.012   6.527  16.175  0.5087  0.1065 -0.0430
 2775TIP3   OH229739   2.321   6.125   5.119  0.2285 -0.6617 -0.5859
 2775TIP3    H129740   2.318   6.214   5.153 -2.9060 -1.1672  0.7727
 2775TIP3    H229741   2.273   6.129   5.036  0.0418 -1.0796 -0.5029
 2776TIP3   OH229742   5.678   2.075   4.189  0.1636 -0.5774  0.5725
 2776TIP3    H129743   5.745   2.143   4.183 -0.1454 -0.2975  0.2603
 2776TIP3    H229744   5.721   2.002   4.232  0.7331 -0.4743  0.1810
 2777TIP3   OH229745   6.302   1.660  12.008 -0.2986 -0.1221  0.0878
 2777TIP3    H129746   6.212   1.691  11.995 -0.1718  0.0938 -0.2855
 2777TIP3    H229747   6.305   1.633  12.100 -0.4017  1.0648  0.4607
 2778TIP3   OH229748   4.682   3.778  12.664 -0.6367  0.0968  0.0827
 2778TIP3    H129749   4.773   3.789  12.690 -0.6353  2.1934 -0.6517
 2778TIP3    H229750   4.634   3.780  12.747 -0.1211  0.0756  0.3884
 2779TIP3   OH229751   3.235   4.663  15.365 -0.6006 -0.4669  0.2154
 2779TIP3    H129752   3.194   4.749  15.355 -0.1001 -0.1644  0.7914
 2779TIP3    H229753   3.162   4.605  15.387 -0.8414 -0.0741  0.4623
 2780TIP3   OH229754   0.590   0.913  16.578  0.4622 -0.6434 -0.8877
 2780TIP3    H129755   0.649   0.938  16.507 -0.1746 -0.7411 -1.4635
 2780TIP3    H229756   0.604   0.980  16.645  1.2153 -0.6645 -1.0181
 2781TIP3   OH229757   5.600   1.553  15.116 -0.6113 -0.5388  0.7622
 2781TIP3    H129758   5.696   1.545  15.113 -0.4391  0.8844  1.5501
 2781TIP3    H229759   5.572   1.529  15.027  0.5597 -0.1155  0.2488
 2782TIP3   OH229760   0.367   2.702  13.500 -0.3179 -0.1296  0.1722
 2782TIP3    H129761   0.425   2.732  13.430  0.4051 -3.1574 -0.6662
 2782TIP3    H229762   0.413   2.722  13.581 -0.4677  2.0233 -0.2140
 2783TIP3   OH229763   1.902   2.840  10.615 -0.2527 -0.2602 -0.0621
 2783TIP3    H129764   1.895   2.922  10.664  1.5882 -1.3766  2.3181
 2783TIP3    H229765   1.987   2.845  10.572 -1.4506  0.2963 -2.5825
 2784TIP3   OH229766   4.432   2.060   3.021  0.1704 -0.7775  0.2072
 2784TIP3    H129767   4.406   2.111   3.097  0.8256 -2.2862  1.4837
 2784TIP3    H229768   4.517   2.096   2.996  0.7533 -1.3779  1.2628
 2785TIP3   OH229769   5.481   5.481   6.004  0.2200 -0.2327 -0.3197
 2785TIP3    H129770   5.542   5.407   5.998  0.5030  0.0029 -0.3541
 2785TIP3    H229771   5.510   5.541   5.935 -0.3780 -0.3633 -0.6829
 2786TIP3   OH229772   0.383   6.551   4.005  0.6396  0.4276 -0.4319
 2786TIP3    H129773   0.326   6.493   3.956  1.9355  0.8585 -2.5907
 2786TIP3    H229774   0.343   6.637   3.996  1.3937  0.6803 -1.7004
 2787TIP3   OH229775   5.911   6.567  16.496 -0.3248  0.1449 -0.2444
 2787TIP3    H129776   5.947   6.519  16.570 -2.0203  1.1213  1.3041
 2787TIP3    H229777   5.985   6.617  16.461  0.5001 -0.2677  0.8545
 2788TIP3   OH229778   2.646   1.513   0.914 -0.3166 -0.3538 -0.5196
 2788TIP3    H129779   2.703   1.436   0.906  3.2524  1.5652  2.6132
 2788TIP3    H229780   2.684   1.577   0.853 -0.6751  0.1604 -0.2142
 2789TIP3   OH229781   6.060   0.833   0.205  0.0606 -0.1641  0.0404
 2789TIP3    H129782   5.976   0.875   0.183 -0.6813 -1.0037  1.1118
 2789TIP3    H229783   6.035   0.748   0.240  1.3879 -0.4666  0.3021
 2790TIP3   OH229784   0.401   4.541  14.301  0.4587 -0.5899  0.0500
 2790TIP3    H129785   0.360   4.534  14.387  0.5234  0.5126  0.1843
 2790TIP3    H229786   0.368   4.465  14.253 -1.4826  0.0420  0.2736
 2791TIP3   OH229787   5.034   3.430   1.158 -0.6955 -0.1333  0.6387
 2791TIP3    H129788   5.030   3.378   1.078  2.0334 -0.1535  0.4484
 2791TIP3    H229789   4.987   3.511   1.135  0.2388 -0.0382 -1.0834
 2792TIP3   OH229790   2.473   2.731   4.456  0.5071  0.3553  0.6917
 2792TIP3    H129791   2.441   2.650   4.416  2.3530 -1.4707  2.6420
 2792TIP3    H229792   2.538   2.764   4.395 -0.4481  0.5500 -0.2466
 2793TIP3   OH229793   2.323   5.107  11.656  0.0571  0.3940  0.1089
 2793TIP3    H129794   2.394   5.054  11.621 -1.2066 -2.0295  0.9560
 2793TIP3    H229795   2.347   5.121  11.747 -0.1816  0.2133  0.2002
 2794TIP3   OH229796   3.940   2.528   0.380  0.1213 -0.5473  0.1349
 2794TIP3    H129797   3.913   2.530   0.288 -1.0254 -0.3811  0.4690
 2794TIP3    H229798   3.893   2.453   0.417  0.3970 -0.4692  0.6488
 2795TIP3   OH229799   4.534   0.588   4.461  0.0261  0.9267 -0.0283
 2795TIP3    H129800   4.591   0.658   4.429  0.1697  0.6899 -0.2939
 2795TIP3    H229801   4.451   0.602   4.415  0.8179 -0.5921 -2.0999
 2796TIP3   OH229802   1.507   0.751   6.460 -0.1298  0.0266  0.4319
 2796TIP3    H129803   1.585   0.705   6.488 -0.2744 -1.4193 -1.3704
 2796TIP3    H229804   1.466   0.693   6.397 -2.3189  1.0430  0.8129
 2797TIP3   OH229805   6.132   1.948  11.755  0.2893  0.6004 -0.0759
 2797TIP3    H129806   6.065   2.008  11.789 -2.5984 -0.9208 -2.5721
 2797TIP3    H229807   6.159   1.988  11.672 -1.6835 -1.3555 -1.7802
 2798TIP3   OH229808   4.518   3.668   2.063  0.3808  0.3931 -0.6868
 2798TIP3    H129809   4.535   3.716   2.144  0.4074  0.9724 -1.0317
 2798TIP3    H229810   4.556   3.581   2.079  0.8742  0.6732 -0.2781
 2799TIP3   OH229811   3.240   4.382   3.916  0.6509 -0.1093 -0.0410
 2799TIP3    H129812   3.169   4.355   3.974  0.4712 -1.5542 -0.8780
 2799TIP3    H229813   3.204   4.458   3.868 -0.6472 -1.2485 -0.9689
 2800TIP3   OH229814   1.528   2.422  11.391 -0.7499  0.2823 -0.9807
 2800TIP3    H129815   1.605   2.470  11.360 -0.2842  0.1514 -0.0645
 2800TIP3    H229816   1.558   2.376  11.469 -1.7692  0.2637 -0.5795
 2801TIP3   OH229817   2.271   3.385   6.141 -0.1810  0.0985  0.4621
 2801TIP3    H129818   2.317   3.467   6.161 -0.6513  0.2581  0.9290
 2801TIP3    H229819   2.226   3.402   6.058  1.3594 -0.3842 -0.5029
 2802TIP3   OH229820   2.079   4.399   4.212 -0.0032  0.3899  0.5357
 2802TIP3    H129821   2.113   4.487   4.193  1.8915 -0.0623  1.6243
 2802TIP3    H229822   2.147   4.340   4.180 -0.4300 -0.6200  1.4550
 2803TIP3   OH229823   6.595   5.794  16.346 -0.3170 -0.5047 -0.1342
 2803TIP3    H129824   6.521   5.797  16.407 -0.1686  0.5113  0.0236
 2803TIP3    H229825   6.561   5.835  16.266 -0.2243 -0.9619 -0.4085
 2804TIP3   OH229826   2.793   5.545  12.583 -0.5051  0.3467  0.3011
 2804TIP3    H129827   2.744   5.529  12.663 -0.0733  1.1693  0.7440
 2804TIP3    H229828   2.881   5.512  12.602 -0.3826  0.6094  0.1953
 2805TIP3   OH229829   5.676   0.215   0.703  0.1977 -0.1549 -0.2043
 2805TIP3    H129830   5.625   0.295   0.703 -0.3519 -0.4489  2.1663
 2805TIP3    H229831   5.659   0.176   0.617  0.9132  2.4719 -1.6369
 2806TIP3   OH229832   0.783   6.281   0.167 -0.3778 -0.5091  0.6230
 2806TIP3    H129833   0.806   6.300   0.258 -0.6616  1.2804  0.3597
 2806TIP3    H229834   0.694   6.314   0.158 -0.3982 -0.7985 -0.2869
 2807TIP3   OH229835   0.609   5.238   5.790 -0.4309 -0.3527  0.3468
 2807TIP3    H129836   0.642   5.178   5.722 -1.3599  1.3310 -1.6884
 2807TIP3    H229837   0.559   5.181   5.850  1.3974 -2.0616  0.3555
 2808TIP3   OH229838   2.047   5.728   3.041  0.2990 -0.2440 -0.1620
 2808TIP3    H129839   2.009   5.813   3.062  0.0514 -0.0403 -1.3791
 2808TIP3    H229840   1.995   5.665   3.092 -1.2148  0.0993 -1.2283
 2809TIP3   OH229841   1.316   3.883  16.667  0.1415  1.0180  0.9502
 2809TIP3    H129842   1.300   3.814  16.731  1.8367 -0.1408  0.2137
 2809TIP3    H229843   1.374   3.944  16.711  0.0993  1.0121  1.0136
 2810TIP3   OH229844   1.820   5.164   3.214  0.1806  0.2066 -0.5171
 2810TIP3    H129845   1.750   5.132   3.272  0.7861 -1.7959 -0.8264
 2810TIP3    H229846   1.810   5.113   3.134  2.9120 -1.3109 -0.0091
 2811TIP3   OH229847   1.180   6.133  14.514 -0.1338 -0.8434  0.1345
 2811TIP3    H129848   1.137   6.180  14.585 -0.1377 -0.1222 -0.3353
 2811TIP3    H229849   1.122   6.059  14.496 -0.5474 -0.5746  0.3411
 2812TIP3   OH229850   0.683   1.935  16.275 -0.2807 -0.4696 -1.3221
 2812TIP3    H129851   0.758   1.982  16.310 -1.6941  0.9923 -0.0786
 2812TIP3    H229852   0.641   1.897  16.352 -1.0830 -0.8459 -1.9323
 2813TIP3   OH229853   5.481   2.121  16.136  0.2754  0.4261 -0.1744
 2813TIP3    H129854   5.388   2.114  16.157  0.3821  0.6514  0.4001
 2813TIP3    H229855   5.525   2.063  16.198  0.5239  0.3280 -0.4351
 2814TIP3   OH229856   0.305   4.964  17.202 -0.3668 -0.0553 -0.3954
 2814TIP3    H129857   0.370   4.898  17.177 -1.0353 -0.4901 -1.0009
 2814TIP3    H229858   0.327   4.985  17.293  0.6483 -0.1613 -0.5998
 2815TIP3   OH229859   4.879   5.148  15.124  0.1076 -0.1600  0.7583
 2815TIP3    H129860   4.963   5.156  15.080  0.8645 -2.2159  1.7560
 2815TIP3    H229861   4.899   5.110  15.209 -2.0122 -2.8890  0.1664
 2816TIP3   OH229862   0.630   2.314  14.758 -0.0588  0.0266 -1.0133
 2816TIP3    H129863   0.587   2.385  14.711  0.0395  2.1218  1.8158
 2816TIP3    H229864   0.723   2.330  14.745 -0.0327  0.5787 -0.2557
 2817TIP3   OH229865   2.836   2.417  13.869  0.1241 -0.5110  0.8320
 2817TIP3    H129866   2.817   2.510  13.881 -0.9415 -0.1399 -2.5840
 2817TIP3    H229867   2.785   2.373  13.936 -1.3462  1.2870  0.9691
 2818TIP3   OH229868   1.078   0.068  15.728  0.0156  0.4872 -0.2017
 2818TIP3    H129869   1.101   0.157  15.755  0.6514  0.3118 -0.1524
 2818TIP3    H229870   1.158   0.018  15.740 -0.7864 -0.4711  1.3913
 2819TIP3   OH229871   0.253   4.100   1.213  0.2706  0.1006  0.3191
 2819TIP3    H129872   0.291   4.021   1.175  1.7201  0.7925  0.2836
 2819TIP3    H229873   0.214   4.146   1.139 -0.2798 -0.3908  0.2901
 2820TIP3   OH229874   4.048   3.306   1.650 -0.0764  0.4885  0.6800
 2820TIP3    H129875   4.087   3.311   1.563 -0.7227  0.4303  0.3830
 2820TIP3    H229876   3.963   3.265   1.636 -0.6307  1.4259  1.1822
 2821TIP3   OH229877   3.487   6.436  15.749  0.1421 -0.1937  0.1761
 2821TIP3    H129878   3.429   6.362  15.738 -1.9025  1.2133  0.8178
 2821TIP3    H229879   3.498   6.444  15.844  0.2218  0.3885  0.1250
 2822TIP3   OH229880   6.331   5.141   4.397  0.4536  0.2323 -0.2574
 2822TIP3    H129881   6.263   5.075   4.411  0.3254  0.0714 -1.4655
 2822TIP3    H229882   6.410   5.104   4.437 -0.6566  1.5521  3.5097
 2823TIP3   OH229883   5.060   1.509  11.717 -0.5573 -0.9922  0.1911
 2823TIP3    H129884   5.091   1.563  11.790 -0.8024 -0.4170 -0.1289
 2823TIP3    H229885   5.134   1.506  11.656 -0.2388 -1.7363  0.6004
 2824TIP3   OH229886   4.938   0.538   0.108  0.4435  0.2739 -0.4360
 2824TIP3    H129887   4.906   0.531   0.197 -1.5041 -0.8064 -1.1591
 2824TIP3    H229888   5.024   0.496   0.109  0.0949 -0.4414  0.7674
 2825TIP3   OH229889   4.239   1.642  16.021  0.2983  0.4568 -0.7670
 2825TIP3    H129890   4.250   1.577  15.952  1.8350  0.4699 -0.5638
 2825TIP3    H229891   4.154   1.622  16.060 -1.5992  1.6398 -3.8686
 2826TIP3   OH229892   0.178   3.233   4.079  0.2496 -0.1527  0.6846
 2826TIP3    H129893   0.263   3.198   4.107  0.2496  0.2609  1.2085
 2826TIP3    H229894   0.150   3.288   4.152 -1.1897 -1.4931  1.2057
 2827TIP3   OH229895   2.425   5.785  13.845 -0.3569  0.3364 -0.3006
 2827TIP3    H129896   2.383   5.829  13.918  0.5216  0.9123 -0.1255
 2827TIP3    H229897   2.486   5.850  13.809 -1.6791  0.5326 -2.3761
 2828TIP3   OH229898   3.733   5.338   0.587  0.1529  0.1625  0.1109
 2828TIP3    H129899   3.679   5.410   0.619  1.6044  1.4043 -0.0962
 2828TIP3    H229900   3.775   5.373   0.508 -0.1178 -1.3840 -0.7560
 2829TIP3   OH229901   0.845   2.071   4.006  0.4145 -0.3336  0.3534
 2829TIP3    H129902   0.921   2.046   4.058  0.4454 -0.6888  0.1377
 2829TIP3    H229903   0.771   2.060   4.065  0.6107  0.8810  0.8549
 2830TIP3   OH229904   3.935   4.407  16.337  0.2342 -0.2551  0.2446
 2830TIP3    H129905   3.903   4.461  16.409  0.4486 -0.1551  0.2644
 2830TIP3    H229906   3.878   4.428  16.264  0.3473  0.0353  0.2386
 2831TIP3   OH229907   3.283   5.417  14.465  0.6043  0.0135  0.0402
 2831TIP3    H129908   3.322   5.430  14.551  1.0238  2.0870 -0.4001
 2831TIP3    H229909   3.278   5.322  14.454  2.3979 -0.2944  1.5015
 2832TIP3   OH229910   1.447   4.837  15.493  0.1924  0.4409  0.1146
 2832TIP3    H129911   1.523   4.795  15.533 -0.1042  1.2125  1.5865
 2832TIP3    H229912   1.382   4.839  15.564  0.1128  3.1101  0.0385
 2833TIP3   OH229913   0.531   2.924   2.958  0.0932 -0.1349  0.1696
 2833TIP3    H129914   0.558   2.834   2.938 -0.6356 -0.2997 -0.0993
 2833TIP3    H229915   0.613   2.971   2.974  0.4370 -1.0113  1.0285
 2834TIP3   OH229916   4.758   5.361   2.107  0.7016 -0.1233 -0.0641
 2834TIP3    H129917   4.816   5.436   2.113 -0.8139  1.0115  1.1910
 2834TIP3    H229918   4.719   5.367   2.020 -0.2063  1.1803  0.4183
 2835TIP3   OH229919   6.226   1.228  15.578  0.0549 -0.1374  0.1646
 2835TIP3    H129920   6.168   1.156  15.553 -0.5402  0.1657  0.6501
 2835TIP3    H229921   6.203   1.299  15.517 -0.4625  0.1565  0.6902
 2836TIP3   OH229922   3.646   2.917   1.151 -0.4295  0.2650  0.5283
 2836TIP3    H129923   3.568   2.877   1.113 -1.6722  0.3845  2.8217
 2836TIP3    H229924   3.713   2.908   1.082 -1.4651 -2.9835 -0.2310
 2837TIP3   OH229925   4.492   3.987   2.333 -0.2297  0.5317  1.0847
 2837TIP3    H129926   4.559   4.053   2.348  2.4662 -2.0465  1.1523
 2837TIP3    H229927   4.473   3.992   2.240  1.7887 -0.1438  0.5919
 2838TIP3   OH229928   4.591   1.571  11.638  0.2738  0.1270  0.0541
 2838TIP3    H129929   4.588   1.484  11.598 -0.4497 -0.1206  0.6370
 2838TIP3    H229930   4.606   1.631  11.564  0.3062 -0.4463 -0.4064
 2839TIP3   OH229931   4.570   1.833   0.591  0.1176 -0.1886 -0.2788
 2839TIP3    H129932   4.493   1.817   0.646 -0.3907  0.3455 -0.8283
 2839TIP3    H229933   4.540   1.895   0.524  1.5583  1.7739  0.7632
 2840TIP3   OH229934   1.914   1.241   5.818 -0.3028 -0.2304  0.0080
 2840TIP3    H129935   1.947   1.177   5.881  0.1701  0.3503  0.3627
 2840TIP3    H229936   1.935   1.204   5.733  1.6837  0.2951  0.2161
 2841TIP3   OH229937   4.805   0.223   2.215  0.5652  0.3653  0.0802
 2841TIP3    H129938   4.724   0.247   2.168  0.2670  0.9953  0.8975
 2841TIP3    H229939   4.780   0.148   2.268  0.4658  0.6764  0.4748
 2842TIP3   OH229940   2.803   3.169   5.398 -0.2529  0.1336  0.1707
 2842TIP3    H129941   2.745   3.131   5.332 -1.2420 -0.6239  1.4274
 2842TIP3    H229942   2.793   3.263   5.388 -1.4558  0.0159  0.1544
 2843TIP3   OH229943   4.108   0.111   4.582 -0.2940  0.1519 -0.2604
 2843TIP3    H129944   4.098   0.072   4.496  1.3780 -1.9789  0.4180
 2843TIP3    H229945   4.186   0.166   4.574  0.1404 -0.4194 -0.0044
 2844TIP3   OH229946   4.137   2.740   3.270 -0.2938 -0.5361  0.1105
 2844TIP3    H129947   4.165   2.816   3.220  0.2381 -0.0634  1.0965
 2844TIP3    H229948   4.206   2.675   3.256  0.0496 -0.2653  0.5400
 2845TIP3   OH229949   3.098   1.881  14.584  0.5350 -0.0968  0.6238
 2845TIP3    H129950   3.109   1.827  14.505  0.3933  2.2078 -1.0844
 2845TIP3    H229951   3.188   1.899  14.613  0.6433  0.1452  0.1585
 2846TIP3   OH229952   4.682   4.859   4.583 -0.3115 -0.7806  0.3609
 2846TIP3    H129953   4.767   4.817   4.596 -0.0422  0.6004  4.7015
 2846TIP3    H229954   4.703   4.951   4.566 -0.9946 -1.0222 -2.1566
 2847TIP3   OH229955   3.948   1.591   4.874 -1.0073 -0.0883  0.0918
 2847TIP3    H129956   4.018   1.542   4.831 -0.6826 -0.1924  0.7316
 2847TIP3    H229957   3.964   1.682   4.848  0.5696  0.1874  1.7896
 2848TIP3   OH229958   4.584   5.926  16.255  0.1498 -0.3042  0.5039
 2848TIP3    H129959   4.602   5.838  16.289 -1.6521 -1.8895 -2.2630
 2848TIP3    H229960   4.669   5.955  16.221  0.6836 -1.1636  1.0483
 2849TIP3   OH229961   5.214   5.263  13.762 -0.2159 -0.0794 -0.3707
 2849TIP3    H129962   5.302   5.300  13.751 -0.3930  0.3036 -0.5163
 2849TIP3    H229963   5.196   5.271  13.855 -0.1299 -0.0735 -0.3542
 2850TIP3   OH229964   0.903   0.288  17.343 -0.5124  0.0781  0.4131
 2850TIP3    H129965   0.921   0.379  17.365  0.2112  0.0934 -0.1918
 2850TIP3    H229966   0.912   0.240  17.425  0.3229  0.3832  0.5002
 2851TIP3   OH229967   1.213   3.497   4.177 -0.3287 -0.0274  0.2033
 2851TIP3    H129968   1.150   3.426   4.163  0.0054 -0.5838  1.3893
 2851TIP3    H229969   1.188   3.564   4.114 -2.2398 -0.1435  0.7800
 2852TIP3   OH229970   5.500   6.561   5.628  0.0786  0.0387  0.1517
 2852TIP3    H129971   5.557   6.518   5.691 -0.3925  1.6177  1.7487
 2852TIP3    H229972   5.412   6.550   5.663 -0.0787  1.9996  0.5033
 2853TIP3   OH229973   3.807   6.518   3.201  0.3319  0.9050  0.3918
 2853TIP3    H129974   3.815   6.590   3.139  0.0095  2.1491  1.7419
 2853TIP3    H229975   3.883   6.462   3.183 -0.7252  0.2219 -2.3097
 2854TIP3   OH229976   3.041   0.681  14.395 -0.0382  0.1391 -0.2040
 2854TIP3    H129977   3.078   0.740  14.461 -2.5467 -0.1858  1.6727
 2854TIP3    H229978   3.068   0.593  14.424 -1.6518 -0.0555  0.8716
 2855TIP3   OH229979   5.870   4.005   1.751  0.1800 -0.5424 -0.5393
 2855TIP3    H129980   5.866   3.911   1.769 -0.9093 -0.7570 -1.7085
 2855TIP3    H229981   5.848   4.012   1.658 -0.8027  0.9393 -0.2276
 2856TIP3   OH229982   2.018   6.565   3.137  0.4054  0.2671  0.6026
 2856TIP3    H129983   2.056   6.486   3.176  1.3654  0.6867  0.5471
 2856TIP3    H229984   1.929   6.539   3.113  0.2132 -0.3752  1.9089
 2857TIP3   OH229985   2.679   5.713   5.311  0.6255 -0.3758  0.3574
 2857TIP3    H129986   2.700   5.698   5.219 -1.4266 -0.8383 -0.0949
 2857TIP3    H229987   2.656   5.806   5.315  1.3070 -0.2078  0.5555
 2858TIP3   OH229988   0.092   5.584  16.859 -0.7725 -0.6074  0.4592
 2858TIP3    H129989   0.076   5.529  16.782 -1.9769 -0.9312  0.9203
 2858TIP3    H229990   0.187   5.585  16.868 -0.7099 -2.5066  0.3563
 2859TIP3   OH229991   0.892   3.055   3.255  0.1548  0.7954  0.0759
 2859TIP3    H129992   0.968   3.011   3.216  1.3655  0.8243  2.2035
 2859TIP3    H229993   0.881   3.012   3.340 -1.7049  1.3872  0.1822
 2860TIP3   OH229994   0.936   0.491   5.588 -0.6372  0.0481  0.4251
 2860TIP3    H129995   0.918   0.546   5.512  0.1586 -0.2556  0.0086
 2860TIP3    H229996   0.849   0.469   5.623 -1.0366 -0.2432 -0.7025
 2861TIP3   OH229997   1.574   5.681  13.298  0.4883  0.3336 -0.2187
 2861TIP3    H129998   1.543   5.770  13.283  1.5389  1.2165  2.2381
 2861TIP3    H229999   1.636   5.665  13.226  1.3506  2.1602  0.0591
 2862TIP3   OH230000   6.466   1.651   0.232  0.0766  0.5661 -0.4290
 2862TIP3    H130001   6.393   1.709   0.209 -1.3709 -1.0634 -0.1817
 2862TIP3    H230002   6.472   1.591   0.158 -0.4607 -0.7990  0.5851
 2863TIP3   OH230003   4.822   6.420   0.845 -0.0046 -0.1406  0.5617
 2863TIP3    H130004   4.787   6.500   0.886 -1.8718 -1.3348  1.4175
 2863TIP3    H230005   4.901   6.401   0.895 -0.0015  0.6981  0.9063
 2864TIP3   OH230006   1.926   6.373  12.993  0.5003 -0.6340  0.7717
 2864TIP3    H130007   1.903   6.466  12.990 -2.0794 -1.2277 -0.1925
 2864TIP3    H230008   1.994   6.363  12.927  0.4948  0.4774  0.5763
 2865TIP3   OH230009   1.675   2.403   0.882  0.1943  0.2275 -0.2590
 2865TIP3    H130010   1.632   2.354   0.812 -3.9371  0.8743  1.5444
 2865TIP3    H230011   1.721   2.337   0.934 -4.1557 -1.8468  1.3906
 2866TIP3   OH230012   6.133   2.157   0.669  0.9844 -0.1231 -0.3904
 2866TIP3    H130013   6.118   2.171   0.576 -0.4031 -0.3862 -0.2198
 2866TIP3    H230014   6.109   2.066   0.685  3.2206 -0.7447 -0.1364
 2867TIP3   OH230015   2.744   5.639  11.832 -0.2530 -0.2743 -0.1527
 2867TIP3    H130016   2.806   5.586  11.881  0.5268 -1.6826 -2.5250
 2867TIP3    H230017   2.741   5.722  11.880  3.2700 -0.2269  0.2584
 2868TIP3   OH230018   0.523   4.087   1.971  0.1328 -0.2471 -0.3833
 2868TIP3    H130019   0.549   4.117   1.884  0.4409  2.0093  0.4146
 2868TIP3    H230020   0.596   4.112   2.028 -0.7092 -0.2824  0.7549
 2869TIP3   OH230021   3.782   2.335  11.892  0.3245 -0.1083 -0.1888
 2869TIP3    H130022   3.790   2.312  11.985  0.6904  1.5885  0.2312
 2869TIP3    H230023   3.843   2.276  11.848 -0.1905 -1.2598  0.5715
 2870TIP3   OH230024   0.560   6.532   4.509 -0.5554  0.0657  0.7017
 2870TIP3    H130025   0.522   6.457   4.465  1.2290  0.8869 -2.5589
 2870TIP3    H230026   0.626   6.495   4.567 -1.7278 -0.9704  1.4274
 2871TIP3   OH230027   1.974   5.214   1.645 -0.9087 -0.0105 -0.1381
 2871TIP3    H130028   2.047   5.155   1.626 -0.5087  0.3869  0.1301
 2871TIP3    H230029   1.937   5.181   1.727 -0.5905  0.1929  0.0913
 2872TIP3   OH230030   3.136   2.973  17.020 -0.3764 -0.1482  0.1089
 2872TIP3    H130031   3.061   3.032  17.021  0.7353  1.3601 -1.0637
 2872TIP3    H230032   3.129   2.925  17.103 -1.0425  2.0221  1.4065
 2873TIP3   OH230033   1.930   0.362   5.289 -0.3158  0.0588  0.2690
 2873TIP3    H130034   1.846   0.317   5.293 -0.9703  1.3044  0.9403
 2873TIP3    H230035   1.960   0.348   5.199 -0.7209 -1.2792  0.3222
 2874TIP3   OH230036   2.341   0.920   3.682 -0.3586  0.4587 -0.5798
 2874TIP3    H130037   2.302   0.900   3.767  2.0539 -0.2411  0.4213
 2874TIP3    H230038   2.389   0.841   3.657  1.7314  1.7649 -0.9604
 2875TIP3   OH230039   1.011   2.609  16.178 -0.3670  0.0721 -0.5456
 2875TIP3    H130040   0.958   2.629  16.255  1.0735 -1.9091  1.0687
 2875TIP3    H230041   0.975   2.527  16.145 -1.0956  0.9925 -2.1987
 2876TIP3   OH230042   0.057   2.781  14.036  0.3880  0.3960 -0.4962
 2876TIP3    H130043  -0.036   2.793  14.058  0.6188  0.0273  0.7826
 2876TIP3    H230044   0.057   2.746  13.948 -0.7294 -0.3752 -0.2060
 2877TIP3   OH230045   3.556   3.186  12.148  0.3497  0.3142  0.5406
 2877TIP3    H130046   3.610   3.107  12.150 -0.9317 -0.6866 -1.2559
 2877TIP3    H230047   3.485   3.165  12.087 -1.6587  1.8479  2.2051
 2878TIP3   OH230048   0.015   5.617   1.636  0.2042  0.0963 -0.2177
 2878TIP3    H130049  -0.042   5.692   1.652 -0.2693 -0.1627 -0.6418
 2878TIP3    H230050  -0.030   5.544   1.678 -0.6659 -0.4447 -1.9796
 2879TIP3   OH230051   0.368   0.965  13.034  0.3191 -0.3103 -0.0032
 2879TIP3    H130052   0.343   0.873  13.045  1.6879 -0.9125 -1.5674
 2879TIP3    H230053   0.302   1.001  12.975  0.0958 -0.4432  0.1643
 2880TIP3   OH230054   3.544   1.168   1.634  0.0545 -0.8653  0.4252
 2880TIP3    H130055   3.580   1.138   1.718 -1.8325  2.2222  2.5652
 2880TIP3    H230056   3.460   1.123   1.626  0.5665 -1.7375 -0.2789
 2881TIP3   OH230057   4.711   0.514   5.794 -0.0317  0.3188  0.1187
 2881TIP3    H130058   4.619   0.533   5.813  0.5587  1.2201  2.4424
 2881TIP3    H230059   4.738   0.582   5.732 -1.1694 -0.6453 -1.5199
 2882TIP3   OH230060   4.582   0.484   6.387  0.4975  0.1577 -0.3963
 2882TIP3    H130061   4.657   0.540   6.406 -0.1313  1.7549 -2.3110
 2882TIP3    H230062   4.612   0.396   6.408  1.3905  1.1643  3.1089
 2883TIP3   OH230063   5.076   4.914   0.299  0.0135 -0.2050  0.0264
 2883TIP3    H130064   5.133   4.986   0.327  0.7618 -0.4481 -0.8324
 2883TIP3    H230065   5.052   4.870   0.381 -1.3095  1.6101  0.6828
 2884TIP3   OH230066   6.639   4.291   0.534  0.5863 -0.5082 -0.2679
 2884TIP3    H130067   6.663   4.380   0.508  1.5621 -1.2275 -2.0082
 2884TIP3    H230068   6.620   4.245   0.452  0.6457 -2.0597  0.5313
 2885TIP3   OH230069   4.976   1.370   2.234  0.1732  0.1660  0.2407
 2885TIP3    H130070   4.982   1.299   2.298  0.2467  0.8506  1.0056
 2885TIP3    H230071   4.882   1.377   2.215  0.2938 -1.1479 -1.0193
 2886TIP3   OH230072   0.176   4.628   1.965  0.4451  0.0307 -0.0051
 2886TIP3    H130073   0.165   4.695   2.032 -2.7100 -0.5574  0.2150
 2886TIP3    H230074   0.152   4.546   2.009 -2.0344 -0.3334 -1.8119
 2887TIP3   OH230075   4.918   0.015   0.568 -0.3380 -0.3800 -0.6314
 2887TIP3    H130076   4.941   0.011   0.476 -1.3014 -1.3722 -0.8389
 2887TIP3    H230077   5.002   0.005   0.614 -0.0751 -1.8000 -1.3802
 2888TIP3   OH230078   2.043   0.387  17.344  0.0889 -0.1401  0.7955
 2888TIP3    H130079   2.066   0.440  17.420  0.3199 -1.4538  1.6857
 2888TIP3    H230080   1.950   0.370  17.354 -0.1213  0.6015  0.1711
 2889TIP3   OH230081   3.510   4.812   0.111  0.1071  0.3811  0.7121
 2889TIP3    H130082   3.438   4.827   0.172  1.3177  2.0970  1.8381
 2889TIP3    H230083   3.479   4.847   0.028 -1.2261 -1.1399  0.5337
 2890TIP3   OH230084   0.059   5.280   2.741  0.0482 -0.5253 -0.1810
 2890TIP3    H130085   0.085   5.205   2.687  0.0135 -0.6779  0.0109
 2890TIP3    H230086   0.056   5.245   2.830 -1.1659 -0.6015 -0.2381
 2891TIP3   OH230087   2.764   6.393  12.025  0.1800  0.3845 -0.0636
 2891TIP3    H130088   2.840   6.446  12.002  1.2011 -1.0040 -0.0294
 2891TIP3    H230089   2.693   6.427  11.969  0.8461  1.5951 -0.2072
 2892TIP3   OH230090   6.013   5.741  13.180  0.3317  0.5431  0.4486
 2892TIP3    H130091   6.095   5.779  13.212  0.0154  0.3842  1.5108
 2892TIP3    H230092   5.974   5.702  13.258 -1.9486  2.7480  0.5330
 2893TIP3   OH230093   0.187   6.314   2.082 -0.0588  0.1706  0.0103
 2893TIP3    H130094   0.161   6.402   2.110  0.6043  0.5732 -0.6124
 2893TIP3    H230095   0.189   6.320   1.987  0.3723 -0.4139 -0.0146
 2894TIP3   OH230096   2.996   4.113  15.858 -0.3506 -0.0354 -0.5866
 2894TIP3    H130097   2.927   4.138  15.797  0.7513  0.5719 -1.6400
 2894TIP3    H230098   3.075   4.110  15.804  0.6312  0.3329  0.7855
 2895TIP3   OH230099   5.409   2.101   2.977 -0.5947 -0.0125  0.1657
 2895TIP3    H130100   5.357   2.036   3.025 -1.7447  1.6973  1.3463
 2895TIP3    H230101   5.453   2.151   3.046  1.1556 -0.2022 -0.7594
 2896TIP3   OH230102   4.145   1.276  17.379 -0.0328 -0.1026  0.8883
 2896TIP3    H130103   4.055   1.302  17.395 -0.1158 -0.0783  0.3803
 2896TIP3    H230104   4.141   1.183  17.357  0.0429 -0.0504  0.6510
 2897TIP3   OH230105   2.990   1.421  17.145  0.0079  0.6537  0.3412
 2897TIP3    H130106   2.932   1.421  17.069  0.5438  0.0547 -0.0806
 2897TIP3    H230107   2.997   1.513  17.170 -0.8462  0.7649  0.1905
 2898TIP3   OH230108   0.081   0.231  14.981 -0.3854 -0.2531 -0.4742
 2898TIP3    H130109   0.024   0.165  15.021 -0.2544  0.4840  0.9967
 2898TIP3    H230110   0.021   0.296  14.945 -0.5441  1.0062  1.8950
 2899TIP3   OH230111   3.512   5.559  13.387  0.0309 -0.3540 -0.2281
 2899TIP3    H130112   3.531   5.649  13.363 -2.6184  0.8304  1.5864
 2899TIP3    H230113   3.505   5.561  13.483 -0.0943 -2.5182 -0.1341
 2900TIP3   OH230114   2.658   0.455  15.541  0.5739  0.0326  0.4099
 2900TIP3    H130115   2.711   0.375  15.546  0.0772 -0.3384 -0.0360
 2900TIP3    H230116   2.569   0.423  15.525  0.4329  0.6895 -0.1655
 2901TIP3   OH230117   1.077   1.084   1.004 -0.0315  0.9515 -0.1232
 2901TIP3    H130118   1.025   1.135   0.943  0.3630  1.9801  0.3758
 2901TIP3    H230119   1.017   1.062   1.075 -0.0479  1.2749 -0.0356
 2902TIP3   OH230120   2.891   6.464   3.524 -0.4668  0.1818  0.0482
 2902TIP3    H130121   2.858   6.480   3.612  1.8389 -1.7874  1.3864
 2902TIP3    H230122   2.972   6.514   3.519 -0.8505  0.7273 -1.2190
 2903TIP3   OH230123   4.119   4.648  13.340  0.3775 -0.1979  0.2134
 2903TIP3    H130124   4.103   4.738  13.312  1.1267  0.4379  1.6978
 2903TIP3    H230125   4.136   4.600  13.259  1.0493  1.2312 -0.5380
 2904TIP3   OH230126   4.452   2.778   1.398 -0.1946 -0.4869  0.4009
 2904TIP3    H130127   4.474   2.851   1.456 -1.2448 -1.1547  1.6970
 2904TIP3    H230128   4.360   2.760   1.417 -0.8421 -0.1505 -2.1647
 2905TIP3   OH230129   6.283   2.395  16.192  0.7485  0.1942 -0.3868
 2905TIP3    H130130   6.268   2.388  16.286 -1.3247  1.2454 -0.5814
 2905TIP3    H230131   6.311   2.308  16.165  0.4716 -0.3620  1.0648
 2906TIP3   OH230132   1.531   0.983  17.311 -0.6869  0.4631  0.0643
 2906TIP3    H130133   1.528   1.067  17.358 -2.0689 -0.2293  1.2837
 2906TIP3    H230134   1.476   0.925  17.362 -1.3528 -0.6650 -1.8272
 2907TIP3   OH230135   0.759   4.960   6.407 -0.2127 -0.1515  0.1615
 2907TIP3    H130136   0.814   4.937   6.482 -1.1447  0.1398  0.9680
 2907TIP3    H230137   0.721   5.045   6.431 -0.0698  0.2209 -0.9051
 2908TIP3   OH230138   6.094   3.661   2.051 -1.2736  0.1096 -0.4822
 2908TIP3    H130139   6.138   3.732   2.097 -1.0568  0.3593 -1.0613
 2908TIP3    H230140   6.026   3.705   1.999 -0.2565  0.0513 -1.9027
 2909TIP3   OH230141   1.797   0.657   3.559  0.4453  0.3761  0.4294
 2909TIP3    H130142   1.882   0.671   3.601  1.0179  1.5583 -1.0070
 2909TIP3    H230143   1.815   0.667   3.465 -0.7927 -2.0508 -0.1329
 2910TIP3   OH230144   6.080   0.881   2.930  0.0617 -0.6292 -0.4541
 2910TIP3    H130145   6.034   0.940   2.989 -0.4188 -0.7740 -0.6773
 2910TIP3    H230146   6.063   0.917   2.843  0.3854 -0.6755 -0.5362
 2911TIP3   OH230147   6.173   4.338   0.927 -0.3463  0.1718 -0.1191
 2911TIP3    H130148   6.163   4.300   1.014 -0.5107  1.1971  0.3230
 2911TIP3    H230149   6.163   4.432   0.941  1.8540  0.5689 -0.8946
 2912TIP3   OH230150   3.729   6.431   2.590  0.0530 -0.0032  0.4099
 2912TIP3    H130151   3.670   6.447   2.516  0.6991 -0.3577 -0.1927
 2912TIP3    H230152   3.785   6.360   2.561 -0.8591 -1.4192  1.9395
 2913TIP3   OH230153   1.522   2.777  15.242 -0.5314 -0.5166 -0.3770
 2913TIP3    H130154   1.532   2.864  15.279 -1.0423  0.5866 -2.6373
 2913TIP3    H230155   1.603   2.763  15.192  0.3297 -2.1280  1.3414
 2914TIP3   OH230156   0.081   4.421  14.959 -0.1332  0.5723 -0.2278
 2914TIP3    H130157  -0.008   4.401  14.932  0.6562 -1.6779 -1.4575
 2914TIP3    H230158   0.109   4.491  14.900  0.3758 -1.8884 -3.1671
 2915TIP3   OH230159   1.726   5.457   4.506  0.3982 -0.3002  0.1627
 2915TIP3    H130160   1.715   5.502   4.590  0.0590 -0.4538  0.2038
 2915TIP3    H230161   1.723   5.528   4.441 -0.2558 -0.2633  0.2196
 2916TIP3   OH230162   4.572   2.480   5.481  0.0079 -0.4975  0.3639
 2916TIP3    H130163   4.576   2.519   5.568  0.2169  0.7814 -0.2039
 2916TIP3    H230164   4.511   2.535   5.433 -0.9143 -1.7987 -0.0200
 2917TIP3   OH230165   1.232   3.747   5.974  0.3841 -0.0142 -0.7889
 2917TIP3    H130166   1.163   3.693   6.013 -1.5357  0.9428 -2.6633
 2917TIP3    H230167   1.292   3.684   5.935 -1.0239 -0.8686 -1.6606
 2918TIP3   OH230168   2.979   1.223  12.441 -0.2683 -0.2400 -0.0139
 2918TIP3    H130169   2.991   1.184  12.527  0.7905 -0.8083 -0.4030
 2918TIP3    H230170   2.891   1.196  12.414 -1.0538  0.8676  1.3379
 2919TIP3   OH230171   5.427   1.709  16.834  0.1768  0.0387 -0.0023
 2919TIP3    H130172   5.349   1.759  16.860 -0.9323 -0.8720 -1.4852
 2919TIP3    H230173   5.500   1.769  16.851 -0.9100  1.2497  0.5631
 2920TIP3   OH230174   3.579   3.690  13.696  0.1235  0.1195  0.2227
 2920TIP3    H130175   3.577   3.785  13.698  0.9617  0.2046 -1.8298
 2920TIP3    H230176   3.513   3.666  13.631  0.5979 -0.6780  0.0315
 2921TIP3   OH230177   0.870   4.112  11.456  0.4423  0.0807 -0.6895
 2921TIP3    H130178   0.941   4.122  11.519  0.1084 -0.0454 -0.2911
 2921TIP3    H230179   0.846   4.202  11.433  0.8182  0.1243 -0.9338
 2922TIP3   OH230180   2.233   0.839  17.034  0.9229 -0.3164 -0.1082
 2922TIP3    H130181   2.281   0.758  17.050 -0.5794 -0.9017  1.8230
 2922TIP3    H230182   2.262   0.868  16.947  2.0175 -2.5156 -0.5366
 2923TIP3   OH230183   0.664   0.693   6.775 -0.5395  0.1118 -0.1454
 2923TIP3    H130184   0.744   0.724   6.819 -0.9473  1.3304 -0.2169
 2923TIP3    H230185   0.652   0.754   6.703 -0.9918 -0.6773 -0.7519
 2924TIP3   OH230186   6.138   1.763   4.862 -0.2495  0.5306  0.4307
 2924TIP3    H130187   6.102   1.706   4.931  0.1927  0.1955  0.3844
 2924TIP3    H230188   6.195   1.824   4.909 -1.4014  1.5270  0.5984
 2925TIP3   OH230189   5.998   0.225   1.126  0.4343 -0.1741  0.4083
 2925TIP3    H130190   5.932   0.201   1.060  0.9835 -0.0428 -0.2063
 2925TIP3    H230191   5.949   0.234   1.207 -0.6771  1.9117 -0.4110
 2926TIP3   OH230192   6.622   6.430   0.040  0.1354 -0.2462  0.0368
 2926TIP3    H130193   6.622   6.341   0.005 -0.6692  0.4996 -1.9785
 2926TIP3    H230194   6.672   6.423   0.122  1.3199 -2.2641 -0.7757
 2927TIP3   OH230195   1.861   4.835   0.904 -0.3176  0.4376 -0.3309
 2927TIP3    H130196   1.869   4.785   0.823  2.7520 -1.3843  0.9508
 2927TIP3    H230197   1.892   4.777   0.973 -1.5559  2.3637  2.0575
 2928TIP3   OH230198   0.958   3.763   2.372 -0.8315 -0.0777 -0.0813
 2928TIP3    H130199   0.986   3.777   2.462 -1.9860 -0.8942  0.4253
 2928TIP3    H230200   1.024   3.705   2.334 -0.0740  0.6673  0.0641
 2929TIP3   OH230201   2.806   0.832  15.937  0.3515 -0.2510  0.3004
 2929TIP3    H130202   2.767   0.772  15.874  0.9776 -0.0203 -0.3220
 2929TIP3    H230203   2.800   0.918  15.896  1.4881 -0.2069  0.1882
 2930TIP3   OH230204   5.353   5.725   3.735 -0.9614  0.6515  0.3318
 2930TIP3    H130205   5.442   5.701   3.762 -1.0458  0.4280  0.4179
 2930TIP3    H230206   5.301   5.712   3.814 -0.8000  2.3527  0.7511
 2931TIP3   OH230207   3.520   1.725   0.976 -0.0382  0.4295 -0.1585
 2931TIP3    H130208   3.432   1.687   0.976  0.5128 -0.9035  0.2303
 2931TIP3    H230209   3.510   1.806   0.926 -1.4446  0.2217 -0.2797
 2932TIP3   OH230210   1.938   3.133  16.941  0.0609 -0.3632  0.4357
 2932TIP3    H130211   1.857   3.084  16.952  0.1273 -0.5912 -0.0861
 2932TIP3    H230212   1.980   3.096  16.864 -1.1446  2.1726 -1.5906
 2933TIP3   OH230213   0.888   4.709  16.551  0.7005  0.4499  0.5336
 2933TIP3    H130214   0.833   4.756  16.613  1.2075  0.6510  0.8327
 2933TIP3    H230215   0.844   4.625  16.539  0.4017  0.5574  0.8735
 2934TIP3   OH230216   3.870   3.428   5.194 -0.9008 -0.2193 -0.0491
 2934TIP3    H130217   3.835   3.439   5.282 -0.8160 -0.0794 -0.0331
 2934TIP3    H230218   3.964   3.444   5.203 -0.5529 -2.1179  0.2069
 2935TIP3   OH230219   6.258   0.480  10.938 -0.1442 -0.9851  0.1904
 2935TIP3    H130220   6.259   0.574  10.918  2.5620 -1.5016 -2.9582
 2935TIP3    H230221   6.165   0.460  10.953 -1.4767  1.4579 -3.3554
 2936TIP3   OH230222   1.996   1.768  16.128  0.4247  0.3945 -0.3867
 2936TIP3    H130223   2.028   1.843  16.077  0.4911 -0.3453 -1.4889
 2936TIP3    H230224   2.056   1.697  16.105  0.2697 -0.0336  0.5149
 2937TIP3   OH230225   0.728   4.176   2.145 -0.2141  0.0078  0.2440
 2937TIP3    H130226   0.688   4.173   2.231  0.9734 -0.9905  0.7988
 2937TIP3    H230227   0.768   4.263   2.140  0.4043 -0.2219  1.0458
 2938TIP3   OH230228   2.041   0.515  14.877 -0.2107  0.1384 -0.0151
 2938TIP3    H130229   2.004   0.569  14.947  1.9679 -1.3494  2.4203
 2938TIP3    H230230   1.998   0.430  14.887 -1.7824  0.5851 -2.2402
 2939TIP3   OH230231   5.394   5.103  12.986  0.1884  0.0090 -0.1584
 2939TIP3    H130232   5.389   5.093  13.081 -0.4317  1.0078 -0.0666
 2939TIP3    H230233   5.346   5.184  12.968  0.7586  0.1217 -1.2732
 2940TIP3   OH230234   3.384   0.336  15.948 -0.4275 -0.2422  0.3573
 2940TIP3    H130235   3.477   0.338  15.926 -0.1733 -2.1248  1.1142
 2940TIP3    H230236   3.352   0.424  15.926  1.5405  0.4768  0.2165
 2941TIP3   OH230237   3.546   4.611   2.433  0.8711  0.4491  0.4696
 2941TIP3    H130238   3.558   4.588   2.340  0.5225 -1.9366  0.9631
 2941TIP3    H230239   3.626   4.658   2.456  1.3113  0.3946 -0.8328
 2942TIP3   OH230240   5.105   3.224   2.042 -0.0006 -0.1106  0.0248
 2942TIP3    H130241   5.195   3.234   2.073 -0.3859  1.3096  0.7701
 2942TIP3    H230242   5.051   3.237   2.121 -0.8758 -0.1590 -0.5539
 2943TIP3   OH230243   5.272   3.003  16.763 -0.9820  0.4090  0.0729
 2943TIP3    H130244   5.257   2.916  16.726  0.7946  0.5396 -1.0566
 2943TIP3    H230245   5.304   2.986  16.852 -0.8343 -0.0723 -0.0708
 2944TIP3   OH230246   2.165   4.443   4.799  0.6468  0.5296  0.2570
 2944TIP3    H130247   2.121   4.493   4.729 -1.7392 -1.3330  0.2885
 2944TIP3    H230248   2.241   4.496   4.821  0.3792  2.2230 -2.3323
 2945TIP3   OH230249   4.854   2.733   4.380  0.2813 -0.2350 -0.0612
 2945TIP3    H130250   4.879   2.732   4.473 -0.2137  0.7455  0.0976
 2945TIP3    H230251   4.824   2.822   4.365 -0.6360 -0.6776 -0.9115
 2946TIP3   OH230252   1.386   0.320  15.743  0.0748  0.6579  0.8656
 2946TIP3    H130253   1.407   0.404  15.701 -0.3450  0.3831  0.0883
 2946TIP3    H230254   1.420   0.329  15.832  0.6908  1.3770  0.5714
 2947TIP3   OH230255   4.864   1.453   4.066  0.3350  0.2769  0.4638
 2947TIP3    H130256   4.885   1.426   3.976 -1.2914 -1.0940  0.4569
 2947TIP3    H230257   4.907   1.388   4.121 -1.6402 -1.0601  0.5214
 2948TIP3   OH230258   4.375   1.594  13.297  0.5881  0.0171 -0.6021
 2948TIP3    H130259   4.324   1.545  13.231 -1.3692  0.1321  0.7409
 2948TIP3    H230260   4.384   1.682  13.260  0.4522 -0.2010 -1.1716
 2949TIP3   OH230261   4.611   5.044  15.585 -0.0519  0.1254 -0.3126
 2949TIP3    H130262   4.600   5.088  15.501  3.5021 -1.5403 -1.8599
 2949TIP3    H230263   4.571   4.958  15.573 -0.3928  0.2306  0.0557
 2950TIP3   OH230264   5.657   3.390  13.663 -0.5594 -0.0899 -0.2009
 2950TIP3    H130265   5.686   3.462  13.607  0.4523 -1.0382 -0.9145
 2950TIP3    H230266   5.588   3.430  13.718 -1.4862  0.9129 -1.9806
 2951TIP3   OH230267   6.624   5.615   5.522  0.1150 -0.0339  0.1826
 2951TIP3    H130268   6.664   5.529   5.510  0.1333 -0.1941  1.2989
 2951TIP3    H230269   6.698   5.675   5.532  0.0980 -0.0863  0.6520
 2952TIP3   OH230270   1.556   2.562  16.432 -0.1217 -0.4421 -0.0849
 2952TIP3    H130271   1.464   2.542  16.411 -0.0595  0.5216 -1.3524
 2952TIP3    H230272   1.567   2.654  16.409  0.8013 -0.1285  1.4186
 2953TIP3   OH230273   2.338   4.703   2.794 -0.0825  0.1208  0.6458
 2953TIP3    H130274   2.279   4.774   2.770 -0.0892  0.3983  1.4471
 2953TIP3    H230275   2.306   4.672   2.878 -0.1173 -0.8922  0.2794
 2954TIP3   OH230276   6.632   1.575  11.090 -0.9856 -0.3275  0.1154
 2954TIP3    H130277   6.674   1.541  11.010  0.4071  1.6403 -0.0813
 2954TIP3    H230278   6.561   1.631  11.058 -0.5752  0.2747  0.2237
 2955TIP3   OH230279   0.284   3.644   4.702 -0.0860 -0.3967  0.3782
 2955TIP3    H130280   0.295   3.734   4.730 -3.4137 -0.1005  1.1527
 2955TIP3    H230281   0.228   3.650   4.624  0.9394 -1.7448 -0.5164
 2956TIP3   OH230282   4.733   0.999  13.500  0.0892 -0.1492 -0.6115
 2956TIP3    H130283   4.763   1.081  13.460  2.7881 -0.7432 -0.0303
 2956TIP3    H230284   4.744   0.934  13.430 -1.4142 -0.1739 -0.8604
 2957TIP3   OH230285   4.718   6.745  14.984  0.5011 -0.2374  0.5677
 2957TIP3    H130286   4.627   6.773  14.979  1.0871  1.8960  0.7517
 2957TIP3    H230287   4.749   6.746  14.894  0.4382 -0.6688  0.5381
 2958TIP3   OH230288   3.169   1.077  14.735  0.4472  0.0288 -0.1489
 2958TIP3    H130289   3.195   1.135  14.806  2.9686 -1.6191  0.4395
 2958TIP3    H230290   3.077   1.059  14.750  0.8382 -0.0627  2.6015
 2959TIP3   OH230291   1.810   1.267   2.598  0.2117 -0.0495  0.0113
 2959TIP3    H130292   1.867   1.236   2.669 -0.2796  0.8727  0.8418
 2959TIP3    H230293   1.866   1.325   2.546  0.2883  0.1122  0.2721
 2960TIP3   OH230294   0.480   6.132   5.009  0.6004  0.7681  0.2974
 2960TIP3    H130295   0.520   6.079   5.078  1.0099 -0.3147 -0.7503
 2960TIP3    H230296   0.542   6.128   4.936  0.8046  2.9795  0.2787
 2961TIP3   OH230297   5.587   6.512  14.412  0.6357 -0.8767 -0.4718
 2961TIP3    H130298   5.520   6.470  14.359 -0.6163  0.3637  0.0497
 2961TIP3    H230299   5.657   6.448  14.418 -0.4426 -2.1679 -1.1619
 2962TIP3   OH230300   0.094   1.500   0.322 -0.0139  0.1962 -0.2399
 2962TIP3    H130301   0.103   1.407   0.340  2.3375  0.3485 -0.3235
 2962TIP3    H230302   0.115   1.543   0.406 -2.4891  0.6733  0.2071
 2963TIP3   OH230303   5.426   2.429  13.202  0.0580 -0.2110 -0.3717
 2963TIP3    H130304   5.456   2.497  13.142  1.0128  0.5920  0.9338
 2963TIP3    H230305   5.507   2.388  13.234 -0.4833 -1.5745 -0.6741
 2964TIP3   OH230306   0.634   5.268  17.406  0.1772  0.5284 -0.7048
 2964TIP3    H130307   0.684   5.326  17.464  0.6012 -0.1854 -0.3257
 2964TIP3    H230308   0.679   5.184  17.413 -0.4416  0.1453 -1.2094
 2965TIP3   OH230309   2.614   0.083  12.862  0.6245 -0.3216  0.4893
 2965TIP3    H130310   2.552   0.114  12.929 -0.8814  1.4609 -1.5796
 2965TIP3    H230311   2.597  -0.011  12.855  0.6535 -0.5071  2.3935
 2966TIP3   OH230312   3.981   4.828  14.549  0.0872  0.5679  0.0787
 2966TIP3    H130313   3.956   4.831  14.641 -1.2477 -0.0652 -0.2437
 2966TIP3    H230314   3.981   4.735  14.527  0.9031  0.6780 -0.4462
 2967TIP3   OH230315   5.936   1.445  11.146  0.1131 -0.0374  0.2622
 2967TIP3    H130316   5.989   1.487  11.213  1.2925 -1.5962  0.3465
 2967TIP3    H230317   5.953   1.497  11.067  1.7246 -0.4443  0.3091
 2968TIP3   OH230318   0.471   0.979   4.657 -0.7550 -0.1893 -0.2628
 2968TIP3    H130319   0.395   0.994   4.712 -0.2488 -1.8975  0.9843
 2968TIP3    H230320   0.438   0.930   4.582 -1.3587  1.7185 -1.3204
 2969TIP3   OH230321   3.028   6.676  13.532  0.0780 -0.0067 -0.2803
 2969TIP3    H130322   3.100   6.680  13.470  0.7478  0.3224  0.4947
 2969TIP3    H230323   2.973   6.752  13.509 -0.4745 -0.7146 -1.3827
 2970TIP3   OH230324   5.444   1.276  16.487  0.2477 -0.5138 -0.3103
 2970TIP3    H130325   5.421   1.308  16.400 -1.1598  4.3757  1.5522
 2970TIP3    H230326   5.535   1.302  16.499  0.1975 -0.4781 -0.0063
 2971TIP3   OH230327   1.581   3.481  16.870  0.6698 -0.2707  0.6291
 2971TIP3    H130328   1.648   3.451  16.932  0.4520 -0.7846  0.6192
 2971TIP3    H230329   1.631   3.516  16.796  0.9299  0.1162  0.9811
 2972TIP3   OH230330   6.644   2.070   4.042  0.1193 -0.6777 -0.5925
 2972TIP3    H130331   6.568   2.096   4.095  0.5392  0.8373 -0.6784
 2972TIP3    H230332   6.680   1.994   4.087 -0.5729 -0.4859  0.3167
 2973TIP3   OH230333   0.376   0.687  17.111 -0.4004 -0.2184  0.0838
 2973TIP3    H130334   0.290   0.729  17.115  0.5377  1.9432 -0.9827
 2973TIP3    H230335   0.420   0.714  17.192  0.4749  1.5953 -0.9438
 2974TIP3   OH230336   6.493   3.674  16.710 -0.3720  0.0551  0.3700
 2974TIP3    H130337   6.442   3.717  16.641 -1.2669 -1.2056  0.2257
 2974TIP3    H230338   6.584   3.692  16.687 -0.6967  0.9998 -0.2434
 2975TIP3   OH230339   4.503   4.657   3.479  0.0110  0.1135 -0.1538
 2975TIP3    H130340   4.502   4.729   3.542 -1.1161 -0.8868  1.0356
 2975TIP3    H230341   4.594   4.627   3.479  0.4556  1.3689 -0.5135
 2976TIP3   OH230342   0.203   0.370   4.419  0.1326  0.1789  0.4889
 2976TIP3    H130343   0.261   0.320   4.361 -1.9215  0.0416 -1.6173
 2976TIP3    H230344   0.215   0.331   4.505  2.2141 -0.6344 -0.1148
 2977TIP3   OH230345   2.742   3.590  13.237  0.0008 -0.0639  0.9254
 2977TIP3    H130346   2.676   3.540  13.189  0.2433  0.6248 -0.1540
 2977TIP3    H230347   2.825   3.556  13.206  0.1879  1.5897 -0.5106
 2978TIP3   OH230348   3.658   4.469  11.283 -0.5365  0.0007 -0.1493
 2978TIP3    H130349   3.697   4.553  11.306  0.8480 -0.3665 -1.0388
 2978TIP3    H230350   3.642   4.426  11.367 -1.8104  1.3552  0.3521
 2979TIP3   OH230351   6.136   2.541   3.363  0.1378 -0.3469 -0.3158
 2979TIP3    H130352   6.170   2.619   3.406  1.1610 -0.6551 -0.5346
 2979TIP3    H230353   6.117   2.569   3.273  1.1457 -0.5048 -0.5845
 2980TIP3   OH230354   0.648   0.619   0.144 -0.0816 -0.2193 -0.5326
 2980TIP3    H130355   0.604   0.537   0.121 -0.8396  0.4065 -1.4117
 2980TIP3    H230356   0.733   0.613   0.101 -0.1038 -0.5800 -0.5270
 2981TIP3   OH230357   2.495   4.944   1.123  0.2536 -0.1746  0.2447
 2981TIP3    H130358   2.433   5.008   1.091  0.0786  0.4246  1.7226
 2981TIP3    H230359   2.499   4.878   1.054 -0.0089  1.1084 -1.0325
 2982TIP3   OH230360   6.548   6.119  14.747  0.0056  0.2162  0.0913
 2982TIP3    H130361   6.561   6.031  14.712  0.2087 -0.3668  1.5351
 2982TIP3    H230362   6.574   6.111  14.839 -1.0310  1.5199  0.5172
 2983TIP3   OH230363   0.224   3.604  12.251  0.0203  0.4148  0.0976
 2983TIP3    H130364   0.290   3.570  12.190 -1.0116 -0.0697 -0.7796
 2983TIP3    H230365   0.214   3.696  12.228  0.5340  0.5482  0.3841
 2984TIP3   OH230366   2.634   3.573  12.168  0.2329 -0.2187 -0.0086
 2984TIP3    H130367   2.706   3.574  12.104  0.7863 -3.7019  0.3766
 2984TIP3    H230368   2.677   3.590  12.252 -0.3549  3.3439 -0.2704
 2985TIP3   OH230369   1.413   5.839   6.860  0.0029  0.6867  0.2532
 2985TIP3    H130370   1.463   5.760   6.841  0.2450  1.0981 -0.8874
 2985TIP3    H230371   1.478   5.909   6.862 -0.4927  1.2213 -1.1933
 2986TIP3   OH230372   0.617   2.287  15.789  0.3712 -0.2276 -0.2331
 2986TIP3    H130373   0.558   2.346  15.835  1.5191  0.9314 -0.2000
 2986TIP3    H230374   0.661   2.238  15.858 -0.1872 -0.7417 -0.2375
 2987TIP3   OH230375   5.665   3.675  16.725 -0.4208  0.1198 -0.3450
 2987TIP3    H130376   5.660   3.609  16.795 -0.3644  0.3740 -0.1014
 2987TIP3    H230377   5.591   3.654  16.669 -0.3828 -0.1760 -0.2879
 2988TIP3   OH230378   5.673   0.981  16.209  0.2614 -0.5427 -0.7818
 2988TIP3    H130379   5.585   0.958  16.242 -0.2482  1.4112 -0.6637
 2988TIP3    H230380   5.729   0.977  16.286  0.2233 -1.4293 -0.7859
 2989TIP3   OH230381   0.064   3.303   1.967 -0.4000 -0.3774 -0.6047
 2989TIP3    H130382   0.157   3.292   1.988 -0.9621 -1.1294  1.7490
 2989TIP3    H230383   0.019   3.236   2.018 -2.3156  0.4569 -1.0999
 2990TIP3   OH230384   5.960   6.324  12.850  0.5465 -0.3992 -0.6459
 2990TIP3    H130385   6.009   6.373  12.915  0.1163  1.6058 -1.7400
 2990TIP3    H230386   6.025   6.270  12.806  0.8007 -1.9826  1.5460
 2991TIP3   OH230387   2.048   2.640  12.250 -0.1204 -0.2320 -0.3826
 2991TIP3    H130388   1.995   2.577  12.298 -1.9813  0.6602 -1.1848
 2991TIP3    H230389   2.068   2.709  12.314  0.6912 -0.9067  0.1065
 2992TIP3   OH230390   5.092   2.521  14.368  0.6721 -0.2606 -0.4404
 2992TIP3    H130391   5.153   2.469  14.421  0.7285  0.4136  0.1641
 2992TIP3    H230392   5.102   2.486  14.280  1.0364 -0.9802 -0.1270
 2993TIP3   OH230393   6.438   1.431   0.422  0.5084  0.0859 -0.2249
 2993TIP3    H130394   6.411   1.357   0.367 -0.3481 -0.1221  0.4568
 2993TIP3    H230395   6.431   1.507   0.363 -0.1197 -0.1710 -0.4942
 2994TIP3   OH230396   3.712   0.279   2.000  0.1949 -0.7765 -0.0968
 2994TIP3    H130397   3.806   0.288   2.017 -0.0145 -0.0527  0.7294
 2994TIP3    H230398   3.687   0.360   1.956 -0.4584  0.0491  1.6891
 2995TIP3   OH230399   1.116   0.286   1.600 -0.3501 -0.3167 -0.2375
 2995TIP3    H130400   1.179   0.357   1.586  0.0531 -0.8092 -0.9766
 2995TIP3    H230401   1.068   0.312   1.678  0.7562  0.0847  0.3306
 2996TIP3   OH230402   4.578   1.712   2.191 -0.1621  0.6087  0.1590
 2996TIP3    H130403   4.550   1.800   2.218  1.3822  1.2261 -0.1589
 2996TIP3    H230404   4.641   1.728   2.121 -0.6672 -0.8137 -0.6473
 2997TIP3   OH230405   0.830   2.355   6.121 -0.3550 -0.8668 -0.1163
 2997TIP3    H130406   0.894   2.423   6.103 -1.2061  0.7830  2.5044
 2997TIP3    H230407   0.872   2.300   6.187 -1.5338  0.2432  1.6425
 2998TIP3   OH230408   4.417   0.196  14.468 -0.2981  1.1916 -0.4528
 2998TIP3    H130409   4.452   0.255  14.535 -3.9802  1.6847  1.2292
 2998TIP3    H230410   4.413   0.111  14.511  0.8144  0.6292 -1.3943
 2999TIP3   OH230411   1.483   5.510   2.128 -0.6686  0.0648  0.0193
 2999TIP3    H130412   1.388   5.525   2.127 -0.5123  1.1343 -1.0284
 2999TIP3    H230413   1.499   5.456   2.051 -0.3595  0.3766 -0.1367
 3000TIP3   OH230414   6.695   5.171  12.571 -0.3224  0.0010 -0.5443
 3000TIP3    H130415   6.752   5.164  12.494 -1.2475 -1.5749 -1.1227
 3000TIP3    H230416   6.752   5.152  12.645  0.3721  0.5940 -0.9197
 3001TIP3   OH230417   0.975   2.148   2.051  0.3288 -0.1110 -0.0379
 3001TIP3    H130418   1.035   2.208   2.095  0.0411 -0.3164  0.6459
 3001TIP3    H230419   1.019   2.064   2.053  0.7811  0.0818 -1.0948
 3002TIP3   OH230420   4.881   4.685  14.270 -0.0694  0.4139  0.0271
 3002TIP3    H130421   4.821   4.684  14.195 -0.8545  1.9753  0.5697
 3002TIP3    H230422   4.857   4.608  14.321 -0.0924 -0.2058 -0.9089
 3003TIP3   OH230423   3.481   4.345   0.779  0.1163  0.5723  0.0131
 3003TIP3    H130424   3.471   4.252   0.800  0.8249  0.7660  1.3123
 3003TIP3    H230425   3.574   4.355   0.760  0.4722  1.3826  1.9606
 3004TIP3   OH230426   2.613   4.707   5.541  0.3043  0.5030  0.1433
 3004TIP3    H130427   2.681   4.657   5.586  1.2132  0.4862 -1.1920
 3004TIP3    H230428   2.550   4.642   5.513  1.1067  0.1608 -0.9347
 3005TIP3   OH230429   5.650   4.796  17.140  0.0233  0.0846  0.0293
 3005TIP3    H130430   5.724   4.807  17.080 -0.8265 -0.5268 -1.1628
 3005TIP3    H230431   5.588   4.864  17.114 -1.1445 -1.3251 -1.0613
 3006TIP3   OH230432   0.852   2.300   4.303  0.0906 -0.7040 -0.0076
 3006TIP3    H130433   0.913   2.367   4.271  0.6246 -2.1194 -2.2403
 3006TIP3    H230434   0.771   2.347   4.322  1.5943  1.1271  2.3936
 3007TIP3   OH230435   3.768   4.530   4.451 -0.0553 -0.1403 -0.3863
 3007TIP3    H130436   3.764   4.448   4.402  0.9849  0.1462 -0.9751
 3007TIP3    H230437   3.702   4.586   4.408  0.1465 -0.2300 -0.8198
 3008TIP3   OH230438   3.649   6.114   0.957 -0.4411  0.4336  0.4331
 3008TIP3    H130439   3.562   6.096   0.993  0.0063  1.0045  1.8542
 3008TIP3    H230440   3.700   6.035   0.976 -0.3238  0.5649  0.6666
 3009TIP3   OH230441   4.917   6.288  13.243 -0.3366 -0.5035  0.6153
 3009TIP3    H130442   4.930   6.372  13.289  3.2251 -0.1999 -0.6049
 3009TIP3    H230443   4.902   6.313  13.152 -0.2530 -1.1521  0.4191
 3010TIP3   OH230444   4.065   4.574  13.982 -0.5120 -0.1917 -0.4123
 3010TIP3    H130445   4.041   4.641  14.046 -1.7973  1.0081 -2.0992
 3010TIP3    H230446   4.158   4.591  13.965 -0.9192  1.4796 -1.1441
 3011TIP3   OH230447   2.151   0.255   3.259  0.3204 -0.6746 -0.3607
 3011TIP3    H130448   2.169   0.170   3.299 -1.7560 -0.7566  0.5230
 3011TIP3    H230449   2.171   0.319   3.328  0.5015 -0.5309 -0.5432
 3012TIP3   OH230450   0.321   0.592   6.617 -0.1643  0.0345 -0.1109
 3012TIP3    H130451   0.351   0.683   6.615  1.4539 -0.4565  0.1146
 3012TIP3    H230452   0.234   0.594   6.578  0.2251  1.5435 -0.9813
 3013TIP3   OH230453   6.234   2.313   3.981  0.1708  0.5964  0.0401
 3013TIP3    H130454   6.209   2.365   4.057  3.7624  2.1237  0.3959
 3013TIP3    H230455   6.270   2.376   3.919  1.3956 -1.0651 -1.0499
 3014TIP3   OH230456   0.692   1.491  16.536 -0.9093 -0.0179  0.0646
 3014TIP3    H130457   0.611   1.499  16.486 -0.2291  0.9640 -0.9395
 3014TIP3    H230458   0.736   1.414  16.499 -0.9559 -0.0000 -0.0266
 3015TIP3   OH230459   0.775   5.442   0.140  0.0664  0.2779  0.1189
 3015TIP3    H130460   0.808   5.364   0.185 -1.4165 -0.3229  0.2245
 3015TIP3    H230461   0.740   5.496   0.210  1.8992  1.5142  0.1538
 3016TIP3   OH230462   2.370   1.816  12.129 -0.1002  0.2039 -0.5972
 3016TIP3    H130463   2.309   1.835  12.201 -0.1840  0.1083 -0.6417
 3016TIP3    H230464   2.313   1.785  12.058  0.1187 -1.3095 -0.1562
 3017TIP3   OH230465   2.137   0.378  12.379 -0.2603  0.0955  0.1809
 3017TIP3    H130466   2.230   0.382  12.356  0.2142  0.3926  2.0299
 3017TIP3    H230467   2.132   0.313  12.448 -1.5690 -0.4632 -0.4020
 3018TIP3   OH230468   0.885   2.626  13.358 -0.0605 -0.1053 -0.0134
 3018TIP3    H130469   0.893   2.685  13.283 -0.6395  0.9019  0.7002
 3018TIP3    H230470   0.798   2.586  13.348 -0.3306  0.3786  0.3577
 3019TIP3   OH230471   3.168   0.765   4.070  0.2606 -0.1179 -0.0142
 3019TIP3    H130472   3.151   0.684   4.119  1.3329 -0.2554  0.1600
 3019TIP3    H230473   3.121   0.754   3.987  1.1116 -1.3184 -0.3650
 3020TIP3   OH230474   2.694   0.767   1.910  0.5793 -0.0167  0.0919
 3020TIP3    H130475   2.660   0.845   1.954  0.3812 -1.4605  2.6756
 3020TIP3    H230476   2.618   0.729   1.865  0.3102  0.3660  0.2213
 3021TIP3   OH230477   3.874   1.137  17.047  0.3492  0.5410 -0.6542
 3021TIP3    H130478   3.845   1.197  17.116  0.2445  1.6100 -1.5995
 3021TIP3    H230479   3.969   1.132  17.059  0.2562  0.1942 -0.0277
 3022TIP3   OH230480   0.101   0.443   2.018  0.0051  0.0659  0.1035
 3022TIP3    H130481   0.117   0.432   1.924  1.8344 -1.6428  0.5315
 3022TIP3    H230482   0.007   0.454   2.026 -0.2429 -0.2969 -1.9010
 3023TIP3   OH230483   3.321   3.147  14.721  0.3074  0.5632  0.2750
 3023TIP3    H130484   3.229   3.123  14.706 -0.4203  2.5405  1.1833
 3023TIP3    H230485   3.316   3.231  14.766  2.5939  0.9425 -0.0842
 3024TIP3   OH230486   2.937   5.799   2.314 -0.1910  0.1157  0.3513
 3024TIP3    H130487   3.031   5.790   2.327 -0.3728 -1.0868  0.9618
 3024TIP3    H230488   2.907   5.854   2.385  0.0190  0.3156  0.2841
 3025TIP3   OH230489   0.231   4.705   1.306 -0.3583  0.7933 -0.0433
 3025TIP3    H130490   0.256   4.797   1.316  2.4140 -0.0041  1.4973
 3025TIP3    H230491   0.278   4.675   1.229 -0.4561  0.4396  0.0302
 3026TIP3   OH230492   4.763   4.352   2.182  0.1830 -0.1247 -0.0553
 3026TIP3    H130493   4.856   4.341   2.161 -0.0297 -2.0247 -0.1530
 3026TIP3    H230494   4.730   4.410   2.114  1.6503  2.1161  1.0408
 3027TIP3   OH230495   6.542   1.989  15.987 -0.2042 -0.0549 -0.4641
 3027TIP3    H130496   6.631   2.001  16.021 -0.8329  2.7418  0.4198
 3027TIP3    H230497   6.555   1.961  15.896  1.5410 -0.9199  0.0072
 3028TIP3   OH230498   3.318   3.291  12.359 -0.0987  0.0080  0.0193
 3028TIP3    H130499   3.347   3.279  12.269  2.3952 -0.5906  0.8312
 3028TIP3    H230500   3.304   3.203  12.392 -1.0493  0.2263  0.2250
 3029TIP3   OH230501   2.962   4.287   5.611 -0.0231  0.3851 -0.8878
 3029TIP3    H130502   3.028   4.271   5.543 -0.1038 -0.1900 -0.8370
 3029TIP3    H230503   2.976   4.217   5.675 -1.7969 -0.8103 -1.7361
 3030TIP3   OH230504   1.143   3.809  12.081 -0.2547 -0.2557  0.3742
 3030TIP3    H130505   1.166   3.892  12.039  0.8978 -0.4261  0.6094
 3030TIP3    H230506   1.137   3.830  12.174  0.3095 -0.4714  0.4669
 3031TIP3   OH230507   3.826   0.141  14.828  0.1367  0.2705  0.7589
 3031TIP3    H130508   3.779   0.210  14.874  0.8601  0.6673  0.9261
 3031TIP3    H230509   3.916   0.173  14.823  0.3470 -0.3756  0.2634
 3032TIP3   OH230510   6.497   0.683   6.032  0.2768 -0.5270  0.3028
 3032TIP3    H130511   6.408   0.651   6.016 -0.0918  0.4856  0.2275
 3032TIP3    H230512   6.553   0.622   5.985 -0.5100 -0.1130 -1.2464
 3033TIP3   OH230513   5.416   6.570  12.656 -0.6269  0.5507  0.4244
 3033TIP3    H130514   5.469   6.551  12.734  0.4664  0.3982 -0.3232
 3033TIP3    H230515   5.454   6.650  12.619 -1.6619  1.0911  0.4894
 3034TIP3   OH230516   0.489   2.333  12.369  0.3285  0.4155 -0.5734
 3034TIP3    H130517   0.397   2.319  12.390 -0.1491  3.2643 -0.2836
 3034TIP3    H230518   0.523   2.246  12.350 -2.2488 -0.8088 -0.0622
 3035TIP3   OH230519   3.182   1.896  15.157 -0.0853 -0.5479 -0.0980
 3035TIP3    H130520   3.126   1.964  15.195 -0.9939 -1.0814 -0.4449
 3035TIP3    H230521   3.215   1.935  15.076  0.5369 -0.0136  0.4009
 3036TIP3   OH230522   3.315   6.290  14.662  0.4890 -0.5177 -0.3565
 3036TIP3    H130523   3.254   6.216  14.653  0.2262 -0.5117  1.1297
 3036TIP3    H230524   3.312   6.312  14.755  0.7919  1.1840 -0.7160
 3037TIP3   OH230525   2.492   0.843  13.638 -0.7489 -0.1182 -0.2695
 3037TIP3    H130526   2.507   0.758  13.680 -1.2190 -0.4496 -0.7434
 3037TIP3    H230527   2.579   0.880  13.625 -0.5748 -0.2415  0.5159
 3038TIP3   OH230528   3.999   3.140  13.967 -0.0743 -0.3026  0.0435
 3038TIP3    H130529   4.090   3.113  13.974 -0.4075 -1.6720 -0.5841
 3038TIP3    H230530   3.955   3.067  13.924 -1.6077  0.0426  0.9358
 3039TIP3   OH230531   6.368   3.998   2.916  0.4540 -0.2415  0.8681
 3039TIP3    H130532   6.345   4.070   2.858 -0.2037  0.3853  1.8717
 3039TIP3    H230533   6.284   3.967   2.950  0.7517 -1.2845  0.6991
 3040TIP3   OH230534   5.383   6.435  16.276  0.0299  0.6370 -0.5389
 3040TIP3    H130535   5.416   6.499  16.340 -2.3650 -0.4331  1.9839
 3040TIP3    H230536   5.451   6.367  16.275 -0.5514 -0.1224  2.2751
 3041TIP3   OH230537   1.275   5.506  11.835  0.3372 -0.5935 -0.7081
 3041TIP3    H130538   1.242   5.596  11.835  1.6873 -0.0714  0.4271
 3041TIP3    H230539   1.358   5.511  11.881  0.5429 -2.4037 -0.8286
 3042TIP3   OH230540   3.661   5.802   1.181 -0.1604  0.1688  0.0481
 3042TIP3    H130541   3.645   5.724   1.128  0.5528  1.0808 -1.6054
 3042TIP3    H230542   3.577   5.821   1.222 -0.5173 -1.0615 -0.0699
 3043TIP3   OH230543   2.733   0.803   5.194 -0.4596 -0.0597  0.2115
 3043TIP3    H130544   2.657   0.749   5.216 -1.2010  0.7983 -0.1855
 3043TIP3    H230545   2.745   0.860   5.269  0.1344 -0.5440  0.4979
 3044TIP3   OH230546   3.725   0.199  17.332  0.7156 -0.3968  0.0527
 3044TIP3    H130547   3.725   0.111  17.295  0.9522 -0.2060 -0.4108
 3044TIP3    H230548   3.817   0.219  17.346  0.7831  0.3390 -1.2360
 3045TIP3   OH230549   3.974   1.047  11.383  0.0070 -0.4381  0.0090
 3045TIP3    H130550   3.903   1.025  11.444  0.0844 -0.6937  0.0082
 3045TIP3    H230551   3.954   0.996  11.304 -0.1804  0.0130 -0.2396
 3046TIP3   OH230552   1.394   2.431   4.648  0.2281 -0.2504 -0.0696
 3046TIP3    H130553   1.440   2.402   4.727 -2.3043 -4.3503  0.2079
 3046TIP3    H230554   1.301   2.431   4.673 -0.6290 -1.4574 -2.8683
 3047TIP3   OH230555   3.114   4.943  12.795 -0.5985  0.1907  0.3807
 3047TIP3    H130556   3.117   4.848  12.809  0.4134  0.0215 -0.7725
 3047TIP3    H230557   3.192   4.976  12.839 -0.0970  0.2669 -0.5331
 3048TIP3   OH230558   5.126   1.316  15.795  0.0223 -0.3069  0.6621
 3048TIP3    H130559   5.130   1.354  15.708 -4.6983  0.1979  0.3888
 3048TIP3    H230560   5.125   1.392  15.854 -1.9642 -0.2831  0.6641
 3049TIP3   OH230561   4.910   0.563   2.801  0.2447  0.1719 -0.1967
 3049TIP3    H130562   4.951   0.563   2.887  0.5481 -1.2989 -0.3256
 3049TIP3    H230563   4.867   0.478   2.794  1.2441 -0.2559 -1.9623
 3050TIP3   OH230564   1.128   6.562  13.688  0.6188  0.2433  0.0678
 3050TIP3    H130565   1.078   6.643  13.700  0.5156  0.2592 -0.4717
 3050TIP3    H230566   1.166   6.569  13.601  0.0743 -0.5658 -0.2563
 3051TIP3   OH230567   3.247   3.567   2.081  0.6957 -0.4628  0.0615
 3051TIP3    H130568   3.264   3.561   2.175 -0.8917 -0.8956  0.3575
 3051TIP3    H230569   3.272   3.656   2.058 -0.7885  0.3498  1.3443
 3052TIP3   OH230570   3.642   4.777   1.795 -0.2379  0.2382 -0.9056
 3052TIP3    H130571   3.676   4.688   1.786  0.9434  0.6147 -0.3293
 3052TIP3    H230572   3.611   4.799   1.707 -0.2982 -0.6254 -1.1172
 3053TIP3   OH230573   4.985   2.297  11.683  0.0899  0.0098 -0.4817
 3053TIP3    H130574   4.993   2.224  11.622 -1.1204 -1.0171  0.5325
 3053TIP3    H230575   5.071   2.303  11.724  0.8936  0.6410 -2.1369
 3054TIP3   OH230576   5.654   0.547   3.963 -0.2272  0.4607  0.0605
 3054TIP3    H130577   5.716   0.511   3.900  0.6400  1.4479  0.3129
 3054TIP3    H230578   5.675   0.640   3.966 -1.1860  0.6662  0.7759
 3055TIP3   OH230579   2.133   3.740   4.318 -0.1040 -0.0621 -0.1556
 3055TIP3    H130580   2.110   3.810   4.378 -0.2348  0.2200 -0.5330
 3055TIP3    H230581   2.117   3.776   4.231  0.0004 -0.4966 -0.3591
 3056TIP3   OH230582   3.241   1.804  16.689 -0.0749  0.1453  0.0622
 3056TIP3    H130583   3.233   1.794  16.594 -1.3253  0.2671  0.1500
 3056TIP3    H230584   3.248   1.898  16.703 -0.9462  0.1930  0.1707
 3057TIP3   OH230585   2.131   0.502   0.502 -0.0305 -0.1623 -0.3358
 3057TIP3    H130586   2.091   0.581   0.465 -0.8354  0.0890  1.0259
 3057TIP3    H230587   2.084   0.430   0.460  0.7709  0.0534 -1.6540
 3058TIP3   OH230588   4.084   1.794   2.445 -0.6901  0.0358 -0.2378
 3058TIP3    H130589   4.063   1.887   2.439  1.8404  0.6563 -0.7086
 3058TIP3    H230590   4.076   1.774   2.539  0.2190  1.1592  0.1089
 3059TIP3   OH230591   5.835   0.001   6.095 -0.1603 -0.5012  0.0003
 3059TIP3    H130592   5.806  -0.077   6.048  0.0262  0.0959 -1.1319
 3059TIP3    H230593   5.783   0.073   6.058  2.1832  0.4921 -1.5887
 3060TIP3   OH230594   5.746   1.788  12.724  0.2154 -0.1292 -0.1985
 3060TIP3    H130595   5.824   1.802  12.778  0.0970  0.6353 -0.2141
 3060TIP3    H230596   5.780   1.772  12.636  0.5132 -3.3224  0.3834
 3061TIP3   OH230597   0.968   5.644  14.817  0.6731 -0.2492 -0.0213
 3061TIP3    H130598   0.977   5.627  14.723 -2.6495  0.4645 -0.6224
 3061TIP3    H230599   0.957   5.739  14.822 -0.8169 -0.4376  0.8449
 3062TIP3   OH230600   6.343   0.722  15.962  0.1585 -0.3159 -0.4127
 3062TIP3    H130601   6.255   0.684  15.962  0.9994 -2.3868 -0.1741
 3062TIP3    H230602   6.377   0.701  16.049  0.5264  1.4264 -0.1108
 3063TIP3   OH230603   0.218   3.051  16.092 -0.7574  0.0027 -0.1809
 3063TIP3    H130604   0.149   2.995  16.056 -0.1868 -0.2243 -0.9602
 3063TIP3    H230605   0.171   3.121  16.138 -1.4876 -0.6187  0.0422
 3064TIP3   OH230606   3.793   0.065  15.576 -0.4170  0.0226  0.1193
 3064TIP3    H130607   3.745  -0.011  15.610 -0.0767 -0.0010  0.5537
 3064TIP3    H230608   3.760   0.139  15.626  0.3661 -0.0683  0.7916
 3065TIP3   OH230609   5.586   1.792  14.826 -0.2042  0.1226 -0.1817
 3065TIP3    H130610   5.502   1.767  14.864  1.0909 -0.8007  2.2634
 3065TIP3    H230611   5.639   1.819  14.900  1.2208  2.1472 -1.8424
 3066TIP3   OH230612   3.432   4.509   0.044 -0.2245  0.2989 -0.1649
 3066TIP3    H130613   3.502   4.448   0.020 -0.7259 -0.0967 -0.6683
 3066TIP3    H230614   3.458   4.592   0.004 -0.3718 -0.0161 -0.9290
 3067TIP3   OH230615   2.092   5.730   4.024  0.2026  0.1724 -0.0698
 3067TIP3    H130616   2.066   5.701   3.936 -0.4161 -1.3359  0.5581
 3067TIP3    H230617   2.170   5.677   4.044  1.6136  2.0095 -0.4885
 3068TIP3   OH230618   5.179   6.258  15.243 -0.6899 -0.2672  0.2030
 3068TIP3    H130619   5.259   6.222  15.281 -0.6432 -0.3780  0.0011
 3068TIP3    H230620   5.115   6.187  15.251 -0.4734 -0.5648 -0.6084
 3069TIP3   OH230621   1.797   4.901   5.401  0.0207  0.5119  0.5921
 3069TIP3    H130622   1.810   4.941   5.487  0.4368 -0.6641  1.0963
 3069TIP3    H230623   1.874   4.847   5.388  0.2136  1.0693 -0.7683
 3070TIP3   OH230624   1.873   3.673  15.149 -0.2201 -0.5477 -0.2198
 3070TIP3    H130625   1.867   3.633  15.236 -1.3293 -2.6321 -1.1800
 3070TIP3    H230626   1.798   3.637  15.101 -0.4719  1.6722 -1.6362
 3071TIP3   OH230627   5.346   3.439  11.855 -0.1109  0.6401  0.4982
 3071TIP3    H130628   5.407   3.414  11.786  0.6229  1.4875  0.8139
 3071TIP3    H230629   5.399   3.439  11.935 -1.2284 -1.5542  1.3078
 3072TIP3   OH230630   0.955   3.782  17.052  0.2905 -0.7670 -0.9333
 3072TIP3    H130631   1.024   3.744  17.107  0.7189 -1.0274 -1.6445
 3072TIP3    H230632   1.002   3.817  16.976 -0.3696 -1.0266 -1.4633
 3073TIP3   OH230633   4.204   2.505  16.498  0.0546 -0.7030  0.0105
 3073TIP3    H130634   4.197   2.584  16.551  0.9028 -0.1831 -0.6080
 3073TIP3    H230635   4.186   2.535  16.408 -1.3409 -1.5553 -0.0243
 3074TIP3   OH230636   6.052   3.587   5.356  0.3694  0.0686  0.1474
 3074TIP3    H130637   5.989   3.634   5.410 -0.2505  0.4491 -0.8650
 3074TIP3    H230638   6.114   3.654   5.327 -0.1376  0.1679 -0.7637
 3075TIP3   OH230639   3.873   2.245  14.987 -0.1667 -0.2638  0.4283
 3075TIP3    H130640   3.914   2.199  15.060 -0.3507  0.9911  1.3503
 3075TIP3    H230641   3.834   2.324  15.026 -0.3772  0.3784 -0.9995
 3076TIP3   OH230642   5.871   6.702   5.240 -0.0085 -0.2594 -0.1067
 3076TIP3    H130643   5.885   6.661   5.155 -0.6328  0.1757 -0.4246
 3076TIP3    H230644   5.909   6.790   5.232  2.9001 -1.2759  1.1156
 3077TIP3   OH230645   1.939   2.592  14.103 -0.4672 -0.2607 -0.3476
 3077TIP3    H130646   2.032   2.611  14.091 -0.6252  1.2259  0.5377
 3077TIP3    H230647   1.918   2.625  14.190 -1.6116 -1.4987 -0.1156
 3078TIP3   OH230648   0.804   4.248  15.235 -0.3817  0.1051  0.0276
 3078TIP3    H130649   0.731   4.309  15.227  0.6101  1.1700 -1.5005
 3078TIP3    H230650   0.763   4.163  15.249 -1.8543  0.8707  0.5208
 3079TIP3   OH230651   2.962   0.522   0.419 -0.1843 -0.0522  0.1285
 3079TIP3    H130652   3.048   0.522   0.378  2.2925 -1.3746  4.5573
 3079TIP3    H230653   2.961   0.601   0.474  0.1617 -2.0499  3.2676
 3080TIP3   OH230654   3.048   1.288   0.485  0.0078  0.2177 -0.2532
 3080TIP3    H130655   3.006   1.203   0.487  0.3672  0.0429  0.0118
 3080TIP3    H230656   2.987   1.346   0.530  0.3371 -0.1715  0.7242
 3081TIP3   OH230657   1.859   2.363  15.005 -0.1603  0.2994 -0.5183
 3081TIP3    H130658   1.871   2.337  15.097 -0.3344 -0.6572 -0.7516
 3081TIP3    H230659   1.942   2.343  14.963  0.0803  1.1896 -0.4761
 3082TIP3   OH230660   1.583   3.229   4.967 -0.1936  0.5926 -0.1314
 3082TIP3    H130661   1.647   3.249   4.900 -0.3581  0.6062 -0.2864
 3082TIP3    H230662   1.512   3.292   4.952  0.4037  1.5720  0.9605
 3083TIP3   OH230663   6.060   6.021  16.168 -0.0897  0.2232  0.0468
 3083TIP3    H130664   6.052   6.063  16.253  1.3776 -0.8185  0.7536
 3083TIP3    H230665   6.038   5.929  16.185  0.6003 -0.0713 -0.5891
 3084TIP3   OH230666   4.879   4.818   5.088  0.0097 -0.5578  0.0655
 3084TIP3    H130667   4.887   4.723   5.086  1.4885 -0.4615 -1.2967
 3084TIP3    H230668   4.918   4.844   5.171 -1.6006 -1.1999  1.0490
 3085TIP3   OH230669   4.630   3.804  11.826  0.5308 -0.4074  0.4610
 3085TIP3    H130670   4.536   3.806  11.811  0.7312 -0.0156 -0.9521
 3085TIP3    H230671   4.640   3.793  11.920 -0.9244 -0.3980  0.6326
 3086TIP3   OH230672   3.329   6.508  11.237 -0.1052 -0.5168 -0.1959
 3086TIP3    H130673   3.374   6.578  11.190  2.0292 -1.5670  0.1572
 3086TIP3    H230674   3.263   6.476  11.176  0.0423  0.6599 -0.9990
 3087TIP3   OH230675   4.699   4.320   1.425  0.0676 -0.5035  0.1220
 3087TIP3    H130676   4.654   4.277   1.352  1.0436  1.5466 -1.8031
 3087TIP3    H230677   4.792   4.319   1.400  0.1815  2.2522  0.1571
 3088TIP3   OH230678   3.589   5.940  16.936  0.3670 -0.2875  0.3166
 3088TIP3    H130679   3.563   5.940  17.028  0.3293  0.3650  0.3076
 3088TIP3    H230680   3.592   5.847  16.912  1.6208 -0.5241  1.3241
 3089TIP3   OH230681   0.509   0.392   4.156  0.1929  0.8482  0.2831
 3089TIP3    H130682   0.440   0.459   4.160  0.7442  1.3855  1.0847
 3089TIP3    H230683   0.462   0.309   4.167 -0.2990  1.2298  1.2166
 3090TIP3   OH230684   5.465   2.471   5.454 -0.1561  0.6622 -0.1331
 3090TIP3    H130685   5.535   2.537   5.453  0.5316 -0.0366  0.5073
 3090TIP3    H230686   5.494   2.406   5.389  1.1713 -0.9781  1.9767
 3091TIP3   OH230687   1.637   4.783  16.274 -0.0924  0.2585  0.2064
 3091TIP3    H130688   1.728   4.766  16.251  0.5505  2.8375  0.5141
 3091TIP3    H230689   1.624   4.876  16.252 -2.2804  0.2841  1.3389
 3092TIP3   OH230690   4.190   5.487  13.874  0.5722 -0.5224  0.2223
 3092TIP3    H130691   4.159   5.573  13.903  0.4637 -0.6639  0.5252
 3092TIP3    H230692   4.219   5.501  13.784  0.3037 -0.2270  0.1830
 3093TIP3   OH230693   4.329   4.408   0.458 -0.0205 -0.5251 -0.5335
 3093TIP3    H130694   4.288   4.487   0.493 -0.9658 -1.0148 -0.4936
 3093TIP3    H230695   4.325   4.418   0.363  1.0128  0.0367 -0.5320
 3094TIP3   OH230696   0.700   1.023  16.801  0.1877 -0.2925 -0.2845
 3094TIP3    H130697   0.637   1.041  16.871 -0.2550  0.9352 -0.9619
 3094TIP3    H230698   0.732   1.109  16.775 -1.0768 -0.4926 -2.8612
 3095TIP3   OH230699   6.106   6.063  16.454 -0.6026 -0.6308 -0.1623
 3095TIP3    H130700   6.095   6.147  16.499 -1.7146 -1.1799  0.6513
 3095TIP3    H230701   6.196   6.036  16.477 -0.0271  0.5678 -0.8960
 3096TIP3   OH230702   3.023   5.588  12.374  0.0361 -0.2472 -0.4779
 3096TIP3    H130703   3.106   5.617  12.337  2.4330 -0.9675  3.6492
 3096TIP3    H230704   3.013   5.641  12.454 -2.6489 -1.3453  0.0429
 3097TIP3   OH230705   1.038   4.799  15.884  1.0790 -0.4349  0.2848
 3097TIP3    H130706   1.119   4.756  15.911  0.8831 -1.2166 -0.3573
 3097TIP3    H230707   0.969   4.734  15.900  0.5413  0.2650  0.9529
 3098TIP3   OH230708   1.053   1.491  12.062 -0.4657  0.3364 -0.6847
 3098TIP3    H130709   1.140   1.468  12.028 -0.2978 -1.4990  0.8248
 3098TIP3    H230710   1.000   1.413  12.046 -1.4197  0.8731 -0.1981
 3099TIP3   OH230711   1.577   2.601   2.605 -0.4788  0.1135  0.0365
 3099TIP3    H130712   1.509   2.585   2.670  0.5210 -0.4785  0.9606
 3099TIP3    H230713   1.620   2.516   2.593 -0.0551  0.4184 -0.7231
 3100TIP3   OH230714   3.097   3.636  11.675 -0.1982  0.3792 -0.1210
 3100TIP3    H130715   3.055   3.599  11.597 -0.2648 -1.6676  0.8020
 3100TIP3    H230716   3.186   3.600  11.673 -0.2350  0.2131  0.7709
 3101TIP3   OH230717   2.116   6.287  13.391  0.4942 -0.0570  0.2630
 3101TIP3    H130718   2.087   6.300  13.481  0.2676  0.7343  0.0873
 3101TIP3    H230719   2.137   6.194  13.385  1.0155 -0.0155  1.2788
 3102TIP3   OH230720   6.233   2.913  13.604  0.0024 -0.0835  0.1751
 3102TIP3    H130721   6.139   2.925  13.619 -0.0680 -1.6066  1.1790
 3102TIP3    H230722   6.274   2.942  13.685  0.6040  2.3456 -0.9230
 3103TIP3   OH230723   2.845   1.286  11.776 -0.1004  0.3216  0.6296
 3103TIP3    H130724   2.769   1.296  11.833 -0.4356 -0.0181  0.2393
 3103TIP3    H230725   2.811   1.251  11.695  0.5895 -0.6555  0.7449
 3104TIP3   OH230726   2.023   0.983  16.357 -0.2726  0.3059  0.0318
 3104TIP3    H130727   1.971   1.054  16.319 -3.2284 -0.5095  2.2404
 3104TIP3    H230728   2.064   1.021  16.434  1.1163  0.4844 -0.7588
 3105TIP3   OH230729   2.602   2.791  16.432  0.1617  0.1987 -0.4526
 3105TIP3    H130730   2.563   2.806  16.346 -0.3246 -0.5933 -0.3749
 3105TIP3    H230731   2.610   2.696  16.439 -2.1512  0.0669  1.3988
 3106TIP3   OH230732   1.439   1.108  15.301 -0.2925  0.7219 -0.0920
 3106TIP3    H130733   1.427   1.021  15.263  2.3908  0.1501  0.1842
 3106TIP3    H230734   1.351   1.135  15.327 -1.3919 -1.3118 -1.4231
 3107TIP3   OH230735   2.912   1.337   3.629  0.4940  0.5347 -0.5095
 3107TIP3    H130736   2.976   1.266   3.635  1.4956  1.5086  1.0203
 3107TIP3    H230737   2.906   1.371   3.719 -1.8313  0.7883 -0.6980
 3108TIP3   OH230738   1.650   2.543  15.436  0.2203 -0.2300 -0.0690
 3108TIP3    H130739   1.633   2.568  15.345 -1.6006 -0.5268  0.1458
 3108TIP3    H230740   1.737   2.578  15.455  0.6711 -0.2528 -1.9481
 3109TIP3   OH230741   2.389   4.306   6.277 -0.8181  0.1490  0.5874
 3109TIP3    H130742   2.410   4.243   6.346 -0.9821 -1.4146 -0.7244
 3109TIP3    H230743   2.309   4.348   6.308 -0.7518 -0.3372  1.4762
 3110TIP3   OH230744   5.726   3.181  11.941  0.4879  0.8147  0.4328
 3110TIP3    H130745   5.799   3.187  11.880  0.7458 -1.2251  0.4665
 3110TIP3    H230746   5.651   3.154  11.887  0.4350  0.1616  0.8183
 3111TIP3   OH230747   5.040   2.825  16.943 -0.0642 -0.0778  0.0800
 3111TIP3    H130748   5.128   2.857  16.964  0.1312 -0.6983  0.2485
 3111TIP3    H230749   5.046   2.797  16.851 -0.8852  2.5227 -0.8403
 3112TIP3   OH230750   6.220   1.118   3.051 -0.2677  0.3691 -0.7500
 3112TIP3    H130751   6.156   1.161   3.107  0.5808 -1.3541  1.7776
 3112TIP3    H230752   6.212   1.025   3.074  2.5119  0.0031 -0.9132
 3113TIP3   OH230753   5.409   1.835  13.017 -0.5167 -0.1142 -0.3355
 3113TIP3    H130754   5.409   1.927  13.045  0.6803 -0.5419  1.2312
 3113TIP3    H230755   5.456   1.835  12.934 -0.7310  0.7214 -0.4664
 3114TIP3   OH230756   1.088   5.897  13.221 -0.1759 -0.0922  0.2216
 3114TIP3    H130757   1.135   5.907  13.138  0.5050 -0.9454  0.4935
 3114TIP3    H230758   1.112   5.975  13.271 -0.8520  0.5981 -0.4895
 3115TIP3   OH230759   2.965   0.090   5.638 -0.5412  0.2088  0.5283
 3115TIP3    H130760   2.881   0.120   5.674 -1.3538  0.2672 -1.3170
 3115TIP3    H230761   3.028   0.155   5.668 -0.6270 -1.0663  3.9339
 3116TIP3   OH230762   4.845   6.171   4.630 -0.3545 -0.1156  0.2491
 3116TIP3    H130763   4.833   6.184   4.724 -0.6407 -0.0463  0.2046
 3116TIP3    H230764   4.823   6.079   4.615  1.5502 -0.6463  0.5444
 3117TIP3   OH230765   6.707   0.781  16.062  0.5013  0.1606 -0.5728
 3117TIP3    H130766   6.700   0.775  16.157  2.0916 -0.0707 -0.4415
 3117TIP3    H230767   6.674   0.697  16.030  1.2588 -0.3172 -0.1282
 3118TIP3   OH230768   4.108   1.735  15.739 -0.9125  0.1134  0.7358
 3118TIP3    H130769   4.017   1.706  15.732 -1.2375  1.4311 -1.0646
 3118TIP3    H230770   4.158   1.671  15.688 -1.0736  0.3376  0.2901
 3119TIP3   OH230771   5.913   2.068  15.613  0.4090  0.4850  0.0416
 3119TIP3    H130772   5.967   1.990  15.622 -1.8067 -1.0485  0.6696
 3119TIP3    H230773   5.934   2.101  15.525  1.6582 -0.5587 -0.0818
 3120TIP3   OH230774   4.856   4.192   5.145  0.1304  0.2183 -0.5695
 3120TIP3    H130775   4.832   4.280   5.171  1.4641 -0.1528  2.3858
 3120TIP3    H230776   4.797   4.135   5.195  0.1954 -0.5633 -1.3600
 3121TIP3   OH230777   0.328   3.421  16.377  0.5893 -0.4248  0.4449
 3121TIP3    H130778   0.389   3.469  16.434  0.0195 -0.5641  1.1822
 3121TIP3    H230779   0.360   3.330  16.380  0.7982 -0.3599  0.2179
 3122TIP3   OH230780   1.215   3.839   1.174  0.2108 -0.1534  0.1449
 3122TIP3    H130781   1.306   3.831   1.147  0.0317  0.2721 -0.6217
 3122TIP3    H230782   1.185   3.920   1.132 -0.4564 -0.1768  0.5680
 3123TIP3   OH230783   6.471   3.758   1.911  0.1882 -0.0237 -0.2652
 3123TIP3    H130784   6.564   3.755   1.933  0.4705 -1.1441 -1.4894
 3123TIP3    H230785   6.428   3.712   1.984  0.6012  0.2944  0.1853
 3124TIP3   OH230786   5.853   1.765   5.334 -0.0420 -0.4109 -0.3377
 3124TIP3    H130787   5.781   1.713   5.297  0.9557 -1.2967 -1.1060
 3124TIP3    H230788   5.889   1.813   5.259 -0.4605  0.8306  0.2280
 3125TIP3   OH230789   4.338   0.132   3.221 -0.0043  0.1297  0.6128
 3125TIP3    H130790   4.267   0.108   3.162 -0.7243  1.2800  0.9950
 3125TIP3    H230791   4.391   0.193   3.172 -0.6762  1.1895  1.1728
 3126TIP3   OH230792   0.023   6.572   4.628  0.1452  0.4508 -0.1317
 3126TIP3    H130793   0.034   6.645   4.567  1.1874  0.7243  0.3714
 3126TIP3    H230794   0.096   6.579   4.689 -0.5975 -0.1154  0.8643
 3127TIP3   OH230795   2.016   4.577   4.550  0.1507 -0.0344  0.2164
 3127TIP3    H130796   1.992   4.655   4.500 -0.1138 -0.7961 -0.8930
 3127TIP3    H230797   1.972   4.588   4.634  0.7775  1.3786  0.3836
 3128TIP3   OH230798   4.357   0.753  15.820 -0.0194  0.0357 -0.0446
 3128TIP3    H130799   4.358   0.797  15.735  0.3030  0.4895  0.1905
 3128TIP3    H230800   4.298   0.805  15.873  1.0757  0.7293  0.5175
 3129TIP3   OH230801   5.014   4.128  17.399  0.5983  0.0879  0.2279
 3129TIP3    H130802   5.066   4.138  17.320  2.0499  0.5701  1.1985
 3129TIP3    H230803   5.064   4.175  17.467  0.1967 -1.5892  1.7732
 3130TIP3   OH230804   4.317   4.810  12.877  0.4139 -0.1830 -0.0710
 3130TIP3    H130805   4.272   4.726  12.873  0.7946 -0.4451  0.8327
 3130TIP3    H230806   4.399   4.796  12.831 -0.7488  0.5506 -2.5312
 3131TIP3   OH230807   0.567   5.095  15.783  0.9455 -0.1642  0.1659
 3131TIP3    H130808   0.599   5.176  15.744 -0.4044 -0.1270 -0.9829
 3131TIP3    H230809   0.634   5.030  15.762  0.3315 -0.1254 -2.2828
 3132TIP3   OH230810   4.684   4.255  14.445 -0.6906 -0.0201  0.6143
 3132TIP3    H130811   4.596   4.229  14.470  0.0042 -2.2714  0.9707
 3132TIP3    H230812   4.741   4.189  14.485  1.2571  1.8983  1.2247
 3133TIP3   OH230813   3.256   3.167   3.633 -0.0835 -0.5708 -0.1603
 3133TIP3    H130814   3.266   3.157   3.539  2.3484  3.3463 -0.5334
 3133TIP3    H230815   3.310   3.098   3.671 -1.9333 -2.8946 -1.4367
 3134TIP3   OH230816   4.913   6.123   4.092 -0.2032  0.1144  0.5834
 3134TIP3    H130817   4.848   6.164   4.035  0.0162  0.7538  0.7929
 3134TIP3    H230818   4.884   6.144   4.180  1.4491  2.3128  0.6915
 3135TIP3   OH230819   4.955   3.087   3.700 -0.2097 -0.1392 -0.3453
 3135TIP3    H130820   4.886   3.023   3.686 -1.3244  0.9534  0.0015
 3135TIP3    H230821   4.958   3.099   3.795  0.6008 -0.3250 -0.3394
 3136TIP3   OH230822   3.813   3.405   5.792  0.2154 -0.3916  0.7370
 3136TIP3    H130823   3.849   3.370   5.711  0.5884 -0.5188  0.9549
 3136TIP3    H230824   3.885   3.456   5.831 -0.3127  0.6137  0.4295
 3137TIP3   OH230825   5.303   4.589  14.104  0.2853  0.7618 -0.6451
 3137TIP3    H130826   5.235   4.655  14.091 -1.7079 -0.5616  2.0247
 3137TIP3    H230827   5.256   4.513  14.140  3.2631  0.2436  2.7387
 3138TIP3   OH230828   0.327   1.820  12.726  0.3881  0.2618 -0.1098
 3138TIP3    H130829   0.341   1.883  12.655 -0.6150 -0.8443 -1.3369
 3138TIP3    H230830   0.242   1.842  12.762  1.2652  1.3605  1.3628
 3139TIP3   OH230831   2.665   0.879  15.476  0.3624 -0.1432  0.5297
 3139TIP3    H130832   2.719   0.811  15.516  0.0641 -0.5743  0.2075
 3139TIP3    H230833   2.690   0.879  15.384  0.1664 -0.0029  0.4746
 3140TIP3   OH230834   4.639   0.066  16.934  0.0010  0.3729  0.6735
 3140TIP3    H130835   4.699   0.052  17.007 -0.6104 -0.3849  1.0412
 3140TIP3    H230836   4.553   0.042  16.968 -0.1949 -0.7067 -0.5106
 3141TIP3   OH230837   5.821   6.736  12.544  0.1269  0.1400  0.3612
 3141TIP3    H130838   5.837   6.656  12.595  3.1471 -0.4729 -1.3248
 3141TIP3    H230839   5.825   6.807  12.609  0.0167 -0.8551  1.4879
 3142TIP3   OH230840   0.018   0.965  15.658 -0.2109 -0.0880 -0.2862
 3142TIP3    H130841  -0.035   1.028  15.707  2.1524  0.5774  1.6391
 3142TIP3    H230842   0.075   0.925  15.724  2.1732 -0.2087 -2.2554
 3143TIP3   OH230843   1.023   0.731   0.835  0.4034 -0.9546  0.2000
 3143TIP3    H130844   1.045   0.811   0.788 -2.4442 -1.3478 -2.0223
 3143TIP3    H230845   1.072   0.738   0.918  0.9479  2.5938 -0.2692
 3144TIP3   OH230846   1.679   0.927  10.992  0.1767  0.4111  0.2899
 3144TIP3    H130847   1.608   0.917  11.055  0.2986 -0.5349  0.2929
 3144TIP3    H230848   1.647   0.991  10.928 -1.1176 -0.7990 -0.3185
 3145TIP3   OH230849   1.870   3.556  16.805 -0.0790  0.1011  0.0601
 3145TIP3    H130850   1.880   3.479  16.749 -2.2269 -0.0735 -0.1427
 3145TIP3    H230851   1.920   3.534  16.884  1.5148 -0.3776 -1.0206
 3146TIP3   OH230852   0.672   0.121   2.644  0.1126  0.3010  0.0247
 3146TIP3    H130853   0.691   0.182   2.573  2.0699  0.4066  0.5728
 3146TIP3    H230854   0.609   0.060   2.607 -0.9082  1.8597 -0.9535
 3147TIP3   OH230855   3.688   0.433  14.691  0.1621  0.1790  0.7040
 3147TIP3    H130856   3.672   0.525  14.715  0.5858  0.1741  1.0120
 3147TIP3    H230857   3.686   0.386  14.774  2.1397  0.2257  0.8241
 3148TIP3   OH230858   6.661   1.327  12.977 -0.6554  0.0116  0.1832
 3148TIP3    H130859   6.717   1.297  12.906 -1.3388 -0.0201 -0.3563
 3148TIP3    H230860   6.590   1.374  12.933 -1.4507 -0.5901  0.7947
 3149TIP3   OH230861   4.841   1.095   5.331 -0.4881 -0.3345 -0.8992
 3149TIP3    H130862   4.876   1.117   5.244 -0.1086 -0.1430 -0.6991
 3149TIP3    H230863   4.853   1.175   5.382  0.9692 -1.0051 -0.1361
 3150TIP3   OH230864   4.867   3.829   6.052  0.3557  0.7998 -0.1893
 3150TIP3    H130865   4.781   3.820   6.095 -0.1046  0.2905 -1.1795
 3150TIP3    H230866   4.912   3.747   6.073 -0.9335 -0.7550 -2.8890
 3151TIP3   OH230867   3.578   6.624   4.306  0.3724  0.5305  0.5184
 3151TIP3    H130868   3.670   6.598   4.300  0.3953  0.6863  0.1614
 3151TIP3    H230869   3.554   6.606   4.396  0.2433 -1.2597  0.1626
 3152TIP3   OH230870   5.508   5.728  15.199 -0.0450 -0.3410  0.2148
 3152TIP3    H130871   5.429   5.766  15.162 -0.8024 -0.2086  1.9022
 3152TIP3    H230872   5.479   5.681  15.277  1.5737  0.0373  1.1021
 3153TIP3   OH230873   0.205   3.497   0.922 -0.4186 -0.0580  0.4144
 3153TIP3    H130874   0.214   3.502   0.827  1.0954  1.0172  0.5726
 3153TIP3    H230875   0.250   3.416   0.946  0.4718  0.3899  0.3123
 3154TIP3   OH230876   1.697   2.492  12.425 -0.5364 -0.1018 -0.1251
 3154TIP3    H130877   1.669   2.404  12.449 -2.4494  0.2543 -0.9045
 3154TIP3    H230878   1.622   2.530  12.379  0.1153  2.0671  0.4918
 3155TIP3   OH230879   5.607   1.608   3.455 -0.0543 -0.2329  0.2732
 3155TIP3    H130880   5.615   1.646   3.543 -0.3474 -0.9857  0.6386
 3155TIP3    H230881   5.694   1.617   3.417 -0.6766  3.2251 -0.7191
 3156TIP3   OH230882   6.717   0.455  16.446  0.1755 -0.2059 -0.3292
 3156TIP3    H130883   6.787   0.389  16.444  0.3791  0.0254 -1.6018
 3156TIP3    H230884   6.695   0.469  16.354  0.3370  1.7293 -0.1135
 3157TIP3   OH230885   3.454   4.676  14.913  0.2232  0.2397 -0.1281
 3157TIP3    H130886   3.405   4.757  14.930 -1.1766 -0.3089 -1.3334
 3157TIP3    H230887   3.395   4.606  14.940  1.5392 -0.4213  1.1809
 3158TIP3   OH230888   0.214   3.956  13.949 -0.2351 -0.1734  0.3855
 3158TIP3    H130889   0.192   4.021  13.882  0.0355 -1.2994 -0.8314
 3158TIP3    H230890   0.141   3.959  14.011 -0.9268  0.2626 -0.4309
 3159TIP3   OH230891   1.915   1.885   2.807 -0.4063 -0.2968  0.1643
 3159TIP3    H130892   1.964   1.889   2.889 -0.0853 -3.0496  0.1900
 3159TIP3    H230893   1.973   1.840   2.746 -1.8292 -1.1703 -0.5987
 3160TIP3   OH230894   5.380   3.422  17.234  0.1359  0.4926 -0.3748
 3160TIP3    H130895   5.355   3.331  17.244  0.3078  0.3237 -1.3896
 3160TIP3    H230896   5.397   3.433  17.141  1.1320  1.2956 -0.1289
 3161TIP3   OH230897   0.860   1.489   5.319  0.1297  0.1945 -0.6138
 3161TIP3    H130898   0.801   1.565   5.323  1.9580  1.6487  1.4130
 3161TIP3    H230899   0.879   1.479   5.226 -2.6278  0.1369 -1.2683
 3162TIP3   OH230900   5.239   5.868   4.693  0.1879 -0.1080 -0.0781
 3162TIP3    H130901   5.330   5.877   4.720  0.5201  1.7171 -1.5779
 3162TIP3    H230902   5.233   5.915   4.610 -2.5169  1.5317  0.8920
 3163TIP3   OH230903   1.246   4.994   3.760 -0.2783  0.6240  0.1385
 3163TIP3    H130904   1.179   4.956   3.703  0.0568 -0.9866  0.7423
 3163TIP3    H230905   1.274   4.921   3.816  0.8069  1.6616  1.0184
 3164TIP3   OH230906   0.646   3.740  10.846 -0.0402 -0.5132  0.0887
 3164TIP3    H130907   0.657   3.834  10.861 -2.6019 -0.2487  0.8424
 3164TIP3    H230908   0.735   3.706  10.838  0.9778  1.8430  0.5776
 3165TIP3   OH230909   3.058   1.934   4.448  0.0544 -0.5211  0.2590
 3165TIP3    H130910   3.007   1.888   4.514 -1.5285  2.5542  1.3627
 3165TIP3    H230911   3.128   1.978   4.497 -0.8332  1.3933 -0.0825
 3166TIP3   OH230912   4.504   4.448  15.801 -0.1538 -0.4609 -0.2825
 3166TIP3    H130913   4.590   4.434  15.761 -0.2943 -0.3311 -0.6295
 3166TIP3    H230914   4.441   4.426  15.732 -0.4065 -1.0057  0.1126
 3167TIP3   OH230915   4.935   2.656  15.517  0.6026  0.2943 -0.2498
 3167TIP3    H130916   4.894   2.733  15.556 -0.3355 -1.1280  1.7572
 3167TIP3    H230917   4.937   2.674  15.423  1.3999  3.1709  0.2275
 3168TIP3   OH230918   5.782   3.167  13.708 -0.6619  0.2148 -0.1489
 3168TIP3    H130919   5.763   3.249  13.663 -1.8064 -1.5731 -3.2435
 3168TIP3    H230920   5.857   3.130  13.660 -1.6763 -1.5913 -0.4238
 3169TIP3   OH230921   3.423   0.225  16.576  0.2109  0.0016 -0.6802
 3169TIP3    H130922   3.493   0.237  16.640 -1.2489  0.8857  0.8341
 3169TIP3    H230923   3.344   0.218  16.628 -0.9147 -0.4188 -2.3677
 3170TIP3   OH230924   4.559   1.143   4.358  0.2097  0.1802 -0.0324
 3170TIP3    H130925   4.529   1.149   4.449  1.9664  1.5978  0.5229
 3170TIP3    H230926   4.479   1.143   4.306 -0.8758 -1.5744  1.5169
 3171TIP3   OH230927   3.536   1.178   4.088  0.0478  0.2392  0.0717
 3171TIP3    H130928   3.611   1.232   4.066 -0.4929  1.6682  1.5913
 3171TIP3    H230929   3.485   1.230   4.150 -2.7199 -0.2633 -1.5834
 3172TIP3   OH230930   5.723   0.053   0.497 -0.2916 -0.4113 -0.5903
 3172TIP3    H130931   5.779   0.070   0.421  0.9081  2.4083  0.7712
 3172TIP3    H230932   5.781   0.014   0.562 -0.6605 -0.2803 -0.1778
 3173TIP3   OH230933   6.096   3.184  13.324  0.2053  0.1511 -0.0519
 3173TIP3    H130934   6.049   3.235  13.258  1.7695  0.4962 -0.9391
 3173TIP3    H230935   6.182   3.167  13.285  0.4161 -1.4998  1.0242
 3174TIP3   OH230936   2.392   6.104   2.015 -0.3337  0.1789  0.0599
 3174TIP3    H130937   2.375   6.180   1.959  0.4280  0.7143  0.5329
 3174TIP3    H230938   2.307   6.082   2.052 -0.1990  2.3789  1.8634
 3175TIP3   OH230939   0.820   6.217   3.164  0.3445  0.3183 -0.2354
 3175TIP3    H130940   0.910   6.222   3.199 -0.4188 -0.5666  2.0415
 3175TIP3    H230941   0.791   6.128   3.186 -1.7315  1.1983  0.7962
 3176TIP3   OH230942   0.287   3.547  14.279  0.2461 -0.1320  0.0436
 3176TIP3    H130943   0.216   3.542  14.215  0.3078  0.3951 -0.0680
 3176TIP3    H230944   0.317   3.456  14.288  0.0545 -0.2504 -0.4700
 3177TIP3   OH230945   3.265   0.908  13.689 -0.1927 -0.0451 -0.4570
 3177TIP3    H130946   3.185   0.947  13.655 -1.1098 -1.7217 -0.3122
 3177TIP3    H230947   3.314   0.880  13.611 -0.2419  0.0361 -0.5163
 3178TIP3   OH230948   4.952   6.123  14.297  0.6329  0.5904  0.5122
 3178TIP3    H130949   4.927   6.102  14.388 -1.3401  2.4099  0.4771
 3178TIP3    H230950   4.932   6.043  14.248  1.2058 -0.2343  1.5675
 3179TIP3   OH230951   2.038   4.723   5.123 -0.1899 -0.0447 -0.2886
 3179TIP3    H130952   2.012   4.632   5.109 -1.2917  0.3284 -0.8116
 3179TIP3    H230953   2.053   4.758   5.036  0.5837  0.1888 -0.0704
 3180TIP3   OH230954   1.096   5.086   2.430 -0.1969  0.3115  0.2676
 3180TIP3    H130955   1.079   5.008   2.482 -1.4947 -0.0875 -0.7156
 3180TIP3    H230956   1.192   5.092   2.426 -0.0582 -1.5288 -0.0545
 3181TIP3   OH230957   5.244   3.153  15.362  0.4071 -0.2134  0.0916
 3181TIP3    H130958   5.330   3.125  15.394 -0.2861 -2.6540  0.0475
 3181TIP3    H230959   5.206   3.202  15.435  1.3217 -0.2233  0.5916
 3182TIP3   OH230960   0.796   2.594  12.690  0.0149  0.0084 -0.0655
 3182TIP3    H130961   0.875   2.617  12.739 -1.3017 -1.8618  3.3450
 3182TIP3    H230962   0.728   2.652  12.725 -0.9787 -1.3571  0.3731
 3183TIP3   OH230963   0.665   3.811   1.846 -0.8604 -0.3195 -0.5385
 3183TIP3    H130964   0.658   3.906   1.852 -0.6041 -0.1986 -1.9235
 3183TIP3    H230965   0.756   3.794   1.823 -0.3613 -1.0369  1.7527
 3184TIP3   OH230966   2.807   1.355   0.017 -0.0478 -0.0926 -0.1560
 3184TIP3    H130967   2.717   1.361  -0.015  0.3802  0.5777 -1.3141
 3184TIP3    H230968   2.860   1.347  -0.063  0.9859  0.3630  0.4627
 3185TIP3   OH230969   1.230   4.435  12.963 -0.0881  0.5517 -0.6903
 3185TIP3    H130970   1.248   4.472  13.049 -2.4047 -0.1106  0.1801
 3185TIP3    H230971   1.289   4.360  12.956 -1.9094 -1.3244  1.8109
 3186TIP3   OH230972   3.888   4.870  14.836  0.0566  0.6784  0.1910
 3186TIP3    H130973   3.961   4.832  14.884 -1.7394 -1.7919  1.1726
 3186TIP3    H230974   3.874   4.956  14.877  2.2039  1.1264  0.0947
 3187TIP3   OH230975   2.567   4.665   5.237  0.2488 -0.3030 -0.1395
 3187TIP3    H130976   2.518   4.665   5.155 -0.1816 -2.3320  0.0837
 3187TIP3    H230977   2.659   4.670   5.210  0.0910  3.5206 -0.5551
 3188TIP3   OH230978   3.059   3.110   3.252  0.1314 -0.1777  0.6279
 3188TIP3    H130979   3.016   3.097   3.336 -0.3025 -1.4388  0.2475
 3188TIP3    H230980   2.993   3.152   3.197  0.6609  1.3285  1.1108
 3189TIP3   OH230981   5.581   5.202  11.847  0.5037 -0.2995 -0.1328
 3189TIP3    H130982   5.663   5.197  11.896 -0.4194  1.3859  1.6958
 3189TIP3    H230983   5.533   5.123  11.873  1.5036 -1.3461 -1.2863
 3190TIP3   OH230984   1.415   3.433   3.066 -0.3194 -0.5184  0.0564
 3190TIP3    H130985   1.362   3.463   3.140 -0.8079  0.2186 -0.5650
 3190TIP3    H230986   1.503   3.465   3.085 -0.1703 -1.3808  0.8917
 3191TIP3   OH230987   6.735   4.142   2.778  0.3756 -0.7730 -0.4575
 3191TIP3    H130988   6.695   4.217   2.821  2.8215 -1.2629  3.0978
 3191TIP3    H230989   6.666   4.075   2.779 -1.0886  0.6335 -1.6081
 3192TIP3   OH230990   0.965   6.479  11.748 -0.1989 -0.1354 -0.3837
 3192TIP3    H130991   0.950   6.572  11.769 -0.7936 -0.5142  1.0041
 3192TIP3    H230992   1.013   6.481  11.665  1.9343  1.5230  0.7476
 3193TIP3   OH230993   0.696   4.400   3.023 -0.4318 -0.1709 -0.1455
 3193TIP3    H130994   0.603   4.403   3.003 -0.1927  0.2402 -1.2752
 3193TIP3    H230995   0.738   4.382   2.939  0.5565  0.4305  0.2021
 3194TIP3   OH230996   2.583   4.952  16.101 -0.1412 -0.3347  0.5934
 3194TIP3    H130997   2.592   4.857  16.087 -0.5193 -0.1752 -0.9106
 3194TIP3    H230998   2.533   4.982  16.025  0.0579  1.0933  1.0123
 3195TIP3   OH230999   3.117   5.522   0.937 -0.2100  0.4368 -0.4608
 3195TIP3    H131000   3.163   5.455   0.886 -0.1326 -0.3955  0.6582
 3195TIP3    H231001   3.185   5.563   0.989 -0.6642 -0.8041  1.2105
 3196TIP3   OH231002   1.227   2.760   1.684 -0.1897 -0.0354  0.2563
 3196TIP3    H131003   1.218   2.782   1.777 -0.5682  0.4926  0.1016
 3196TIP3    H231004   1.318   2.780   1.663  0.0337 -0.6381  0.6344
 3197TIP3   OH231005   4.238   2.182   4.931 -0.0154  0.1313 -0.0053
 3197TIP3    H131006   4.290   2.248   4.977  1.7313 -0.9687 -0.3159
 3197TIP3    H231007   4.159   2.171   4.985 -0.4128  2.5043 -0.0090
 3198TIP3   OH231008   5.243   5.415  12.250 -0.3273 -0.4168  0.0398
 3198TIP3    H131009   5.229   5.506  12.276  0.1059 -0.8860  2.0274
 3198TIP3    H231010   5.295   5.422  12.170  0.2992  1.0901  0.5385
 3199TIP3   OH231011   1.756   6.034  16.928 -0.1701  0.0485  0.9214
 3199TIP3    H131012   1.695   6.081  16.984 -0.4929 -1.7498  2.1734
 3199TIP3    H231013   1.833   6.090  16.924 -0.9269  1.1687  1.4299
 3200TIP3   OH231014   0.087   3.940  12.504 -0.0677 -0.1175 -0.4103
 3200TIP3    H131015  -0.001   3.906  12.519 -0.0741 -0.0875 -0.3801
 3200TIP3    H231016   0.141   3.899  12.571  0.1934 -1.1339 -1.2217
 3201TIP3   OH231017   0.223   3.265   3.056 -0.1573 -0.2771  0.2928
 3201TIP3    H131018   0.142   3.316   3.055 -0.6203 -0.9856  0.8621
 3201TIP3    H231019   0.284   3.318   3.108  0.4722  1.2880 -1.8845
 3202TIP3   OH231020   0.736   0.851   4.737  0.2089  0.6267  0.2156
 3202TIP3    H131021   0.655   0.891   4.705 -0.5876 -0.7608  0.4124
 3202TIP3    H231022   0.770   0.914   4.801 -1.9868  0.2100  1.9349
 3203TIP3   OH231023   0.837   3.544  11.575 -0.7421  0.0523 -0.3188
 3203TIP3    H131024   0.749   3.581  11.588 -0.8089  0.7526 -2.4535
 3203TIP3    H231025   0.896   3.617  11.592 -0.4931 -0.5189  1.5126
 3204TIP3   OH231026   2.081   1.973  14.114  0.3098  0.0619 -0.3055
 3204TIP3    H131027   2.086   1.878  14.112 -0.3688  0.0295 -1.3634
 3204TIP3    H231028   2.018   1.992  14.184 -0.6357 -0.3319 -1.0346
 3205TIP3   OH231029   1.759   2.716  10.410 -0.1180  0.4351 -0.4181
 3205TIP3    H131030   1.802   2.756  10.485 -0.6023  2.4797 -1.1583
 3205TIP3    H231031   1.680   2.675  10.446  1.1462 -1.2434  0.5778
 3206TIP3   OH231032   6.037   4.258  14.677  0.0428  0.5353  0.0281
 3206TIP3    H131033   6.054   4.351  14.685 -0.7126  0.5623  2.1153
 3206TIP3    H231034   6.097   4.217  14.740 -1.6712 -0.0827  1.3317
 3207TIP3   OH231035   1.264   0.374   3.873 -0.2483 -0.0291 -0.8355
 3207TIP3    H131036   1.233   0.398   3.785  1.0043  0.0048 -1.2806
 3207TIP3    H231037   1.284   0.281   3.866  1.5696  0.3543 -1.1266
 3208TIP3   OH231038   3.944   4.841   0.201  0.5094 -0.2321  0.2379
 3208TIP3    H131039   4.006   4.891   0.148  1.6890 -1.9240 -0.0275
 3208TIP3    H231040   3.936   4.892   0.282  2.9165 -0.3917  0.6355
 3209TIP3   OH231041   4.806   4.083  15.541 -0.6477 -0.0162  0.4416
 3209TIP3    H131042   4.892   4.122  15.527 -0.4424 -0.9741 -1.1647
 3209TIP3    H231043   4.794   4.086  15.636  0.6352  1.1984  0.6049
 3210TIP3   OH231044   0.957   0.508  12.571 -0.2558  0.3167  0.1470
 3210TIP3    H131045   0.930   0.427  12.527  1.5323 -0.1673 -0.1220
 3210TIP3    H231046   0.974   0.481  12.661  1.6488  0.0813 -0.2579
 3211TIP3   OH231047   5.202   4.663  11.469 -0.4615 -0.2726  0.1951
 3211TIP3    H131048   5.218   4.570  11.487 -2.7664 -0.9569 -0.9492
 3211TIP3    H231049   5.249   4.709  11.539 -0.5591 -2.3517  1.7317
 3212TIP3   OH231050   5.903   3.920  12.670 -0.2594  0.0947  0.5461
 3212TIP3    H131051   5.954   3.926  12.590 -0.9024  1.3187  0.1989
 3212TIP3    H231052   5.879   3.828  12.677  0.9212 -0.2649  0.0608
 3213TIP3   OH231053   4.562   6.552   5.771 -0.3036  0.0088 -0.1871
 3213TIP3    H131054   4.522   6.469   5.796  0.1616 -0.8755 -2.1586
 3213TIP3    H231055   4.638   6.560   5.828  0.4955 -1.7050 -0.9400
 3214TIP3   OH231056   1.222   5.004   2.118  0.2352  0.9327 -0.2391
 3214TIP3    H131057   1.127   5.004   2.123  0.3003  0.0416  2.8280
 3214TIP3    H231058   1.243   5.083   2.069 -2.0452  0.8676 -1.4741
 3215TIP3   OH231059   3.657   5.185  11.477  0.5460 -0.3237  0.2291
 3215TIP3    H131060   3.613   5.264  11.447 -0.7765 -1.1970 -0.2329
 3215TIP3    H231061   3.715   5.215  11.546 -0.1420  1.0166  0.2639
 3216TIP3   OH231062   2.605   5.006  11.637 -0.1312 -0.1472  0.4466
 3216TIP3    H131063   2.620   4.912  11.642  0.0434 -0.1040  0.7422
 3216TIP3    H231064   2.613   5.037  11.728 -0.5638  0.0939  0.4063
 3217TIP3   OH231065   1.980   5.228  16.663 -0.8284  0.6467 -0.2674
 3217TIP3    H131066   2.068   5.253  16.690 -1.0279 -0.2704  1.3551
 3217TIP3    H231067   1.934   5.311  16.649 -0.7383  1.2416  2.4639
 3218TIP3   OH231068   1.042   0.650  11.690  0.6041  0.4109  0.8000
 3218TIP3    H131069   1.032   0.575  11.632  0.8194  1.4598 -0.6328
 3218TIP3    H231070   0.985   0.630  11.765  1.8452 -1.8740  1.2357
 3219TIP3   OH231071   5.696   3.900  13.376  0.1807 -0.3563 -0.0050
 3219TIP3    H131072   5.781   3.938  13.354 -0.2338 -0.0067 -1.0884
 3219TIP3    H231073   5.705   3.869  13.466  1.7675 -1.2269 -0.4358
 3220TIP3   OH231074   5.100   0.607   5.718 -0.1338  0.0070  0.0861
 3220TIP3    H131075   5.095   0.614   5.623  0.4147 -1.0083 -0.0269
 3220TIP3    H231076   5.061   0.523   5.739  0.0409  0.0807  0.7348
 3221TIP3   OH231077   4.814   6.057  11.678 -0.2144  0.0784 -0.1455
 3221TIP3    H131078   4.774   6.132  11.634  0.4353 -0.5297 -1.8721
 3221TIP3    H231079   4.896   6.042  11.630 -0.8942 -2.4530 -0.6326
 3222TIP3   OH231080   4.959   1.451  16.266 -0.3891 -0.7775  0.0521
 3222TIP3    H131081   5.049   1.472  16.291 -0.2490  0.2226 -1.1798
 3222TIP3    H231082   4.919   1.417  16.346  0.7495 -0.1484  0.9208
 3223TIP3   OH231083   5.892   5.770  14.944 -0.8983  0.1241  0.0461
 3223TIP3    H131084   5.816   5.759  14.887 -0.8933  2.9096 -0.6522
 3223TIP3    H231085   5.855   5.789  15.030 -0.9267 -0.7245  0.2352
 3224TIP3   OH231086   0.786   1.970  10.944 -0.0150 -0.4232 -0.4074
 3224TIP3    H131087   0.865   1.919  10.927 -0.0901 -1.0399  0.9155
 3224TIP3    H231088   0.715   1.906  10.940 -0.0646 -0.5863  1.7362
 3225TIP3   OH231089   2.367   3.922  16.978  0.2334 -0.1116 -0.0453
 3225TIP3    H131090   2.353   4.013  17.004 -0.5418 -0.5650  1.2450
 3225TIP3    H231091   2.404   3.880  17.055  2.1437 -0.5667 -1.1435
 3226TIP3   OH231092   6.689   3.143   3.008  0.1015  0.8370  0.8884
 3226TIP3    H131093   6.734   3.167   2.927 -0.6847  0.3512  0.2830
 3226TIP3    H231094   6.721   3.055   3.027  1.7803  1.6888  2.2242
 3227TIP3   OH231095   3.976   4.019  16.943  0.0554  0.0229 -0.7091
 3227TIP3    H131096   4.043   4.019  16.874 -1.5865  2.5511 -2.5009
 3227TIP3    H231097   4.005   4.086  17.004 -0.4118  0.5923 -1.0955
 3228TIP3   OH231098   5.647   0.444   0.366  0.4578 -0.0851  0.3296
 3228TIP3    H131099   5.728   0.400   0.392 -0.9811 -3.2691 -0.0934
 3228TIP3    H231100   5.651   0.449   0.270  1.1583  2.0155  0.4232
 3229TIP3   OH231101   0.616   5.603  13.690 -0.1424 -0.5422  0.3026
 3229TIP3    H131102   0.551   5.540  13.720  0.3138 -0.5946  1.1937
 3229TIP3    H231103   0.646   5.647  13.769  1.4801 -1.0744  0.0200
 3230TIP3   OH231104   0.768   6.179   4.891 -0.2634  0.1548 -0.1395
 3230TIP3    H131105   0.776   6.270   4.865 -0.7143  0.7495  1.6950
 3230TIP3    H231106   0.848   6.138   4.858  0.3955  1.4161 -0.1723
 3231TIP3   OH231107   0.882   2.597  15.164  0.4245 -0.1162 -0.1856
 3231TIP3    H131108   0.843   2.512  15.148  1.5681 -0.6278 -0.3199
 3231TIP3    H231109   0.846   2.624  15.249 -0.2808 -0.5103 -0.3483
 3232TIP3   OH231110   0.336   1.016  14.424  0.2376  0.3369  0.1557
 3232TIP3    H131111   0.285   0.970  14.357  0.2271 -0.4977  0.7238
 3232TIP3    H231112   0.414   0.961  14.436 -0.2778 -0.1236  1.6093
 3233TIP3   OH231113   2.714   1.224   0.958  0.0497 -0.0521  0.0759
 3233TIP3    H131114   2.707   1.129   0.962  2.3171 -0.2311  1.5675
 3233TIP3    H231115   2.656   1.257   1.026 -0.5994 -0.3519 -0.3245
 3234TIP3   OH231116   2.785   3.181  16.595  0.1139 -0.1156 -0.0048
 3234TIP3    H131117   2.840   3.111  16.630 -0.5345 -0.7814 -0.2992
 3234TIP3    H231118   2.834   3.261  16.613  1.2766 -0.7072 -0.4618
 3235TIP3   OH231119   2.991   2.530  12.006  0.0974  0.1622  0.0672
 3235TIP3    H131120   2.942   2.456  11.969  1.6919 -0.6733 -0.4777
 3235TIP3    H231121   3.028   2.496  12.088 -1.6138  1.3335  1.4106
 3236TIP3   OH231122   0.897   2.942   4.426  0.6382 -0.1647  0.1662
 3236TIP3    H131123   0.823   2.969   4.480 -0.3055  0.6818 -1.4735
 3236TIP3    H231124   0.935   3.024   4.395  1.0474 -0.6252 -0.5849
 3237TIP3   OH231125   5.838   3.249   2.989 -0.1776  0.1602  0.0198
 3237TIP3    H131126   5.792   3.235   2.907 -2.0030 -0.1206  1.0277
 3237TIP3    H231127   5.921   3.289   2.964 -0.1751 -1.0027 -2.0143
 3238TIP3   OH231128   4.315   2.672  17.362  0.6181  0.3914  0.1425
 3238TIP3    H131129   4.364   2.617  17.424  0.9022  0.3561 -0.1086
 3238TIP3    H231130   4.382   2.724  17.318  0.2854  1.5537  0.9608
 3239TIP3   OH231131   5.207   0.795  14.163 -0.2770 -0.1088  0.1096
 3239TIP3    H131132   5.137   0.822  14.223 -0.8461  0.0499 -0.6163
 3239TIP3    H231133   5.282   0.781  14.220 -0.7504  0.2380  0.8436
 3240TIP3   OH231134   0.443   4.978  14.808 -0.5355 -0.6502  0.0294
 3240TIP3    H131135   0.506   5.033  14.763  0.3543 -1.2564  0.4955
 3240TIP3    H231136   0.377   4.957  14.741 -0.1772 -0.1116 -0.4991
 3241TIP3   OH231137   3.817   5.947   1.386 -0.2795  0.0478 -0.5429
 3241TIP3    H131138   3.799   5.897   1.465  0.6922 -1.2787 -1.1173
 3241TIP3    H231139   3.782   5.893   1.315  4.1779 -1.9078 -1.5754
 3242TIP3   OH231140   0.394   6.530  13.543 -0.1927  0.2338  0.2392
 3242TIP3    H131141   0.441   6.515  13.625 -0.2692 -2.4569 -0.1225
 3242TIP3    H231142   0.459   6.515  13.475 -0.3587  1.5466 -0.2418
 3243TIP3   OH231143   6.220   0.414  13.938 -0.1385  0.3411 -0.3504
 3243TIP3    H131144   6.155   0.417  14.008  0.0703 -0.6218 -0.1070
 3243TIP3    H231145   6.187   0.347  13.878  0.7225 -0.2680 -0.1410
 3244TIP3   OH231146   1.956   6.255   1.437  0.4272 -0.6638 -0.0151
 3244TIP3    H131147   1.891   6.323   1.452 -0.5061 -1.6597  0.5981
 3244TIP3    H231148   2.034   6.285   1.484  0.3242  0.3953 -0.5034
 3245TIP3   OH231149   0.795   4.145  11.794  0.4882 -0.1919 -0.3186
 3245TIP3    H131150   0.718   4.105  11.754 -0.2287  1.0554 -0.2193
 3245TIP3    H231151   0.768   4.235  11.815  1.8637  0.1678  0.0116
 3246TIP3   OH231152   1.370   4.339  16.938 -0.1657 -0.2346  0.2540
 3246TIP3    H131153   1.436   4.271  16.949  1.2185  0.9481 -0.4232
 3246TIP3    H231154   1.419   4.421  16.940 -1.5242  0.6647 -0.8737
 3247TIP3   OH231155   4.067   0.129   1.691 -0.0168  0.0957  0.0600
 3247TIP3    H131156   4.149   0.154   1.732 -0.0292  0.8285 -0.3501
 3247TIP3    H231157   4.021   0.212   1.675 -0.9488 -0.3162  0.5181
 3248TIP3   OH231158   0.868   2.008   3.333  0.6579 -0.2168 -0.1508
 3248TIP3    H131159   0.830   1.921   3.346 -1.2406  0.6920  0.6797
 3248TIP3    H231160   0.888   2.039   3.422 -0.5322  0.9684 -0.2745
 3249TIP3   OH231161   5.796   4.768   1.716 -0.2000  0.1522  0.1822
 3249TIP3    H131162   5.745   4.775   1.797 -0.5537 -0.8354  0.0598
 3249TIP3    H231163   5.887   4.758   1.746 -0.1910  0.9171  0.4236
 3250TIP3   OH231164   2.424   6.012   2.512 -0.2114  0.0538 -0.3018
 3250TIP3    H131165   2.434   5.927   2.468  0.2734 -0.1062  0.1124
 3250TIP3    H231166   2.492   6.067   2.474 -1.6763  0.8513 -1.9206
 3251TIP3   OH231167   2.982   4.314   4.578 -0.0533  0.0139 -0.2787
 3251TIP3    H131168   3.047   4.261   4.532 -2.2221 -1.8903 -1.3953
 3251TIP3    H231169   2.964   4.267   4.659  0.2200  0.7404  0.2182
 3252TIP3   OH231170   1.318   5.746  12.043  0.7762  0.0872 -0.0629
 3252TIP3    H131171   1.299   5.688  12.116 -2.7130  1.8064  0.6028
 3252TIP3    H231172   1.374   5.814  12.081 -0.8825  0.8844  1.0871
 3253TIP3   OH231173   5.696   0.193  16.962  0.0857  0.1107  0.1638
 3253TIP3    H131174   5.750   0.197  17.041  0.6679  1.3542 -0.2728
 3253TIP3    H231175   5.619   0.245  16.983 -0.5497 -0.9346  0.4771
 3254TIP3   OH231176   4.484   3.439   3.238 -0.0673  0.3958  0.4925
 3254TIP3    H131177   4.440   3.499   3.299 -0.4729  1.1612 -0.5398
 3254TIP3    H231178   4.419   3.372   3.219  0.1023  0.0832  0.9810
 3255TIP3   OH231179   5.815   0.952  14.821 -0.1940 -0.4265 -0.1861
 3255TIP3    H131180   5.872   0.963  14.897  0.5657  0.2801 -0.8367
 3255TIP3    H231181   5.743   0.898  14.853 -0.4123  0.6790  1.2967
 3256TIP3   OH231182   1.313   0.344  12.586 -0.0089 -0.6825  0.5105
 3256TIP3    H131183   1.232   0.345  12.636 -0.5962  0.0220 -0.4301
 3256TIP3    H231184   1.346   0.433  12.591  0.0100 -0.6382 -0.1996
 3257TIP3   OH231185   5.609   5.771  10.842 -0.0894  0.6457  0.5696
 3257TIP3    H131186   5.558   5.695  10.815  0.6587  0.5055 -0.5165
 3257TIP3    H231187   5.565   5.845  10.799  0.3976  0.5694 -0.0648
 3258TIP3   OH231188   1.512   0.284  16.677 -0.0405  0.1418 -0.2587
 3258TIP3    H131189   1.534   0.202  16.634  0.0051 -0.3822  0.7268
 3258TIP3    H231190   1.454   0.329  16.615 -0.4012 -0.8156 -0.6446
 3259TIP3   OH231191   0.163   2.871  11.440 -0.5415  0.2412  0.3343
 3259TIP3    H131192   0.220   2.828  11.375 -1.3662  0.2691 -0.4298
 3259TIP3    H231193   0.075   2.863  11.403 -1.5082 -2.3027  2.7937
 3260TIP3   OH231194   0.179   5.538  12.117  0.1651  0.5579 -0.2758
 3260TIP3    H131195   0.094   5.559  12.155  0.6779 -2.9521  3.5973
 3260TIP3    H231196   0.241   5.594  12.166  0.4170 -0.4058  0.5422
 3261TIP3   OH231197   0.517   4.334  12.882  0.3195 -0.6423  0.1019
 3261TIP3    H131198   0.604   4.344  12.843  0.0396 -0.7818 -0.5813
 3261TIP3    H231199   0.478   4.421  12.876  1.1167 -0.0833  2.2083
 3262TIP3   OH231200   5.626   0.536  15.331 -0.1902 -0.0376  0.7758
 3262TIP3    H131201   5.694   0.513  15.267 -0.9951 -1.3233  0.3628
 3262TIP3    H231202   5.615   0.631  15.320  1.9562  0.3198  1.2919
 3263TIP3   OH231203   4.895   5.590   1.318 -1.0960 -0.1065  0.4781
 3263TIP3    H131204   4.820   5.646   1.304  0.0095  1.0173 -1.3381
 3263TIP3    H231205   4.960   5.647   1.359  0.7364  0.6810 -3.1185
 3264TIP3   OH231206   3.582   3.385  13.370 -0.5048  0.1481 -0.1063
 3264TIP3    H131207   3.503   3.392  13.424 -0.3292  0.7555  0.0778
 3264TIP3    H231208   3.553   3.336  13.292 -0.7470 -0.7704  0.5441
 3265TIP3   OH231209   4.748   2.399  16.575 -0.2829  0.4537 -0.4269
 3265TIP3    H131210   4.716   2.457  16.505 -0.5120  0.0316 -0.6734
 3265TIP3    H231211   4.690   2.417  16.649 -0.9959 -0.1817 -0.8174
 3266TIP3   OH231212   3.220   4.113  13.778 -0.4428 -0.0316 -0.0246
 3266TIP3    H131213   3.127   4.120  13.800 -0.9649  1.6088 -2.3737
 3266TIP3    H231214   3.223   4.054  13.703  0.3760  0.1924 -0.1787
 3267TIP3   OH231215   3.783   2.724   4.288 -0.3562 -0.0819  0.1535
 3267TIP3    H131216   3.751   2.642   4.324  0.8602 -0.6516 -0.0135
 3267TIP3    H231217   3.863   2.743   4.339 -0.9152  1.2975  0.5861
 3268TIP3   OH231218   3.698   3.859   0.696 -0.7402 -0.4916  0.3254
 3268TIP3    H131219   3.659   3.939   0.661  0.9496  0.0893 -0.3299
 3268TIP3    H231220   3.792   3.877   0.698 -0.4097 -2.1133  1.0953
 3269TIP3   OH231221   2.952   3.264  11.629  0.3175 -0.6075  0.1855
 3269TIP3    H131222   2.950   3.200  11.559 -2.7725  0.2236 -0.6005
 3269TIP3    H231223   2.984   3.345  11.588  0.7514 -0.7084  0.3175
 3270TIP3   OH231224   5.301   2.500  10.931  0.4472 -0.0180 -0.3893
 3270TIP3    H131225   5.280   2.410  10.953  0.1604 -0.0835 -0.9211
 3270TIP3    H231226   5.273   2.551  11.007  1.2130 -0.4443  0.1860
 3271TIP3   OH231227   3.548   5.733  14.261  0.0538 -0.5459 -0.0035
 3271TIP3    H131228   3.612   5.753  14.329 -0.5944 -0.8302  0.7220
 3271TIP3    H231229   3.551   5.637  14.253  2.6282 -0.3643 -2.9366
 3272TIP3   OH231230   5.186   0.029   1.915 -0.1630  0.0889  0.4361
 3272TIP3    H131231   5.235   0.090   1.970  1.0246 -1.0623  0.6847
 3272TIP3    H231232   5.094   0.053   1.930  0.2705  2.9824 -0.8504
 3273TIP3   OH231233   1.407   4.844  12.090  0.1622  0.4982 -0.0704
 3273TIP3    H131234   1.457   4.921  12.066  0.1192  0.6027  0.1658
 3273TIP3    H231235   1.414   4.785  12.015 -0.8618  1.2421 -0.7794
 3274TIP3   OH231236   6.243   6.208  16.073  0.0993 -0.3614  0.7272
 3274TIP3    H131237   6.306   6.178  16.007  0.8106 -0.3981  1.4042
 3274TIP3    H231238   6.189   6.132  16.092  1.2463 -0.9664  1.6988
 3275TIP3   OH231239   1.590   1.062  15.584  0.1105 -0.0769 -0.1008
 3275TIP3    H131240   1.605   1.154  15.605  0.4989  0.2096 -1.5059
 3275TIP3    H231241   1.542   1.064  15.501 -0.7090 -1.1343  0.3266
 3276TIP3   OH231242   3.271   2.887  11.531 -0.4760 -0.0818 -0.8885
 3276TIP3    H131243   3.228   2.802  11.522 -1.8360  0.2687  1.4759
 3276TIP3    H231244   3.313   2.902  11.446 -1.7957 -2.2294 -2.0059
 3277TIP3   OH231245   1.963   6.202  12.150  0.2169  0.2576  0.2831
 3277TIP3    H131246   1.880   6.241  12.123  0.2111  0.3930  0.4924
 3277TIP3    H231247   1.947   6.173  12.240  0.1238 -0.5120  0.0180
 3278TIP3   OH231248   4.241   5.861  16.319 -0.2080  0.7091  0.4414
 3278TIP3    H131249   4.197   5.814  16.249  0.1664 -0.1306  0.7572
 3278TIP3    H231250   4.277   5.939  16.276  0.9071 -0.3039 -0.5471
 3279TIP3   OH231251   5.249   1.097  17.390  0.5255  0.0977  0.0497
 3279TIP3    H131252   5.215   1.085  17.479  1.4430 -2.4655  0.1265
 3279TIP3    H231253   5.312   1.168  17.398 -2.2617  2.7180  0.5521
 3280TIP3   OH231254   1.202   6.279   5.957  0.0814  0.2510  0.4289
 3280TIP3    H131255   1.209   6.248   5.867 -1.2147  0.8812  0.0841
 3280TIP3    H231256   1.143   6.218   6.000 -2.0027  1.7693 -0.0947
 3281TIP3   OH231257   6.004   5.058  13.262 -0.2272  0.4615  0.0904
 3281TIP3    H131258   6.019   5.043  13.356 -0.3736 -0.6585 -0.0516
 3281TIP3    H231259   6.027   5.150  13.249 -1.3495  0.9724  1.4556
 3282TIP3   OH231260   2.523   5.709   4.734  0.1077  0.5801 -0.1733
 3282TIP3    H131261   2.525   5.784   4.675  1.2659  0.0212 -0.8919
 3282TIP3    H231262   2.613   5.674   4.731 -0.7657 -1.8258 -1.1898
 3283TIP3   OH231263   3.186   4.116   0.449  0.0425  0.1224  0.3524
 3283TIP3    H131264   3.110   4.104   0.392 -0.8094  0.9668  1.2699
 3283TIP3    H231265   3.149   4.120   0.538  1.1726  0.3427  0.8262
 3284TIP3   OH231266   2.428   0.850   4.284  0.2469 -0.9030  0.0889
 3284TIP3    H131267   2.346   0.826   4.240  1.3826 -2.3084 -1.4276
 3284TIP3    H231268   2.495   0.803   4.235  2.0964  1.0485  0.6160
 3285TIP3   OH231269   4.394   0.983  17.113  0.1264 -0.3418 -0.1170
 3285TIP3    H131270   4.490   0.989  17.110  0.2400 -1.8498 -0.1444
 3285TIP3    H231271   4.371   1.011  17.201  0.6009 -0.0640 -0.0768
 3286TIP3   OH231272   1.204   4.255  16.272  0.2278 -0.1379  0.3677
 3286TIP3    H131273   1.237   4.183  16.326  1.6701 -0.0915 -0.4001
 3286TIP3    H231274   1.246   4.333  16.309 -1.0374  0.2998  0.9599
 3287TIP3   OH231275   5.004   1.356  17.359  0.2554  0.2626  0.9127
 3287TIP3    H131276   5.013   1.273  17.405  0.8258  0.1010  0.5125
 3287TIP3    H231277   4.965   1.333  17.275  0.7974  0.3408  0.6345
 3288TIP3   OH231278   4.335   0.437   1.805  0.6406  0.1033 -0.0999
 3288TIP3    H131279   4.244   0.463   1.819  0.2174  0.4504 -2.9907
 3288TIP3    H231280   4.345   0.356   1.855 -0.4705  1.3454  2.2656
 3289TIP3   OH231281   5.684   0.859  11.461 -0.0943  0.2859  0.3573
 3289TIP3    H131282   5.608   0.900  11.419 -1.2305 -0.0595  1.9993
 3289TIP3    H231283   5.649   0.781  11.504  1.0214  0.5422  1.8161
 3290TIP3   OH231284   5.350   1.858  15.960  0.0470 -0.1991 -0.0182
 3290TIP3    H131285   5.421   1.871  16.022 -0.5115  1.6941  0.2806
 3290TIP3    H231286   5.270   1.877  16.010 -0.6554 -1.5902 -0.5300
 3291TIP3   OH231287   6.342   6.376   5.008 -0.3794 -0.4247 -0.1073
 3291TIP3    H131288   6.399   6.442   5.049 -0.0795 -1.5600  1.4094
 3291TIP3    H231289   6.305   6.327   5.082 -2.8804 -0.1297 -1.0681
 3292TIP3   OH231290   4.033   2.585   5.646 -0.4152 -0.5032 -0.5730
 3292TIP3    H131291   3.977   2.512   5.673  0.9174 -1.4563 -0.2450
 3292TIP3    H231292   3.986   2.663   5.674 -0.7076 -1.3385  1.4875
 3293TIP3   OH231293   6.272   3.048   6.195  0.1576 -0.3640  0.0574
 3293TIP3    H131294   6.236   3.127   6.235 -0.1642 -0.6397  0.3167
 3293TIP3    H231295   6.360   3.040   6.233  0.5444  0.3471 -0.6289
 3294TIP3   OH231296   3.287   2.646   5.688 -0.8626  0.0621 -0.3524
 3294TIP3    H131297   3.251   2.694   5.763  1.5623 -0.5226  1.3224
 3294TIP3    H231298   3.355   2.704   5.653  1.1311 -1.4241  0.8293
 3295TIP3   OH231299   3.712   0.461   4.858  0.6883 -0.5274  0.0403
 3295TIP3    H131300   3.744   0.401   4.925  1.5090  0.0433  0.1661
 3295TIP3    H231301   3.694   0.542   4.905 -1.7411 -1.0371  0.1384
 3296TIP3   OH231302   4.320   1.000  15.262 -0.0593  0.5128  0.1406
 3296TIP3    H131303   4.328   0.961  15.349  0.2028 -0.6059 -0.3726
 3296TIP3    H231304   4.389   0.959  15.210 -2.0048 -1.0771 -1.3914
 3297TIP3   OH231305   2.891   2.731   5.249  0.0139 -0.8786 -0.2192
 3297TIP3    H131306   2.858   2.661   5.306 -2.0022 -0.8638 -1.2700
 3297TIP3    H231307   2.979   2.749   5.281 -0.7053 -1.4680  2.3352
 3298TIP3   OH231308   2.586   1.334   2.061 -0.0899 -0.0482 -0.4883
 3298TIP3    H131309   2.573   1.429   2.065 -0.7996 -0.1796  0.8982
 3298TIP3    H231310   2.660   1.318   2.121 -1.0609 -0.5318  0.6131
 3299TIP3   OH231311   5.468   2.030   0.259  0.3999 -0.5544  1.0907
 3299TIP3    H131312   5.413   1.951   0.257  1.7186 -1.5106  1.0423
 3299TIP3    H231313   5.459   2.067   0.171 -1.4177  0.2347  1.5683
 3300TIP3   OH231314   1.938   0.137  12.956 -0.1356  0.2679 -0.7662
 3300TIP3    H131315   1.961   0.229  12.944  1.8424  0.2221  1.9570
 3300TIP3    H231316   2.003   0.089  12.905  1.7969  0.3235  1.5366
 3301TIP3   OH231317   5.122   4.426  14.969  0.3738 -0.0328 -0.3647
 3301TIP3    H131318   5.042   4.458  14.926  0.6054 -1.5768 -2.0494
 3301TIP3    H231319   5.184   4.413  14.898  2.0653  0.8321  0.8904
 3302TIP3   OH231320   1.987   5.650  17.159  0.3314  0.1050 -1.0783
 3302TIP3    H131321   2.010   5.704  17.234  0.3312  1.1630 -1.8161
 3302TIP3    H231322   2.065   5.649  17.105  0.3515 -0.6992 -1.0489
 3303TIP3   OH231323   5.907   1.042   2.615  0.1644 -0.0817 -0.7934
 3303TIP3    H131324   5.980   0.982   2.597 -0.9249 -1.8274  0.2611
 3303TIP3    H231325   5.833   0.984   2.635 -1.1609  1.6388 -0.4576
 3304TIP3   OH231326   5.147   3.085  17.194  0.1219 -0.0998  0.7005
 3304TIP3    H131327   5.223   3.122  17.239  0.3602  0.7771 -0.3769
 3304TIP3    H231328   5.077   3.149  17.207  0.5964  0.9531 -1.3654
 3305TIP3   OH231329   4.299   6.121   4.935  0.1748 -0.0943  0.3864
 3305TIP3    H131330   4.382   6.077   4.920 -0.1982 -0.3671 -0.9972
 3305TIP3    H231331   4.268   6.085   5.018  1.0090 -0.6613  0.4634
 3306TIP3   OH231332   6.273   3.719  12.435  0.2964 -0.1689 -0.1410
 3306TIP3    H131333   6.279   3.763  12.351 -1.7515  2.0792  0.7683
 3306TIP3    H231334   6.353   3.666  12.441  0.6865 -0.0816 -3.2468
 3307TIP3   OH231335   0.520   5.960  15.757  0.1498  0.3306 -0.1454
 3307TIP3    H131336   0.468   5.884  15.731 -0.3439 -0.1264  1.9944
 3307TIP3    H231337   0.611   5.931  15.748 -0.0141 -0.0450 -0.6343
 3308TIP3   OH231338   4.211   4.283   4.937  0.5795  0.4058 -0.5068
 3308TIP3    H131339   4.263   4.355   4.904  1.9458 -0.8534 -1.2074
 3308TIP3    H231340   4.157   4.256   4.863 -0.6423  1.2604  0.0202
 3309TIP3   OH231341   1.649   4.618   2.663  0.2245  0.1000  0.5309
 3309TIP3    H131342   1.723   4.588   2.716  0.3650 -1.4952 -0.5000
 3309TIP3    H231343   1.574   4.571   2.699  0.4956 -1.8858 -1.2918
 3310TIP3   OH231344   4.317   0.341   1.513 -0.9814  0.5744 -0.4251
 3310TIP3    H131345   4.320   0.421   1.566  1.4032  0.2785 -0.0252
 3310TIP3    H231346   4.381   0.283   1.553 -1.8505 -1.1369 -1.4008
 3311TIP3   OH231347   3.568   3.922  16.180  0.0251 -0.5041 -0.1840
 3311TIP3    H131348   3.488   3.901  16.132 -0.2453  1.1975 -0.5447
 3311TIP3    H231349   3.537   3.947  16.268  0.0670  0.7905 -0.5179
 3312TIP3   OH231350   2.707   1.589   2.225 -0.0740  0.3111  0.3431
 3312TIP3    H131351   2.799   1.583   2.200 -0.4447  0.0133 -1.0072
 3312TIP3    H231352   2.680   1.677   2.200 -0.3938  0.0862 -0.1154
 3313TIP3   OH231353   1.301   0.692  13.276 -0.0480  0.2610 -0.1613
 3313TIP3    H131354   1.374   0.721  13.331 -0.4225 -0.1601  0.5767
 3313TIP3    H231355   1.240   0.765  13.276 -0.4134 -0.0304  0.6578
 3314TIP3   OH231356   5.762   5.342   1.889  0.1691  0.0099 -0.2579
 3314TIP3    H131357   5.686   5.336   1.832 -0.2609 -0.2395  0.3299
 3314TIP3    H231358   5.827   5.284   1.848  0.2000  0.5544 -0.9876
 3315TIP3   OH231359   4.147   6.293   4.743 -0.2614 -0.2828  0.4777
 3315TIP3    H131360   4.217   6.335   4.793 -1.9376  2.2802  0.8544
 3315TIP3    H231361   4.072   6.293   4.803 -0.9860 -1.6769 -0.3790
 3316TIP3   OH231362   3.050   5.858   5.621  0.0056  0.2003  0.0779
 3316TIP3    H131363   3.041   5.953   5.630 -1.8991  0.1685 -1.0269
 3316TIP3    H231364   3.144   5.844   5.611  0.1564  2.2270 -2.2578
 3317TIP3   OH231365   0.248   2.458  13.070 -0.0537  0.3532 -0.5972
 3317TIP3    H131366   0.216   2.487  12.985 -1.3183  1.6535  0.2937
 3317TIP3    H231367   0.321   2.517  13.090 -1.8712  2.3165  0.6726
 3318TIP3   OH231368   6.359   1.156   2.036 -0.7324 -0.2768 -0.6597
 3318TIP3    H131369   6.367   1.179   2.129  3.0727  2.0143 -1.3417
 3318TIP3    H231370   6.304   1.225   1.999  2.9930  2.8862 -1.0008
 3319TIP3   OH231371   4.697   3.593  14.299 -0.2526 -0.1412 -0.1603
 3319TIP3    H131372   4.627   3.592  14.234 -0.4427  0.3536  0.0332
 3319TIP3    H231373   4.668   3.531  14.366  0.6717 -1.8648 -1.2799
 3320TIP3   OH231374   4.394   5.249   2.426  0.4277  0.3445  0.2069
 3320TIP3    H131375   4.464   5.219   2.368  0.4955  1.9314 -0.5788
 3320TIP3    H231376   4.393   5.186   2.498  1.0645 -1.0665 -0.9702
 3321TIP3   OH231377   6.267   5.234  11.375 -0.1343  0.5302 -0.1557
 3321TIP3    H131378   6.272   5.147  11.335 -1.0763  0.6222 -0.4956
 3321TIP3    H231379   6.332   5.232  11.445 -0.0305 -0.3965 -0.2653
 3322TIP3   OH231380   2.361   4.700  13.148 -0.2486  0.1204  0.3100
 3322TIP3    H131381   2.400   4.626  13.101 -2.0004 -1.9206  1.8818
 3322TIP3    H231382   2.365   4.772  13.086  0.0969 -1.6872 -1.9154
 3323TIP3   OH231383   6.206   1.783   4.032 -0.3340 -0.0191  0.1266
 3323TIP3    H131384   6.185   1.872   4.059 -0.8073  0.7986 -2.6243
 3323TIP3    H231385   6.258   1.793   3.952  0.0317 -2.2158  0.0090
 3324TIP3   OH231386   2.624   4.823   5.868  0.7735  0.4470 -0.7500
 3324TIP3    H131387   2.575   4.742   5.877 -0.3348  1.1813  0.0978
 3324TIP3    H231388   2.578   4.872   5.800  0.1112  1.2538  0.2363
 3325TIP3   OH231389   1.840   0.834  12.404 -0.0694  0.0138 -0.1712
 3325TIP3    H131390   1.934   0.816  12.394  0.0936  0.9301 -0.3774
 3325TIP3    H231391   1.836   0.903  12.470 -0.4718  1.2118 -1.4006
 3326TIP3   OH231392   2.737   0.838  15.216  0.1533 -0.0139 -0.2289
 3326TIP3    H131393   2.772   0.910  15.164 -0.2788 -0.7509 -1.5895
 3326TIP3    H231394   2.809   0.774  15.221 -0.4079 -0.8141 -1.6564
 3327TIP3   OH231395   6.602   4.467   1.050  0.3795 -0.2632  0.5396
 3327TIP3    H131396   6.625   4.399   1.115 -0.2873 -2.0480 -1.0032
 3327TIP3    H231397   6.508   4.476   1.057 -0.0055 -1.9352 -1.4339
 3328TIP3   OH231398   0.849   4.529  13.879  0.0626 -0.0631 -0.0875
 3328TIP3    H131399   0.766   4.491  13.909  0.3741 -0.5486  0.1790
 3328TIP3    H231400   0.893   4.556  13.960  0.2595 -0.0133 -0.2110
 3329TIP3   OH231401   5.849   1.558   2.976 -0.4669  0.1313 -0.3859
 3329TIP3    H131402   5.856   1.468   2.945 -1.2788 -0.2635  0.5254
 3329TIP3    H231403   5.893   1.558   3.061  0.8641  0.9675 -1.0394
 3330TIP3   OH231404   3.981   2.222  15.234  0.0310 -0.1823 -0.3237
 3330TIP3    H131405   3.982   2.129  15.259  1.0832  0.4763  2.4688
 3330TIP3    H231406   3.920   2.262  15.296  0.2198  1.1473 -0.9679
 3331TIP3   OH231407   2.945   2.267   2.219  0.1258  0.7305 -0.4558
 3331TIP3    H131408   2.891   2.335   2.180 -0.5034  1.8635  2.1868
 3331TIP3    H231409   3.035   2.301   2.213 -0.1177  1.5385  0.2930
 3332TIP3   OH231410   1.149   5.258  13.972 -0.1764  0.1985  0.0754
 3332TIP3    H131411   1.077   5.289  14.026 -1.0284  0.3458 -1.0943
 3332TIP3    H231412   1.133   5.164  13.963  0.2823  0.0739  0.5349
 3333TIP3   OH231413   2.737   5.865  11.974  0.1245  0.3766  0.1094
 3333TIP3    H131414   2.689   5.947  11.968 -0.2206  0.2014  0.3912
 3333TIP3    H231415   2.729   5.839  12.066 -0.0201 -0.1130 -0.0343
 3334TIP3   OH231416   3.080   1.692  12.268  0.1191 -0.2394  0.0203
 3334TIP3    H131417   3.081   1.598  12.287 -0.6185 -0.1460  0.5609
 3334TIP3    H231418   2.988   1.713  12.253  0.5690 -0.3256 -3.9031
 3335TIP3   OH231419   5.422   4.250  13.367  0.8104 -0.3910 -0.0119
 3335TIP3    H131420   5.357   4.311  13.334  0.4099  0.9604  2.9012
 3335TIP3    H231421   5.500   4.303  13.382  1.2699 -1.1150  0.2341
 3336TIP3   OH231422   6.212   4.750   4.956  0.4388 -0.5580  0.3115
 3336TIP3    H131423   6.248   4.833   4.987  2.7201 -1.7751  1.1414
 3336TIP3    H231424   6.218   4.692   5.032  1.3268 -2.1876 -0.9610
 3337TIP3   OH231425   5.643   3.030   1.750  0.8054  0.5952  0.2676
 3337TIP3    H131426   5.586   3.020   1.826  1.0226  0.4670  0.4154
 3337TIP3    H231427   5.627   3.119   1.718 -0.9412 -0.0655 -0.8731
 3338TIP3   OH231428   4.023   1.795  12.792  0.0944  0.3857  0.5305
 3338TIP3    H131429   3.989   1.706  12.783  1.2750 -0.2968  2.2907
 3338TIP3    H231430   4.115   1.788  12.766  0.5886  0.7265  2.0533
 3339TIP3   OH231431   1.112   1.460   1.986  0.0387 -0.1369  0.2757
 3339TIP3    H131432   1.038   1.511   1.954 -0.7928 -1.7800 -0.5120
 3339TIP3    H231433   1.178   1.467   1.917 -0.5766 -1.1664 -0.4352
 3340TIP3   OH231434   1.114   1.820   5.626  0.5385  0.0348  0.5622
 3340TIP3    H131435   1.045   1.861   5.679 -0.7578 -1.1579 -0.1302
 3340TIP3    H231436   1.148   1.891   5.572 -2.4255  0.1105 -1.4465
 3341TIP3   OH231437   1.787   0.964  15.066 -0.1612 -0.0910  0.2785
 3341TIP3    H131438   1.805   1.054  15.039  1.3184 -0.3153  0.4334
 3341TIP3    H231439   1.841   0.950  15.143 -0.5528 -1.0458  0.4009
 3342TIP3   OH231440   2.213   2.306  12.123 -0.5505 -0.7208 -0.2448
 3342TIP3    H131441   2.164   2.386  12.142 -0.0372 -0.7899  1.5181
 3342TIP3    H231442   2.146   2.240  12.107 -0.9884  0.1882 -2.5691
 3343TIP3   OH231443   2.399   4.597   4.270 -0.1165  0.3215  0.0191
 3343TIP3    H131444   2.442   4.653   4.205 -0.4497  1.5779  0.8549
 3343TIP3    H231445   2.408   4.508   4.234 -1.3449  1.0649 -2.3855
 3344TIP3   OH231446   3.084   6.176  16.228  0.3783 -0.1534  0.1874
 3344TIP3    H131447   3.176   6.197  16.243  0.6533 -1.0186 -0.1943
 3344TIP3    H231448   3.057   6.235  16.157  1.3635 -1.5519 -1.4460
 3345TIP3   OH231449   2.857   5.446  14.695 -0.7160  0.0947 -0.1545
 3345TIP3    H131450   2.934   5.503  14.707 -0.5291  0.0280 -0.9483
 3345TIP3    H231451   2.784   5.507  14.685 -1.0582  0.1520  2.1831
 3346TIP3   OH231452   2.988   4.389   0.431 -0.7064 -0.4647  0.0160
 3346TIP3    H131453   2.900   4.415   0.405  0.3929  2.2588 -1.4052
 3346TIP3    H231454   3.036   4.377   0.349  0.4494 -1.1585  0.7534
 3347TIP3   OH231455   0.722   0.157   4.809  0.1674 -0.4028 -0.6714
 3347TIP3    H131456   0.664   0.140   4.735 -0.1518  1.5168 -0.8950
 3347TIP3    H231457   0.669   0.207   4.871  1.4769  1.2362 -0.8076
 3348TIP3   OH231458   4.287   5.635   1.181  0.2566  0.4063  0.6918
 3348TIP3    H131459   4.312   5.552   1.140 -1.1922 -0.9383  2.3645
 3348TIP3    H231460   4.250   5.687   1.109 -1.3820 -1.5028  0.0516
 3349TIP3   OH231461   1.697   5.147  11.645 -0.0344  0.0784 -0.2520
 3349TIP3    H131462   1.637   5.115  11.578  0.7427  0.5428 -1.1852
 3349TIP3    H231463   1.719   5.068  11.696  0.8060 -0.6558 -1.6932
 3350TIP3   OH231464   1.140   1.287  12.391 -0.4896 -0.3878 -0.3302
 3350TIP3    H131465   1.103   1.357  12.338  0.2271  1.6423  1.6980
 3350TIP3    H231466   1.233   1.309  12.399 -0.1521 -1.8232  0.0004
 3351TIP3   OH231467   6.531   4.751   3.840 -0.0006  0.3908  0.0394
 3351TIP3    H131468   6.467   4.775   3.773 -0.5908  1.2111  0.8654
 3351TIP3    H231469   6.521   4.818   3.907 -0.5654 -1.2439  1.7076
 3352TIP3   OH231470   0.590   5.168  12.602 -0.3183 -0.1793 -0.2270
 3352TIP3    H131471   0.506   5.190  12.641 -0.8775 -1.3797 -0.7215
 3352TIP3    H231472   0.629   5.104  12.662  0.1439  0.1875 -0.1260
 3353TIP3   OH231473   4.487   2.533   0.661 -0.3782  1.0765 -0.0189
 3353TIP3    H131474   4.528   2.619   0.673 -1.9037  2.1859 -2.1341
 3353TIP3    H231475   4.463   2.530   0.569 -1.5162 -1.1063  0.2788
 3354TIP3   OH231476   2.052   1.968   3.886 -0.2593 -0.0959  0.4676
 3354TIP3    H131477   1.980   2.016   3.845 -0.3217 -0.4583  0.1444
 3354TIP3    H231478   2.022   1.952   3.976 -0.9813 -1.0446  0.0700
 3355TIP3   OH231479   6.346   4.056   5.362  0.5639 -0.1220 -0.0136
 3355TIP3    H131480   6.390   4.120   5.306  2.9341  0.1090  1.9379
 3355TIP3    H231481   6.266   4.033   5.314  1.5098  1.4276 -2.5505
 3356TIP3   OH231482   1.796   4.448   5.025  0.1816 -0.2657  0.0498
 3356TIP3    H131483   1.703   4.427   5.025  0.4816 -1.7575  0.7308
 3356TIP3    H231484   1.840   4.363   5.027  1.5596  0.4085 -0.1068
 3357TIP3   OH231485   6.360   4.566  12.435  0.2126 -0.3199  0.2459
 3357TIP3    H131486   6.325   4.590  12.349  1.6776  1.4427  0.0641
 3357TIP3    H231487   6.294   4.595  12.498 -0.3516 -0.5707 -0.2248
 3358TIP3   OH231488   2.514   0.502  16.274 -0.1015  0.1004  0.0709
 3358TIP3    H131489   2.528   0.423  16.221  0.5437  1.5671 -2.1272
 3358TIP3    H231490   2.601   0.543  16.278 -0.6969  1.4692 -0.2413
 3359TIP3   OH231491   5.437   1.233  10.681 -0.2520 -0.2086  0.4234
 3359TIP3    H131492   5.356   1.194  10.713 -1.0308 -0.3075 -1.5569
 3359TIP3    H231493   5.413   1.322  10.656 -0.4695 -1.0161 -2.6270
 3360TIP3   OH231494   5.175   4.709   4.477  0.2326 -0.2948 -0.5476
 3360TIP3    H131495   5.176   4.682   4.385 -0.6758 -0.5061 -0.5050
 3360TIP3    H231496   5.229   4.644   4.522 -0.6109 -1.1208 -0.6996
 3361TIP3   OH231497   6.666   2.254  16.099  0.1109 -0.5397 -0.1615
 3361TIP3    H131498   6.753   2.213  16.107 -0.0200 -0.9968 -0.9835
 3361TIP3    H231499   6.643   2.278  16.189  1.5244  0.5023 -0.0356
 3362TIP3   OH231500   4.902   0.353   0.632  0.3137  0.6082  0.0282
 3362TIP3    H131501   4.869   0.308   0.710  0.5147 -0.4704 -0.4838
 3362TIP3    H231502   4.944   0.431   0.666 -2.2748  1.7951  0.7432
 3363TIP3   OH231503   2.893   5.305   0.888 -0.3074  0.1633 -0.1961
 3363TIP3    H131504   2.820   5.349   0.844 -0.0017 -1.0362 -2.0028
 3363TIP3    H231505   2.958   5.290   0.819  1.3386  0.5039  1.2121
 3364TIP3   OH231506   1.261   4.974   5.062  0.3828  0.0589  0.3044
 3364TIP3    H131507   1.177   5.018   5.047  1.2601  1.4311 -0.8247
 3364TIP3    H231508   1.256   4.894   5.010 -0.9409 -0.8814  1.7785
 3365TIP3   OH231509   4.828   6.355   2.893  0.2916  0.5025  0.1215
 3365TIP3    H131510   4.901   6.417   2.894  1.0801 -0.3972 -0.2318
 3365TIP3    H231511   4.749   6.410   2.893  0.9752  1.5107 -1.0028
 3366TIP3   OH231512   1.971   1.479   2.512 -0.1739 -0.4882 -0.3063
 3366TIP3    H131513   1.905   1.547   2.529  1.4027  1.0385 -0.0316
 3366TIP3    H231514   2.042   1.525   2.467  0.2100 -2.3423 -1.7282
 3367TIP3   OH231515   3.519   1.412   4.577  0.1044 -0.1316 -0.4981
 3367TIP3    H131516   3.529   1.408   4.482  2.8457 -0.2323 -0.2757
 3367TIP3    H231517   3.507   1.321   4.604 -0.0155 -0.1716 -0.6813
 3368TIP3   OH231518   4.813   5.722   2.678  0.1315  0.1503 -0.0916
 3368TIP3    H131519   4.900   5.732   2.639  0.4425  0.9701  0.7677
 3368TIP3    H231520   4.828   5.672   2.758 -0.8684 -4.0347 -2.2712
 3369TIP3   OH231521   4.877   2.463   4.355  0.0490  0.1550 -0.8693
 3369TIP3    H131522   4.787   2.444   4.329 -0.5151  1.5102 -0.0514
 3369TIP3    H231523   4.884   2.558   4.348  0.8892  0.2367  0.6840
 3370TIP3   OH231524   2.004   4.594   2.777  0.3048 -0.6622  0.4045
 3370TIP3    H131525   1.958   4.605   2.693 -1.0370  0.2978  1.2108
 3370TIP3    H231526   2.028   4.683   2.802  0.8139 -0.9601  0.9728
 3371TIP3   OH231527   3.748   3.766  15.422 -0.8103 -0.3439  0.0397
 3371TIP3    H131528   3.723   3.729  15.506  0.2610  0.7322  0.8665
 3371TIP3    H231529   3.827   3.718  15.397 -0.5987 -0.0314  0.1048
 3372TIP3   OH231530   1.253   0.955  12.269  0.4237  0.4827 -0.0560
 3372TIP3    H131531   1.214   0.938  12.355 -0.3447  0.0473 -0.4747
 3372TIP3    H231532   1.270   0.867  12.234  0.4633  0.6550 -0.4671
 3373TIP3   OH231533   6.347   3.190  15.026 -0.1551  0.5603  0.2362
 3373TIP3    H131534   6.341   3.234  14.942  0.6468 -0.4444 -0.3743
 3373TIP3    H231535   6.435   3.210  15.057 -1.4799  3.6925  2.4774
 3374TIP3   OH231536   5.255   1.842  11.823  0.0783 -0.4796 -0.3912
 3374TIP3    H131537   5.327   1.828  11.761 -0.1636  0.2362 -0.8523
 3374TIP3    H231538   5.219   1.755  11.839  0.7186 -0.7793 -0.5596
 3375TIP3   OH231539   4.599   3.777   4.176 -0.2627 -0.8876  0.1432
 3375TIP3    H131540   4.672   3.834   4.199 -1.0829  0.5214 -0.5903
 3375TIP3    H231541   4.542   3.779   4.253 -0.2144 -0.8464  0.1778
 3376TIP3   OH231542   3.729   1.890  15.533  0.4734  0.5064 -0.3001
 3376TIP3    H131543   3.772   1.807  15.515 -2.2927 -0.5936 -2.7435
 3376TIP3    H231544   3.656   1.867  15.591  1.7869  1.9545  2.0775
 3377TIP3   OH231545   3.003   2.338   3.950  0.6667 -0.3342 -0.0011
 3377TIP3    H131546   3.028   2.351   4.041 -0.3753 -0.3098  0.2972
 3377TIP3    H231547   2.944   2.411   3.930  0.4282 -0.6595 -0.5205
 3378TIP3   OH231548   5.828   6.014  13.208 -0.4124  0.3889 -0.0763
 3378TIP3    H131549   5.779   5.991  13.287 -0.6980  0.2005 -0.3072
 3378TIP3    H231550   5.855   5.930  13.170 -0.2238  0.4795 -0.1482
 3379TIP3   OH231551   1.071   2.370  14.065 -0.1609  0.3723 -0.2123
 3379TIP3    H131552   1.154   2.394  14.105 -0.9262  1.2096  0.9541
 3379TIP3    H231553   1.066   2.275  14.073 -0.2801  0.5055  1.7350
 3380TIP3   OH231554   3.171   1.271  12.256 -0.2208 -0.4110 -0.3180
 3380TIP3    H131555   3.108   1.314  12.198  2.4808  0.5785 -2.7956
 3380TIP3    H231556   3.118   1.235  12.327 -3.3590  1.5331 -1.4603
 3381TIP3   OH231557   5.504   6.662  16.405  0.2758 -0.8100 -0.3201
 3381TIP3    H131558   5.582   6.644  16.352  1.8565  3.0098  0.3718
 3381TIP3    H231559   5.471   6.745  16.372 -0.3555  0.3120  2.7977
 3382TIP3   OH231560   2.250   3.894   1.838  0.1970  0.1521  0.2066
 3382TIP3    H131561   2.172   3.951   1.833 -0.5397 -0.8158  0.3436
 3382TIP3    H231562   2.249   3.845   1.756  0.1128 -0.5471  0.6173
 3383TIP3   OH231563   1.351   2.078   4.605  0.2252 -0.1100  0.2859
 3383TIP3    H131564   1.346   2.052   4.513 -1.0824  1.7883 -0.2344
 3383TIP3    H231565   1.408   2.155   4.605 -0.1810  0.1993  0.9837
 3384TIP3   OH231566   0.387   6.594  11.598 -0.4381  0.3699 -0.6081
 3384TIP3    H131567   0.327   6.520  11.608  0.6249 -0.3963  0.3295
 3384TIP3    H231568   0.472   6.559  11.623 -0.0619  2.1562  0.8321
 3385TIP3   OH231569   0.647   0.754  10.917  0.1958 -0.0665 -0.7396
 3385TIP3    H131570   0.681   0.665  10.907 -0.8238 -0.6009  0.3851
 3385TIP3    H231571   0.714   0.809  10.877  1.5614 -1.2122 -0.1148
 3386TIP3   OH231572   0.102   6.286   3.597  0.7060 -0.3692 -0.7634
 3386TIP3    H131573   0.155   6.224   3.547  1.3402 -0.4996  0.0377
 3386TIP3    H231574   0.140   6.283   3.685 -0.3218 -0.0809 -0.3015
 3387TIP3   OH231575   0.741   2.726  13.080  0.0878 -0.0164 -0.0637
 3387TIP3    H131576   0.790   2.647  13.059 -1.4500 -0.6959 -1.3702
 3387TIP3    H231577   0.778   2.794  13.024  0.7421 -0.0413  0.3273
 3388TIP3   OH231578   3.990   1.017   2.552 -0.0664  0.1152  0.3696
 3388TIP3    H131579   4.047   0.950   2.591 -1.7136 -0.9333  1.1117
 3388TIP3    H231580   4.024   1.029   2.463  0.6470 -1.3026  0.4187
 3389TIP3   OH231581   4.052   3.793  17.064  0.5737  0.4675 -0.0995
 3389TIP3    H131582   4.021   3.861  17.004 -2.3978  0.1728  0.9104
 3389TIP3    H231583   3.980   3.781  17.125  1.2381 -3.0875  0.2228
 3390TIP3   OH231584   3.647   6.152   6.036 -0.0106  0.4828  0.0511
 3390TIP3    H131585   3.629   6.080   5.975  1.1023  0.3634 -0.1515
 3390TIP3    H231586   3.665   6.108   6.119 -1.4092  0.6399  0.4663
 3391TIP3   OH231587   0.383   6.613  13.021  0.2722  0.1798  0.4334
 3391TIP3    H131588   0.374   6.521  13.044  1.7458 -1.4397 -4.3834
 3391TIP3    H231589   0.302   6.635  12.976  0.5542  0.7790  0.2012
 3392TIP3   OH231590   2.817   2.855  16.159  0.0157 -0.4054 -0.6622
 3392TIP3    H131591   2.725   2.882  16.161  0.3984  0.8930  0.5848
 3392TIP3    H231592   2.861   2.922  16.108  0.5268 -0.0769  0.1787
 3393TIP3   OH231593   4.372   0.541  17.063  0.4257  0.3384 -0.1075
 3393TIP3    H131594   4.449   0.486  17.080  0.9421  1.2236  0.4994
 3393TIP3    H231595   4.387   0.620  17.115 -0.8206  0.5968 -0.1103
 3394TIP3   OH231596   4.713   1.977  10.908 -0.1208 -0.2002 -0.2567
 3394TIP3    H131597   4.808   1.972  10.900  0.0667  0.8374  1.1035
 3394TIP3    H231598   4.682   1.890  10.879  1.3154 -1.0021  0.5090
 3395TIP3   OH231599   2.431   0.241  11.725 -0.2087  0.3164  0.1133
 3395TIP3    H131600   2.487   0.312  11.693 -0.5145  1.2516  1.5198
 3395TIP3    H231601   2.343   0.279  11.727 -0.4677 -0.2854  0.3407
 3396TIP3   OH231602   2.936   0.418   4.906 -0.3253  0.1450 -0.2227
 3396TIP3    H131603   2.964   0.459   4.988 -0.7619 -1.6888  0.8994
 3396TIP3    H231604   2.879   0.346   4.933  2.7369 -3.2168 -1.8089
 3397TIP3   OH231605   6.617   6.735   2.537 -0.2460 -0.3904  0.4949
 3397TIP3    H131606   6.613   6.775   2.450 -0.9583  0.5746  0.9513
 3397TIP3    H231607   6.641   6.644   2.521  2.4528  0.4213 -0.5077
 3398TIP3   OH231608   5.087   4.109   0.826 -0.5347 -0.3195 -0.1866
 3398TIP3    H131609   5.077   4.124   0.920 -0.5565 -0.7380 -0.1177
 3398TIP3    H231610   5.027   4.171   0.785 -0.1790  0.1886  0.0567
 3399TIP3   OH231611   1.646   4.377   0.130  0.6101  0.1767  0.2242
 3399TIP3    H131612   1.572   4.393   0.072  1.2820 -0.4758 -0.8418
 3399TIP3    H231613   1.700   4.457   0.123  1.6257 -0.6017 -1.5268
 3400TIP3   OH231614   1.380   4.599   2.391 -0.6135  0.2463 -0.4904
 3400TIP3    H131615   1.304   4.624   2.338 -2.4236 -2.2005  0.7159
 3400TIP3    H231616   1.371   4.504   2.402  2.7948 -0.2165 -0.4587
 3401TIP3   OH231617   6.552   3.248   3.349  0.3172 -0.2847 -0.5392
 3401TIP3    H131618   6.569   3.309   3.278  2.6058 -0.0719  0.1024
 3401TIP3    H231619   6.635   3.204   3.364 -0.6309 -1.7999  0.6632
 3402TIP3   OH231620   0.373   2.151  16.599 -0.6062 -0.0335 -0.6302
 3402TIP3    H131621   0.382   2.194  16.514 -2.7347  1.2749 -0.2796
 3402TIP3    H231622   0.452   2.175  16.647  0.3329 -0.2814 -2.0045
 3403TIP3   OH231623   0.327   5.540  15.105  0.6549 -0.4223 -0.3073
 3403TIP3    H131624   0.243   5.496  15.106 -0.4054  1.4958 -0.1276
 3403TIP3    H231625   0.350   5.548  15.013 -0.1406  0.4306 -0.4384
 3404TIP3   OH231626   3.345   2.594  15.867 -0.0888  0.3421  0.5697
 3404TIP3    H131627   3.296   2.636  15.938  0.5315  1.7352  0.2135
 3404TIP3    H231628   3.304   2.626  15.787  0.8337  0.8328  0.2788
 3405TIP3   OH231629   3.205   4.118  15.205  0.1532  0.6845 -0.2862
 3405TIP3    H131630   3.189   4.180  15.276  1.5504 -0.1401  0.8294
 3405TIP3    H231631   3.294   4.137  15.176  0.3084 -0.2423 -0.4634
 3406TIP3   OH231632   4.385   5.300   2.817 -0.2974  0.0244 -0.3858
 3406TIP3    H131633   4.406   5.284   2.725 -1.8854  0.6216 -0.8850
 3406TIP3    H231634   4.407   5.218   2.861  1.2328 -0.0122 -1.1243
 3407TIP3   OH231635   5.729   0.542   4.276 -0.3195 -0.6998  0.9005
 3407TIP3    H131636   5.809   0.587   4.246  0.2869 -1.9015  0.6631
 3407TIP3    H231637   5.691   0.601   4.341 -1.2665  1.6808 -1.6041
 3408TIP3   OH231638   3.486   0.743  16.444 -0.0466  0.1409  0.0052
 3408TIP3    H131639   3.509   0.816  16.501 -0.2769 -0.1123  0.4313
 3408TIP3    H231640   3.569   0.715  16.405  0.1243  0.2647  0.2803
 3409TIP3   OH231641   2.571   4.483   0.894  0.0603 -0.4922 -0.0184
 3409TIP3    H131642   2.509   4.416   0.868 -0.3766  0.5872 -2.0472
 3409TIP3    H231643   2.561   4.491   0.989 -0.2155 -2.8861  0.2028
 3410TIP3   OH231644   5.463   2.332   6.435  0.0399  0.1835  0.5871
 3410TIP3    H131645   5.462   2.262   6.369  0.0582 -0.2486  1.0399
 3410TIP3    H231646   5.394   2.308   6.496  0.3154  0.3478  0.9660
 3411TIP3   OH231647   1.654   5.434  12.543  0.5830  0.1704  0.6986
 3411TIP3    H131648   1.621   5.351  12.578  0.1206 -1.3162 -2.8094
 3411TIP3    H231649   1.590   5.499  12.573 -1.1554 -1.3670  0.5864
 3412TIP3   OH231650   4.235   2.059  11.334  0.1472 -0.0328 -0.5106
 3412TIP3    H131651   4.158   2.050  11.278 -0.9056 -3.6054  1.1622
 3412TIP3    H231652   4.203   2.033  11.421  3.1374 -1.4238  0.2909
 3413TIP3   OH231653   5.135   0.330   4.798  0.1833 -0.0268  0.1126
 3413TIP3    H131654   5.190   0.385   4.853  0.2144 -0.5815  0.6388
 3413TIP3    H231655   5.132   0.246   4.842  1.5633 -1.0226 -1.5629
 3414TIP3   OH231656   0.548   3.105  16.458 -0.1726 -0.0277  0.8928
 3414TIP3    H131657   0.561   3.164  16.533 -2.0772 -0.7462  1.8684
 3414TIP3    H231658   0.487   3.038  16.491 -0.1241 -1.0508 -0.9643
 3415TIP3   OH231659   3.155   4.008   1.054 -0.6401 -0.3952  0.3097
 3415TIP3    H131660   3.105   3.989   0.974  2.3878  1.0711 -2.1541
 3415TIP3    H231661   3.175   3.922   1.090  0.3752 -1.3398 -2.2570
 3416TIP3   OH231662   0.716   3.703   2.468  0.4188 -0.8462 -0.2677
 3416TIP3    H131663   0.794   3.683   2.415  0.2236  0.6125 -1.1616
 3416TIP3    H231664   0.656   3.746   2.407  0.2140  0.9858  1.1493
 3417TIP3   OH231665   0.039   1.481  13.314 -0.2062  0.0603  0.2879
 3417TIP3    H131666   0.070   1.439  13.395  0.7015 -1.7892 -0.9570
 3417TIP3    H231667   0.103   1.551  13.298 -0.0301  0.0266  0.8219
 3418TIP3   OH231668   3.699   1.627   3.698 -0.0913  0.2141  0.1205
 3418TIP3    H131669   3.729   1.550   3.746  0.4396 -0.5745 -1.4218
 3418TIP3    H231670   3.631   1.665   3.754  0.3546 -0.7674  1.3864
 3419TIP3   OH231671   1.278   6.357  15.457  0.0289 -0.3011  0.1243
 3419TIP3    H131672   1.200   6.322  15.500 -0.0766 -0.7892 -0.4390
 3419TIP3    H231673   1.324   6.406  15.525 -0.3051 -0.7732  0.7005
 3420TIP3   OH231674   3.626   6.418   0.013  0.6369 -0.0694  0.2508
 3420TIP3    H131675   3.592   6.484  -0.049  1.7570  0.7327  0.4635
 3420TIP3    H231676   3.577   6.339  -0.008 -1.0938  0.9221  0.2795
 3421TIP3   OH231677   4.126   1.124  12.994 -0.1667 -0.1702 -0.4614
 3421TIP3    H131678   4.156   1.190  13.056 -1.7889 -0.0463  0.2403
 3421TIP3    H231679   4.205   1.075  12.970  0.6727  0.5384  0.7952
 3422TIP3   OH231680   3.182   4.217  14.497 -0.2486  0.5523  0.4719
 3422TIP3    H131681   3.213   4.262  14.419 -1.3018 -0.9904 -0.8977
 3422TIP3    H231682   3.137   4.285  14.548 -0.0582  1.4546 -0.5439
 3423TIP3   OH231683   1.537   4.651  13.778  0.0911 -0.3260  0.1493
 3423TIP3    H131684   1.455   4.642  13.827  0.7172 -2.3933  0.9387
 3423TIP3    H231685   1.593   4.704  13.835 -0.8629  1.7153 -0.7100
 3424TIP3   OH231686   4.787   2.697   1.669  0.3537 -0.7217  0.0728
 3424TIP3    H131687   4.704   2.677   1.626  0.2838 -0.4358  0.0759
 3424TIP3    H231688   4.767   2.695   1.763  0.4358 -1.0252  0.0867
 3425TIP3   OH231689   0.965   3.682  15.998  0.0521  0.1726 -0.1370
 3425TIP3    H131690   0.905   3.656  16.067 -0.6485  1.4643 -0.2290
 3425TIP3    H231691   0.912   3.733  15.937  1.4083  2.3448  0.3620
 3426TIP3   OH231692   5.379   0.003   1.673  0.8326 -0.5221 -0.7583
 3426TIP3    H131693   5.467   0.019   1.706  1.6486 -3.5052 -1.1610
 3426TIP3    H231694   5.326  -0.013   1.751  1.4928 -2.1255 -0.6016
 3427TIP3   OH231695   2.209   4.570  12.746 -0.5688  0.4307  0.6599
 3427TIP3    H131696   2.129   4.540  12.703  0.6327  0.9167 -2.1020
 3427TIP3    H231697   2.280   4.526  12.698  0.9344  2.2955  1.0740
 3428TIP3   OH231698   3.573   4.073  11.383  0.0792 -0.1005  0.2636
 3428TIP3    H131699   3.525   4.077  11.466 -1.4084  1.1402 -0.6067
 3428TIP3    H231700   3.510   4.103  11.318  1.5799  0.0684 -1.1612
 3429TIP3   OH231701   5.750   6.208  15.788  0.3074  0.0776  0.1599
 3429TIP3    H131702   5.727   6.252  15.706  0.5744 -0.9958 -0.5154
 3429TIP3    H231703   5.676   6.227  15.846  0.9873  2.4829  0.3651
 3430TIP3   OH231704   0.716   2.893   0.642 -0.7071 -0.0497 -0.1248
 3430TIP3    H131705   0.778   2.842   0.695 -0.8786  0.2924  0.4127
 3430TIP3    H231706   0.659   2.935   0.706 -1.3883 -0.2202 -0.6128
 3431TIP3   OH231707   1.878   0.687  16.865 -0.2415  0.1802  0.6161
 3431TIP3    H131708   1.948   0.633  16.902  0.4434  0.2703 -0.5003
 3431TIP3    H231709   1.798   0.647  16.897  0.2703 -1.1153  0.3441
 3432TIP3   OH231710   6.307   0.699   0.109 -0.1939 -0.4415 -0.2149
 3432TIP3    H131711   6.377   0.740   0.160 -0.7520 -0.3670  0.5103
 3432TIP3    H231712   6.226   0.738   0.144 -0.6455 -1.1053 -0.5022
 3433TIP3   OH231713   5.824   1.486  17.397 -0.8357  0.3090 -0.4541
 3433TIP3    H131714   5.831   1.426  17.471  0.3358  0.6819 -0.2348
 3433TIP3    H231715   5.731   1.487  17.375 -0.7466 -2.8307 -1.5124
 3434TIP3   OH231716   6.736   1.889   1.084  0.1514 -0.1251 -0.1980
 3434TIP3    H131717   6.784   1.868   1.164 -2.1294  0.8778  1.5484
 3434TIP3    H231718   6.646   1.862   1.102 -0.4800  0.2871 -2.3906
 3435TIP3   OH231719   6.512   1.571  17.144 -0.5347  0.2963  0.2219
 3435TIP3    H131720   6.464   1.546  17.065 -0.1195 -0.9427  0.3403
 3435TIP3    H231721   6.444   1.576  17.212 -0.7473  0.3683  0.0066
 3436TIP3   OH231722   5.047   5.978  15.451  0.3744 -0.4486  0.3064
 3436TIP3    H131723   5.036   5.884  15.439 -0.5010 -0.2304 -0.7715
 3436TIP3    H231724   5.047   6.014  15.362 -0.8992  0.7161  0.7301
 3437TIP3   OH231725   3.077   4.111   5.331  0.4252 -0.1062 -0.2711
 3437TIP3    H131726   3.013   4.077   5.393  0.2248  1.7014  0.5653
 3437TIP3    H231727   3.112   4.033   5.287  0.2796 -1.4126  1.8226
 3438TIP3   OH231728   4.343   5.409   1.047  0.1276 -0.0171 -0.1627
 3438TIP3    H131729   4.258   5.367   1.066 -0.1162  1.3829  2.2041
 3438TIP3    H231730   4.334   5.440   0.956 -2.3862  1.1136  0.3694
 3439TIP3   OH231731   1.097   1.882  14.723  0.2243  0.5423 -0.4818
 3439TIP3    H131732   1.093   1.788  14.740  1.6183  0.6993  0.8685
 3439TIP3    H231733   1.005   1.909  14.722 -0.1481 -0.4524  1.4337
 3440TIP3   OH231734   1.194   4.857   1.152  0.1475 -0.0813 -0.6341
 3440TIP3    H131735   1.287   4.860   1.130  0.2037 -0.4554 -0.4531
 3440TIP3    H231736   1.165   4.770   1.124 -0.0943 -0.0490 -0.4915
 3441TIP3   OH231737   1.356   6.612   3.475 -0.0320  0.2274 -0.8600
 3441TIP3    H131738   1.380   6.531   3.429  0.8164 -0.0259 -0.0160
 3441TIP3    H231739   1.375   6.682   3.413  1.4615 -0.0814 -0.8026
 3442TIP3   OH231740   3.651   4.477  15.102 -0.4692 -0.3482  0.5907
 3442TIP3    H131741   3.587   4.447  15.166  0.7632 -0.9954  1.5641
 3442TIP3    H231742   3.664   4.570  15.122 -1.4070 -0.1052  0.1053
 3443TIP3   OH231743   4.956   5.013   1.936 -0.1438 -0.3056  0.1723
 3443TIP3    H131744   4.966   4.972   2.022  1.2244  0.1519  0.2629
 3443TIP3    H231745   4.995   5.100   1.946  0.9485 -0.6020 -1.1550
 3444TIP3   OH231746   3.089   1.429  15.617 -0.2201 -0.2873 -0.3416
 3444TIP3    H131747   3.008   1.475  15.635  1.0819  2.2960 -0.7037
 3444TIP3    H231748   3.134   1.425  15.701 -0.3128 -0.9027 -0.3169
 3445TIP3   OH231749   0.137   1.654   1.182 -0.2171 -0.3724  0.6597
 3445TIP3    H131750   0.219   1.692   1.152 -0.7236  0.5658  0.4025
 3445TIP3    H231751   0.117   1.585   1.119  0.8680 -1.2998  1.2997
 3446TIP3   OH231752   4.637   3.468   1.096  0.8498  0.3126  0.6570
 3446TIP3    H131753   4.682   3.423   1.025 -1.1565  0.6473 -0.9101
 3446TIP3    H231754   4.584   3.535   1.053  1.4939  2.2724  2.6890
 3447TIP3   OH231755   6.092   4.208   1.675  0.1640  0.3844  0.5934
 3447TIP3    H131756   6.038   4.275   1.632  0.6299 -0.0426 -0.7157
 3447TIP3    H231757   6.029   4.141   1.704 -0.4629  1.8797  3.0349
 3448TIP3   OH231758   2.702   6.373  14.360  0.0972 -0.3621 -0.3785
 3448TIP3    H131759   2.639   6.438  14.392  1.4773 -0.0746  1.9375
 3448TIP3    H231760   2.782   6.423  14.344 -0.1346 -0.7377 -3.2061
 3449TIP3   OH231761   5.108   6.619  15.002  0.0738  0.3723 -0.1148
 3449TIP3    H131762   5.191   6.603  14.958  0.0369  0.7121 -0.3133
 3449TIP3    H231763   5.046   6.560  14.958  0.4316 -0.6976  0.7791
 3450TIP3   OH231764   5.953   6.654  15.783 -0.0233  0.2390 -0.6030
 3450TIP3    H131765   6.012   6.581  15.804 -2.0936 -0.6350  3.3412
 3450TIP3    H231766   6.009   6.731  15.782  1.8013 -1.0143 -1.8116
 3451TIP3   OH231767   5.313   1.664   0.834 -0.0540 -0.1636 -0.2767
 3451TIP3    H131768   5.226   1.693   0.804 -0.3122 -0.8284 -0.1906
 3451TIP3    H231769   5.301   1.572   0.857  0.8031 -0.4114 -0.7636
 3452TIP3   OH231770   1.059   3.445   0.568  0.6915 -0.4148  0.4355
 3452TIP3    H131771   0.984   3.436   0.509  1.3634 -1.1733 -0.3425
 3452TIP3    H231772   1.128   3.481   0.512  0.9554  0.1278  1.1000
 3453TIP3   OH231773   3.741   0.981  13.809  0.2110  0.1856 -0.1118
 3453TIP3    H131774   3.770   0.926  13.881 -0.0070  0.2705  0.0415
 3453TIP3    H231775   3.689   0.923  13.754 -0.9329  0.4831  0.6141
 3454TIP3   OH231776   2.033   3.520   5.615  0.3625  0.0612  0.0594
 3454TIP3    H131777   2.057   3.467   5.691  0.3314  0.9233  0.6816
 3454TIP3    H231778   1.960   3.472   5.575  0.4202 -0.4326  0.5376
 3455TIP3   OH231779   3.208   0.294  15.751 -0.0969 -0.0485 -0.4209
 3455TIP3    H131780   3.254   0.283  15.834 -0.3514  1.8603  0.0070
 3455TIP3    H231781   3.178   0.206  15.728  0.4080 -0.6785  1.2450
 3456TIP3   OH231782   5.370   0.508   5.550 -0.1441  0.3953 -0.1589
 3456TIP3    H131783   5.323   0.579   5.505 -0.8403  0.6830  0.9732
 3456TIP3    H231784   5.462   0.535   5.549 -0.1369  0.3659 -1.4357
 3457TIP3   OH231785   5.877   4.922   0.416  0.4457  0.3923  0.0807
 3457TIP3    H131786   5.913   4.860   0.352  1.9672  1.6684 -0.3654
 3457TIP3    H231787   5.872   5.005   0.368 -1.0392  0.7602  0.8267
 3458TIP3   OH231788   0.470   5.112   2.135  0.8659  0.1747  0.1762
 3458TIP3    H131789   0.489   5.060   2.057 -0.6357 -0.9008  0.4995
 3458TIP3    H231790   0.400   5.171   2.109  2.2663  1.8072 -0.0619
 3459TIP3   OH231791   4.355   1.695   1.728 -0.1757  0.5342  0.1053
 3459TIP3    H131792   4.321   1.772   1.683 -2.5780  0.2076  1.2008
 3459TIP3    H231793   4.420   1.658   1.668  0.9307  3.2479 -0.5321
 3460TIP3   OH231794   2.156   5.702  13.825 -0.7182  0.4905  0.3775
 3460TIP3    H131795   2.140   5.675  13.916 -1.4488  0.3933  0.2227
 3460TIP3    H231796   2.249   5.726  13.824 -0.7754  0.7801  1.2205
 3461TIP3   OH231797   0.223   1.600  11.092  0.2823  0.1672 -0.2351
 3461TIP3    H131798   0.163   1.550  11.149 -0.7162  1.7765  0.1941
 3461TIP3    H231799   0.278   1.533  11.052 -0.9659 -1.2842  0.3375
 3462TIP3   OH231800   4.107   6.040  14.541 -1.3096  0.1899  0.1253
 3462TIP3    H131801   4.157   6.098  14.599  0.4518  0.0170 -1.1519
 3462TIP3    H231802   4.117   6.078  14.454 -1.0005 -1.4299 -0.5828
 3463TIP3   OH231803   3.353   2.338  12.169  0.1175 -0.0538  0.1151
 3463TIP3    H131804   3.330   2.269  12.107  2.7256 -0.9543  0.0094
 3463TIP3    H231805   3.410   2.294  12.232 -1.6022  1.0851  2.5915
 3464TIP3   OH231806   0.250   2.789   5.223  0.1921 -0.0790 -0.0241
 3464TIP3    H131807   0.332   2.765   5.180 -0.0875 -0.2470 -0.4689
 3464TIP3    H231808   0.235   2.721   5.289 -0.4248 -0.9600 -1.0493
 3465TIP3   OH231809   0.952   5.068  16.990  0.6802 -0.0149 -0.1255
 3465TIP3    H131810   0.866   5.061  16.949  0.7765  0.2195 -0.3663
 3465TIP3    H231811   0.943   5.140  17.053  0.7744  0.1922 -0.3446
 3466TIP3   OH231812   3.000   6.449  12.331  0.4288  0.0280  0.2123
 3466TIP3    H131813   2.926   6.392  12.310  1.1106 -1.0814  0.6991
 3466TIP3    H231814   3.006   6.445  12.427  0.2819  1.2051  0.2798
 3467TIP3   OH231815   4.989   2.794  12.017  0.2654 -0.1643  0.3056
 3467TIP3    H131816   4.968   2.772  12.107  0.5896 -0.5651  0.2896
 3467TIP3    H231817   4.908   2.826  11.980 -0.6491 -2.6686 -0.0752
 3468TIP3   OH231818   4.181   0.725  12.659 -0.2030  0.6005 -0.6469
 3468TIP3    H131819   4.216   0.671  12.589 -0.7846 -0.7885  0.0951
 3468TIP3    H231820   4.252   0.731  12.723 -0.6368 -0.6274 -0.0166
 3469TIP3   OH231821   4.141   0.214   2.509  0.1944  0.1891 -0.7328
 3469TIP3    H131822   4.049   0.216   2.483 -0.1747  0.1604  0.5160
 3469TIP3    H231823   4.163   0.121   2.514  0.6174  0.1952 -2.0658
 3470TIP3   OH231824   3.467   5.420  12.717  0.0487 -0.1546 -0.4766
 3470TIP3    H131825   3.563   5.411  12.719  0.0407 -0.2995  1.1901
 3470TIP3    H231826   3.438   5.354  12.654  0.9809 -1.1049  0.0480
 3471TIP3   OH231827   0.932   4.378   6.478 -0.3409 -0.2563 -0.2328
 3471TIP3    H131828   0.930   4.459   6.530  0.6110 -0.2850 -0.1218
 3471TIP3    H231829   1.023   4.372   6.449 -0.5480 -0.9802 -0.7420
 3472TIP3   OH231830   0.304   2.127   5.443 -0.4940 -0.3364 -0.8037
 3472TIP3    H131831   0.223   2.103   5.489 -0.7052 -0.3037 -1.1534
 3472TIP3    H231832   0.287   2.103   5.351 -0.4481  0.5137 -1.0374
 3473TIP3   OH231833   4.579   5.011  11.245  0.3561  0.5679 -0.2964
 3473TIP3    H131834   4.565   5.064  11.324 -0.8639 -2.3906  1.6367
 3473TIP3    H231835   4.674   5.001  11.241  0.4364  0.7115  0.8443
 3474TIP3   OH231836   2.544   5.372  12.472  0.0434  0.1448 -0.4364
 3474TIP3    H131837   2.611   5.342  12.533 -0.5990  0.4066  0.4099
 3474TIP3    H231838   2.538   5.301  12.408 -0.1633 -0.7264  0.5127
 3475TIP3   OH231839   6.527   2.677   2.737 -0.4987  0.2652 -0.4049
 3475TIP3    H131840   6.490   2.589   2.738 -1.7252  0.7526  1.0883
 3475TIP3    H231841   6.599   2.674   2.800  1.9575 -0.5746 -3.0183
 3476TIP3   OH231842   5.168   6.732   1.504  0.3109 -0.2063  0.5666
 3476TIP3    H131843   5.234   6.730   1.573  0.2095 -2.1213  0.6697
 3476TIP3    H231844   5.178   6.648   1.459 -2.2926 -0.7406  0.8280
 3477TIP3   OH231845   3.661   0.894  14.170  0.0417 -0.4260  0.2857
 3477TIP3    H131846   3.585   0.846  14.137  0.2566  0.8493 -2.3377
 3477TIP3    H231847   3.736   0.854  14.126  0.5121  0.4248  0.2785
 3478TIP3   OH231848   3.882   1.248  14.762  0.0516  0.2560  0.4595
 3478TIP3    H131849   3.826   1.170  14.771  0.6314 -0.2826 -0.4637
 3478TIP3    H231850   3.856   1.286  14.678  0.4567  0.5053  0.4458
 3479TIP3   OH231851   2.524   6.191  16.605  0.0917  0.0387  0.2510
 3479TIP3    H131852   2.483   6.112  16.569 -1.7995  1.1710 -0.1982
 3479TIP3    H231853   2.546   6.243  16.528 -1.2393  1.1609  0.5929
 3480TIP3   OH231854   2.098   1.814   2.622  0.1002 -0.2301 -0.5801
 3480TIP3    H131855   2.081   1.766   2.541 -0.3106 -1.9353  0.4856
 3480TIP3    H231856   2.190   1.839   2.615  0.0835 -0.3754 -1.5554
 3481TIP3   OH231857   2.199   2.563  16.963 -0.2310  0.7317 -0.2908
 3481TIP3    H131858   2.118   2.554  17.014 -1.6067 -0.5945 -2.5011
 3481TIP3    H231859   2.241   2.477  16.970  1.5464  1.6707  1.5631
 3482TIP3   OH231860   2.132   6.329   0.810 -0.9357  0.2525 -0.1219
 3482TIP3    H131861   2.223   6.307   0.791 -0.8833 -2.3071  2.3955
 3482TIP3    H231862   2.081   6.262   0.765 -1.4903  0.7692 -0.2809
 3483TIP3   OH231863   0.837   4.639   2.398 -0.1363 -0.2920 -0.5938
 3483TIP3    H131864   0.830   4.698   2.473  0.2920  1.0778 -1.5657
 3483TIP3    H231865   0.916   4.670   2.352  0.0623 -1.6121 -1.1716
 3484TIP3   OH231866   0.992   5.624  13.351  0.1702  0.2984 -0.0482
 3484TIP3    H131867   1.065   5.679  13.379  0.5702 -0.0574 -0.3858
 3484TIP3    H231868   1.008   5.608  13.258  0.0634 -0.3931  0.0507
 3485TIP3   OH231869   5.231   2.647   5.910  0.0085 -0.0308  0.0370
 3485TIP3    H131870   5.310   2.635   5.961 -0.2311  0.3864  0.5147
 3485TIP3    H231871   5.250   2.722   5.853 -0.3092  0.5795  0.7115
 3486TIP3   OH231872   3.147   2.411  14.952  0.2690  0.4042 -0.7362
 3486TIP3    H131873   3.071   2.409  14.895  0.0863  0.3090 -0.4895
 3486TIP3    H231874   3.125   2.351  15.024  0.4308  0.6463 -0.4818
 3487TIP3   OH231875   0.350   5.565  14.818  0.0023  0.2312 -0.1133
 3487TIP3    H131876   0.361   5.585  14.725 -1.2418  0.1141 -0.3122
 3487TIP3    H231877   0.406   5.489  14.834  0.6849  0.6201 -0.6190
 3488TIP3   OH231878   1.429   2.503   5.110  0.6490 -0.8221  0.2279
 3488TIP3    H131879   1.347   2.532   5.068 -0.0474 -0.8736  1.5225
 3488TIP3    H231880   1.495   2.516   5.042 -0.4880 -1.1904 -1.0094
 3489TIP3   OH231881   3.280   0.251   6.132 -0.8406  0.1369  0.1346
 3489TIP3    H131882   3.207   0.230   6.190 -0.7555 -0.5286  0.0050
 3489TIP3    H231883   3.344   0.294   6.188  1.3292 -4.5978  1.7244
 3490TIP3   OH231884   0.640   0.185  13.580 -0.4682 -0.6816  0.0453
 3490TIP3    H131885   0.644   0.265  13.632  1.6891  0.6600 -1.9604
 3490TIP3    H231886   0.634   0.216  13.489 -0.9036 -2.8277 -0.7163
 3491TIP3   OH231887   3.103   4.904  15.877 -0.4421 -0.3553  0.0026
 3491TIP3    H131888   3.011   4.891  15.898 -0.4057 -0.4326  0.1141
 3491TIP3    H231889   3.130   4.821  15.837  0.1649 -1.1679  2.0094
 3492TIP3   OH231890   5.305   6.551  13.158  0.3910 -0.3359 -0.9526
 3492TIP3    H131891   5.351   6.495  13.220 -2.4186 -1.3770  0.3507
 3492TIP3    H231892   5.270   6.491  13.093 -2.2972 -0.1822  0.2288
 3493TIP3   OH231893   0.421   1.567  14.301 -0.0234 -0.2943 -0.1757
 3493TIP3    H131894   0.360   1.600  14.367 -1.4079 -0.1246 -1.5022
 3493TIP3    H231895   0.436   1.642  14.243  1.9343 -0.1531  0.4380
 3494TIP3   OH231896   2.789   2.416  15.814 -0.3507  0.0709 -0.1143
 3494TIP3    H131897   2.799   2.322  15.832 -2.0162 -0.1906 -0.3991
 3494TIP3    H231898   2.768   2.454  15.899  3.5875  0.8123  0.7389
 3495TIP3   OH231899   2.559   0.690   0.665  0.1594  0.4551  0.0116
 3495TIP3    H131900   2.584   0.621   0.604 -0.3930  2.4832 -2.6813
 3495TIP3    H231901   2.465   0.678   0.679  0.6181 -1.1749  2.1453
 3496TIP3   OH231902   0.372   4.784   4.532  0.7003  0.2100 -0.2613
 3496TIP3    H131903   0.333   4.775   4.445 -0.0834  0.2879  0.0707
 3496TIP3    H231904   0.405   4.873   4.534 -4.0612  2.2890  1.3255
 3497TIP3   OH231905   1.178   5.648   5.562  0.5870  0.0948  0.2986
 3497TIP3    H131906   1.156   5.631   5.471  0.8316 -1.4309  0.4895
 3497TIP3    H231907   1.105   5.609   5.611  0.5784  0.6843  0.7648
 3498TIP3   OH231908   2.318   1.815   0.165 -0.2591 -0.1612 -0.3749
 3498TIP3    H131909   2.337   1.881   0.098  1.1613  0.1009  0.2729
 3498TIP3    H231910   2.258   1.859   0.225  0.3224  0.4064 -0.1933
 3499TIP3   OH231911   1.366   1.109   3.473  0.1916 -0.3691  0.0364
 3499TIP3    H131912   1.305   1.147   3.537 -0.4459 -0.0866 -0.7226
 3499TIP3    H231913   1.407   1.185   3.431 -0.8202 -0.4974 -1.2325
 3500TIP3   OH231914   5.319   3.949   5.934 -0.0555  0.1530 -0.1251
 3500TIP3    H131915   5.303   3.970   6.026 -0.8953 -1.2286  0.0725
 3500TIP3    H231916   5.400   3.897   5.935 -0.7743 -0.9993  0.0170
 3501TIP3   OH231917   2.076   6.423  15.019  0.0919 -0.2191 -0.4208
 3501TIP3    H131918   2.127   6.504  15.016 -0.6061  0.2717  0.4513
 3501TIP3    H231919   2.139   6.357  15.048  0.3963  0.2393 -0.0116
 3502TIP3   OH231920   6.724   2.967  16.340 -0.1110  0.6402 -0.4965
 3502TIP3    H131921   6.806   2.920  16.328  0.7277  2.0970 -0.6803
 3502TIP3    H231922   6.722   2.990  16.433 -0.3208  0.5813 -0.4864
 3503TIP3   OH231923   6.140   1.427  15.381  0.1874 -0.3818  0.1240
 3503TIP3    H131924   6.098   1.497  15.331  0.7545 -0.5580 -0.6205
 3503TIP3    H231925   6.225   1.464  15.406  0.2174 -0.5719  0.3099
 3504TIP3   OH231926   6.005   4.363  12.932  0.2020  0.1054 -0.1909
 3504TIP3    H131927   5.911   4.349  12.924  0.0870 -0.8084  1.9682
 3504TIP3    H231928   6.044   4.294  12.877 -0.3956 -0.0574 -0.4142
 3505TIP3   OH231929   3.810   6.676  14.648  0.8308  0.3996 -0.0106
 3505TIP3    H131930   3.789   6.720  14.565 -2.6220 -0.6451  0.1513
 3505TIP3    H231931   3.781   6.737  14.715 -0.8647 -0.6543  0.2695
 3506TIP3   OH231932   0.570   6.663   5.758 -0.7111 -0.4176  0.0007
 3506TIP3    H131933   0.619   6.624   5.685 -2.1364  0.2616 -1.3658
 3506TIP3    H231934   0.636   6.707   5.811  0.4657 -1.6524 -0.3918
 3507TIP3   OH231935   1.159   5.062   5.578 -0.2805 -0.1654 -0.6402
 3507TIP3    H131936   1.198   4.993   5.632 -0.8078 -1.3370 -1.6987
 3507TIP3    H231937   1.204   5.054   5.494 -0.5519  0.6233 -0.8693
 3508TIP3   OH231938   0.351   2.773  17.430  0.1372  0.4646  0.0703
 3508TIP3    H131939   0.266   2.735  17.407  0.4826  1.1636 -2.7606
 3508TIP3    H231940   0.329   2.857  17.470 -0.4966 -0.2250  1.2381
 3509TIP3   OH231941   4.708   0.551   4.061 -0.0779  0.0806  0.6932
 3509TIP3    H131942   4.781   0.505   4.103 -0.2451 -0.9078 -0.0346
 3509TIP3    H231943   4.671   0.606   4.130  0.5636 -0.3703  1.4186
 3510TIP3   OH231944   3.270   5.120   2.871 -0.8408 -0.4315 -0.0434
 3510TIP3    H131945   3.295   5.191   2.929 -1.6309 -0.5623  0.4668
 3510TIP3    H231946   3.182   5.142   2.841 -1.4940 -1.6483  0.8724
 3511TIP3   OH231947   0.179   5.798  12.258  0.2398 -0.5883  0.2919
 3511TIP3    H131948   0.139   5.787  12.344  1.2850 -0.1468  0.8529
 3511TIP3    H231949   0.245   5.866  12.271  0.6620 -0.7832 -0.7750
 3512TIP3   OH231950   6.497   2.588  16.166 -0.0681 -0.0713  0.2910
 3512TIP3    H131951   6.515   2.615  16.076 -0.6902  1.0340  0.4858
 3512TIP3    H231952   6.417   2.536  16.160  0.2341 -0.5306  0.1366
 3513TIP3   OH231953   5.786   5.359  13.151  0.6952  0.1757 -0.4492
 3513TIP3    H131954   5.823   5.292  13.209 -0.2605  0.6452  0.7697
 3513TIP3    H231955   5.720   5.312  13.100  1.8510 -0.3361 -1.5213
 3514TIP3   OH231956   1.447   4.031  11.754 -0.4653 -0.5488 -0.3682
 3514TIP3    H131957   1.372   3.987  11.715 -0.4633 -1.4662  0.6020
 3514TIP3    H231958   1.425   4.037  11.847  0.0312  0.5132 -0.3010
 3515TIP3   OH231959   6.195   1.879   4.397 -0.1440 -0.7635  0.6061
 3515TIP3    H131960   6.166   1.946   4.459  2.3176  2.1310 -1.1049
 3515TIP3    H231961   6.144   1.897   4.318  1.6210  0.2924 -0.3755
 3516TIP3   OH231962   2.735   4.375   0.260  1.0089  0.0138  0.4677
 3516TIP3    H131963   2.735   4.470   0.244 -0.3802  0.2230  1.4594
 3516TIP3    H231964   2.811   4.342   0.213  0.7466  1.4317 -1.0374
 3517TIP3   OH231965   4.209   3.236  15.541  0.2218  0.4594 -0.1744
 3517TIP3    H131966   4.123   3.200  15.564 -0.8319  1.7525 -1.8356
 3517TIP3    H231967   4.234   3.189  15.461 -0.2513  1.9365 -1.2365
 3518TIP3   OH231968   5.941   4.779   0.186  0.4805 -0.0775  0.3249
 3518TIP3    H131969   5.937   4.858   0.133 -1.0776 -1.2691 -1.4723
 3518TIP3    H231970   5.927   4.708   0.123 -0.7082 -1.6249  2.2377
 3519TIP3   OH231971   0.541   1.240   2.736  0.1464 -0.2823 -0.4252
 3519TIP3    H131972   0.555   1.155   2.778 -3.0041 -1.1726 -0.8884
 3519TIP3    H231973   0.563   1.304   2.803 -0.8977 -1.5776  1.2509
 3520TIP3   OH231974   6.392   3.545  15.829 -0.2416  0.7217 -0.1844
 3520TIP3    H131975   6.419   3.618  15.773 -1.1511  0.4436 -0.9941
 3520TIP3    H231976   6.355   3.480  15.770  0.0602 -0.1851  0.5895
 3521TIP3   OH231977   5.816   1.811   4.287 -0.3887 -0.4407 -0.2328
 3521TIP3    H131978   5.803   1.739   4.349  0.9825 -1.2725 -0.8730
 3521TIP3    H231979   5.860   1.771   4.212  0.3596  1.0528 -0.6298
 3522TIP3   OH231980   5.645   5.378  12.105 -0.0440 -0.0013  0.2654
 3522TIP3    H131981   5.631   5.376  12.199 -1.4579  2.3946  0.1703
 3522TIP3    H231982   5.730   5.419  12.094  0.6732 -1.3601  0.4734
 3523TIP3   OH231983   5.551   5.263  17.279 -0.3227 -0.5550  0.0071
 3523TIP3    H131984   5.501   5.325  17.331  1.4571  0.0501  1.0916
 3523TIP3    H231985   5.510   5.266  17.192  0.0000  2.6067 -0.1641
 3524TIP3   OH231986   4.133   0.060  14.809  0.3476  0.4736 -0.7143
 3524TIP3    H131987   4.145   0.155  14.805  0.6456  0.5649  1.3396
 3524TIP3    H231988   4.074   0.040  14.737 -2.0154  2.6273  0.4951
 3525TIP3   OH231989   4.456   6.476   3.718  0.1930 -0.2516  0.4796
 3525TIP3    H131990   4.368   6.462   3.755 -0.1127 -0.4158 -0.2859
 3525TIP3    H231991   4.451   6.561   3.675  0.1712 -0.5919 -0.2104
 3526TIP3   OH231992   3.986   4.059   0.162 -0.3789 -0.1809  0.0517
 3526TIP3    H131993   4.044   4.130   0.136 -0.7669  0.0221 -0.2714
 3526TIP3    H231994   4.027   4.021   0.239  1.5259 -1.6891 -1.6198
 3527TIP3   OH231995   5.297   2.657   4.004 -0.0702  0.1968  0.3623
 3527TIP3    H131996   5.383   2.696   4.018 -0.2206  0.5047  0.4236
 3527TIP3    H231997   5.284   2.663   3.909  0.0763 -0.0628  0.3248
 3528TIP3   OH231998   2.847   5.635  15.446 -0.2350  0.1270  0.2501
 3528TIP3    H131999   2.787   5.580  15.396  0.1725 -0.5882  0.5301
 3528TIP3    H232000   2.873   5.580  15.521  0.6064  0.4914  0.2403
 3529TIP3   OH232001   4.572   0.474  11.732  0.1818  0.0497 -0.1370
 3529TIP3    H132002   4.538   0.471  11.642 -0.2048  4.1887 -0.3061
 3529TIP3    H232003   4.663   0.446  11.724 -0.3467 -1.5110 -1.4049
 3530TIP3   OH232004   4.714   4.822   0.135 -0.2816  0.3538  0.1211
 3530TIP3    H132005   4.729   4.837   0.042  0.4441 -0.1619  0.1486
 3530TIP3    H232006   4.706   4.910   0.173 -1.1429  0.5548 -0.5072
 3531TIP3   OH232007   0.166   1.539   4.268 -0.2809  0.4169  0.7199
 3531TIP3    H132008   0.120   1.522   4.350 -1.0746 -2.1420 -0.1589
 3531TIP3    H232009   0.255   1.505   4.282 -0.8264 -1.3767  0.1341
 3532TIP3   OH232010   4.063   1.295   1.849  0.0431 -0.3977  0.2243
 3532TIP3    H132011   3.997   1.250   1.796  0.8563  0.6267 -1.7561
 3532TIP3    H232012   4.063   1.385   1.816  2.1194 -0.2769  0.4403
 3533TIP3   OH232013   0.588   2.923  16.719 -0.8039  0.2992 -0.3565
 3533TIP3    H132014   0.624   2.874  16.645  0.2463  1.4240 -0.6231
 3533TIP3    H232015   0.506   2.879  16.739  0.8812 -2.6836  0.5599
 3534TIP3   OH232016   4.526   1.693   4.650 -0.0552  0.1022 -0.4649
 3534TIP3    H132017   4.554   1.775   4.690 -0.4080  0.1186 -0.2452
 3534TIP3    H232018   4.543   1.627   4.718  0.0527  0.0208 -0.5707
 3535TIP3   OH232019   0.583   4.439  14.020  0.7827  0.2350 -0.4558
 3535TIP3    H132020   0.526   4.380  13.971  0.5332  0.5150 -0.5089
 3535TIP3    H232021   0.603   4.392  14.101  0.2120  0.2602 -0.2938
 3536TIP3   OH232022   1.125   3.509  11.820 -0.6875 -0.7779 -0.5758
 3536TIP3    H132023   1.199   3.511  11.881 -0.5711 -2.2171 -0.6476
 3536TIP3    H232024   1.060   3.568  11.859  0.1566 -0.1534 -0.0862
 3537TIP3   OH232025   2.938   2.096  14.130 -0.4687  0.0807 -0.1637
 3537TIP3    H132026   2.931   2.007  14.097 -0.1475 -0.6862  1.6746
 3537TIP3    H232027   3.021   2.097  14.179 -1.8661  0.4441  2.3674
 3538TIP3   OH232028   3.866   2.791  10.671  0.5789 -0.4616  0.0639
 3538TIP3    H132029   3.916   2.779  10.752  0.0110  0.5153  0.5800
 3538TIP3    H232030   3.918   2.853  10.620 -0.1706  0.7434  0.7033
 3539TIP3   OH232031   5.279   4.433  12.175 -0.4818  0.5593 -0.0247
 3539TIP3    H132032   5.226   4.411  12.099 -0.4628  0.3848  0.0111
 3539TIP3    H232033   5.288   4.350  12.222  1.3897  0.1644 -0.9933
 3540TIP3   OH232034   1.574   3.327  13.378 -0.5822  0.5304  0.5698
 3540TIP3    H132035   1.481   3.324  13.403 -0.5910  1.2907  0.6450
 3540TIP3    H232036   1.579   3.272  13.300 -0.6638 -1.3710  1.8523
 3541TIP3   OH232037   2.311   0.348  13.030 -0.4306  0.2833 -0.1664
 3541TIP3    H132038   2.337   0.440  13.024 -0.5442  0.2485 -1.6002
 3541TIP3    H232039   2.259   0.333  12.951  0.0605 -1.1625 -0.2419
 3542TIP3   OH232040   4.472   6.172   2.200  0.0164  0.2617 -0.0470
 3542TIP3    H132041   4.466   6.242   2.265  1.0825  0.0327  0.3103
 3542TIP3    H232042   4.547   6.120   2.227  0.9937  0.6171 -1.9106
 3543TIP3   OH232043   5.710   2.899  13.787 -0.1062  0.3438  0.0386
 3543TIP3    H132044   5.636   2.861  13.741  0.1190  0.4630 -0.4261
 3543TIP3    H232045   5.701   2.994  13.773  0.1271  0.3597 -0.0108
 3544TIP3   OH232046   1.348   5.243  12.435 -0.5660  0.2628  0.1216
 3544TIP3    H132047   1.255   5.223  12.441 -0.5057 -0.4868 -1.1505
 3544TIP3    H232048   1.392   5.159  12.451 -0.1173  0.5101  0.2215
 3545TIP3   OH232049   2.580   5.717  16.482 -0.7446 -0.0070  0.2836
 3545TIP3    H132050   2.485   5.706  16.487 -0.9758  0.9636 -1.2987
 3545TIP3    H232051   2.606   5.669  16.403 -0.1061  0.7342  0.0247
 3546TIP3   OH232052   1.882   3.120  16.314  0.0440  0.0514 -0.8363
 3546TIP3    H132053   1.883   3.117  16.218  0.1303  1.2773 -0.8925
 3546TIP3    H232054   1.968   3.089  16.340  0.1442  0.0387 -1.1731
 3547TIP3   OH232055   3.124   0.237   5.895  0.7260  0.3137 -0.5577
 3547TIP3    H132056   3.199   0.228   5.954  2.0728 -2.4895 -2.4585
 3547TIP3    H232057   3.050   0.255   5.953  1.5351 -4.1871  2.4044
 3548TIP3   OH232058   4.416   2.512  14.809 -0.5850  0.2276  0.3707
 3548TIP3    H132059   4.437   2.600  14.778 -0.3775  0.1349  0.2483
 3548TIP3    H232060   4.493   2.486  14.861  0.3374 -0.7496 -1.4048
 3549TIP3   OH232061   1.299   5.183   3.956  0.2895  0.3464 -0.1117
 3549TIP3    H132062   1.277   5.122   3.885  2.6336 -0.4305 -0.2344
 3549TIP3    H232063   1.349   5.131   4.018  0.4973  1.6587  0.8543
 3550TIP3   OH232064   2.466   0.735  14.667  0.3355 -0.0545 -0.1860
 3550TIP3    H132065   2.397   0.754  14.731  1.0539  0.6944  0.3830
 3550TIP3    H232066   2.516   0.816  14.661  0.6462 -0.3109 -1.2600
 3551TIP3   OH232067   2.200   4.855   5.685 -0.0572 -0.4976  0.0095
 3551TIP3    H132068   2.231   4.769   5.656  0.9626 -0.0060 -0.4033
 3551TIP3    H232069   2.150   4.837   5.764 -2.0765 -1.7850 -1.4535
 3552TIP3   OH232070   5.896   3.826  11.358 -0.2308 -0.3774 -0.1970
 3552TIP3    H132071   5.977   3.825  11.307 -0.8844  2.1438 -1.4287
 3552TIP3    H232072   5.834   3.774  11.308  0.1613 -0.9347 -0.1014
 3553TIP3   OH232073   0.704   0.969   5.230 -0.3729 -0.1209  0.7637
 3553TIP3    H132074   0.609   0.959   5.240 -0.3684 -1.3010 -0.1363
 3553TIP3    H232075   0.723   1.054   5.270 -1.8765  0.3429  0.5903
 3554TIP3   OH232076   6.031   1.261   2.214  0.3885  0.3702 -0.1331
 3554TIP3    H132077   5.958   1.203   2.235  0.6374 -0.6670 -1.9133
 3554TIP3    H232078   5.998   1.318   2.144  0.6471  1.3245  0.4958
 3555TIP3   OH232079   5.706   0.936   0.591  0.0898  0.2915  0.2728
 3555TIP3    H132080   5.777   0.962   0.650 -0.4914  2.7073  0.0217
 3555TIP3    H232081   5.694   0.843   0.608  1.1996  0.4843  2.5984
 3556TIP3   OH232082   3.468   5.603   3.712  0.3651  0.1202  0.2204
 3556TIP3    H132083   3.399   5.657   3.674 -0.3367  0.1671  1.5066
 3556TIP3    H232084   3.549   5.636   3.672 -0.3598 -0.2291 -1.6350
 3557TIP3   OH232085   1.719   1.065   2.131 -0.3523 -0.0732 -0.4656
 3557TIP3    H132086   1.810   1.090   2.116 -0.1423 -0.6804 -0.1997
 3557TIP3    H232087   1.711   1.062   2.227 -0.6608 -0.0023 -0.4880
 3558TIP3   OH232088   4.323   2.845  13.273  0.3374 -0.5138 -0.7885
 3558TIP3    H132089   4.361   2.850  13.185  0.8259 -1.1314 -0.6186
 3558TIP3    H232090   4.230   2.863  13.260  0.7677  1.7063 -1.1174
 3559TIP3   OH232091   5.071   0.480  14.521  0.0160  0.3944  0.0457
 3559TIP3    H132092   5.060   0.563  14.567  0.7298  0.8138 -0.5354
 3559TIP3    H232093   5.165   0.474  14.503  0.0044 -0.6346  0.2537
 3560TIP3   OH232094   6.214   4.611   0.937  0.2163  0.5684 -0.0277
 3560TIP3    H132095   6.122   4.632   0.923  0.0458  0.2975  0.6299
 3560TIP3    H232096   6.262   4.669   0.878 -0.4253 -0.1753 -1.3171
 3561TIP3   OH232097   2.826   1.828   1.431  0.2343  0.1080  0.1221
 3561TIP3    H132098   2.818   1.913   1.474  1.2532  0.5116 -0.4635
 3561TIP3    H232099   2.873   1.846   1.350 -2.3373 -0.4984 -1.6502
 3562TIP3   OH232100   5.548   0.822  14.611 -0.4420 -0.0939 -0.2075
 3562TIP3    H132101   5.495   0.853  14.684  2.1465  0.0159  1.7625
 3562TIP3    H232102   5.578   0.902  14.567 -0.6442 -0.1113 -0.3808
 3563TIP3   OH232103   4.041   1.902  12.328  0.1894  0.0088 -0.1794
 3563TIP3    H132104   4.006   1.839  12.265  0.4009 -0.2808 -0.0116
 3563TIP3    H232105   4.128   1.924  12.294 -0.1974  0.8294 -0.6687
 3564TIP3   OH232106   2.360   3.232   5.668 -0.0451  0.2926 -0.0451
 3564TIP3    H132107   2.409   3.156   5.699  0.8337  0.7797 -0.2200
 3564TIP3    H232108   2.295   3.248   5.736 -0.0758 -0.4614  0.1127
 3565TIP3   OH232109   1.641   2.196  17.184  0.5670 -0.0207  0.0809
 3565TIP3    H132110   1.625   2.112  17.225 -1.6276  1.3082  2.2088
 3565TIP3    H232111   1.688   2.246  17.250 -0.8446  1.3719  0.0960
 3566TIP3   OH232112   1.467   6.584   0.856 -0.6323  0.2149 -0.2781
 3566TIP3    H132113   1.537   6.586   0.921 -1.0348  0.3854  0.1592
 3566TIP3    H232114   1.460   6.492   0.831 -0.5914  0.1197  0.0554
 3567TIP3   OH232115   4.321   5.738  14.306  0.0055 -0.0594 -0.5115
 3567TIP3    H132116   4.269   5.657  14.306  0.1906 -0.1779 -0.6171
 3567TIP3    H232117   4.393   5.720  14.245  0.6556 -0.2061  0.2847
 3568TIP3   OH232118   0.398   3.900   1.094  0.0059 -0.2555 -0.1179
 3568TIP3    H132119   0.348   3.819   1.090 -0.3788 -0.0730  0.7903
 3568TIP3    H232120   0.484   3.877   1.057 -0.6750 -0.6055 -1.5480
 3569TIP3   OH232121   5.422   0.430   5.919  0.9061  0.4089  0.2247
 3569TIP3    H132122   5.374   0.513   5.919  0.4497  0.1977  2.5064
 3569TIP3    H232123   5.368   0.371   5.867 -0.7918  0.4743  1.8490
 3570TIP3   OH232124   2.931   2.668  10.700  0.5196  0.4575  0.4812
 3570TIP3    H132125   2.854   2.718  10.727  1.0464  0.8646  1.2649
 3570TIP3    H232126   2.985   2.731  10.653  0.9528  0.5040  1.0335
 3571TIP3   OH232127   3.782   3.633  16.918  0.4179 -0.1412 -0.3258
 3571TIP3    H132128   3.753   3.722  16.936  0.1901  0.0911 -1.7759
 3571TIP3    H232129   3.827   3.639  16.834  0.9841 -1.2780 -0.1224
 3572TIP3   OH232130   4.901   0.324   6.418 -0.2995  0.0303  0.1237
 3572TIP3    H132131   4.858   0.409   6.418 -1.8858 -0.7182 -0.9250
 3572TIP3    H232132   4.965   0.329   6.347  2.0753  1.4357  2.2313
 3573TIP3   OH232133   3.918   1.461   2.223  0.0494  0.2177  0.2070
 3573TIP3    H132134   3.934   1.486   2.314 -0.1792 -1.5447  0.7707
 3573TIP3    H232135   3.978   1.516   2.172 -0.1421  1.5617  1.3512
 3574TIP3   OH232136   5.142   0.663  11.226  0.0296 -0.2503 -0.0489
 3574TIP3    H132137   5.167   0.658  11.134  2.3222 -0.2493  0.5233
 3574TIP3    H232138   5.148   0.574  11.259  0.9456  0.0053  0.5040
 3575TIP3   OH232139   2.599   2.171  13.573 -0.3486  0.1373 -0.2236
 3575TIP3    H132140   2.691   2.155  13.591  0.1137  1.2527 -1.4221
 3575TIP3    H232141   2.573   2.238  13.636 -0.0802  0.4753 -0.4673
 3576TIP3   OH232142   5.530   2.658   0.580 -0.1234  0.0457  0.1117
 3576TIP3    H132143   5.547   2.727   0.643  0.1965  1.9811 -1.9578
 3576TIP3    H232144   5.533   2.702   0.495 -0.0927 -2.4925 -1.3021
 3577TIP3   OH232145   2.582   0.846   2.385 -1.2093 -0.4325 -0.1239
 3577TIP3    H132146   2.526   0.912   2.345 -0.6037  0.1253 -0.0874
 3577TIP3    H232147   2.525   0.799   2.445 -1.3213  1.1257  1.0643
 3578TIP3   OH232148   4.025   0.798   1.424 -0.0721 -0.3628 -0.2284
 3578TIP3    H132149   4.109   0.763   1.393 -0.5946 -1.6836 -0.2306
 3578TIP3    H232150   3.990   0.846   1.349  1.5735  1.9648  0.4018
 3579TIP3   OH232151   5.169   6.220  11.603  0.4913 -0.0397  0.2735
 3579TIP3    H132152   5.243   6.160  11.591  0.7943 -0.0011  1.7373
 3579TIP3    H232153   5.133   6.231  11.515  0.9708 -1.6532 -0.1620
 3580TIP3   OH232154   4.528   6.318  16.301 -0.0111 -0.2257  0.2659
 3580TIP3    H132155   4.615   6.282  16.282  1.0417  1.9869  0.5825
 3580TIP3    H232156   4.502   6.363  16.220 -0.9558 -0.9626  0.1348
 3581TIP3   OH232157   3.531   3.015  15.235  0.5112 -0.0644 -0.1061
 3581TIP3    H132158   3.477   3.075  15.183  0.6767  0.3629  0.2122
 3581TIP3    H232159   3.528   2.933  15.186  0.4101  0.2444 -0.6300
 3582TIP3   OH232160   5.577   4.778   2.724 -0.3015 -0.0537  0.0082
 3582TIP3    H132161   5.558   4.809   2.636 -1.7948  0.7640  0.5901
 3582TIP3    H232162   5.643   4.839   2.757 -1.6206  1.2332  0.3576
 3583TIP3   OH232163   0.896   0.809   1.110  0.4771 -0.2571 -0.2699
 3583TIP3    H132164   0.991   0.815   1.113  0.4846  0.5765 -1.5182
 3583TIP3    H232165   0.865   0.878   1.169  0.6559  0.3814 -0.9070
 3584TIP3   OH232166   1.871   6.268   2.786  0.5278 -0.7003  0.1139
 3584TIP3    H132167   1.836   6.355   2.767 -0.8338 -1.0627  0.8400
 3584TIP3    H232168   1.890   6.231   2.699  0.3916  0.0200 -0.2338
 3585TIP3   OH232169   5.388   2.143   6.647  0.0893  0.5055  0.3383
 3585TIP3    H132170   5.482   2.130   6.631  0.2890  3.5636 -1.9282
 3585TIP3    H232171   5.347   2.065   6.610  1.6530 -0.3425  0.2682
 3586TIP3   OH232172   6.483   5.012  11.913  0.3710  0.6820  0.1654
 3586TIP3    H132173   6.512   4.981  11.999 -2.4781 -1.4156  0.5089
 3586TIP3    H232174   6.542   4.967  11.852  0.6856 -0.0041  0.9441
 3587TIP3   OH232175   5.615   4.777   5.800  0.7478  0.7100  0.3762
 3587TIP3    H132176   5.535   4.729   5.823 -0.2025  2.0133 -0.0579
 3587TIP3    H232177   5.686   4.725   5.837 -0.2853 -0.6005  0.5928
 3588TIP3   OH232178   3.782   6.528  12.604 -0.1047 -0.8011 -0.8127
 3588TIP3    H132179   3.709   6.584  12.631  0.1010 -0.3215 -1.2413
 3588TIP3    H232180   3.743   6.441  12.596 -0.3928 -0.7597  0.0009
 3589TIP3   OH232181   3.815   6.342  12.910  0.0380  0.2428 -0.1742
 3589TIP3    H132182   3.884   6.389  12.865 -0.5931 -0.9368 -2.5591
 3589TIP3    H232183   3.740   6.348  12.850 -2.1643  1.9265  2.5274
 3590TIP3   OH232184   2.758   3.021  14.349  0.7431  0.7906 -0.4589
 3590TIP3    H132185   2.710   2.971  14.415 -1.0268  0.0388 -2.2189
 3590TIP3    H232186   2.770   3.107  14.390 -1.2639  0.6979  0.4775
 3591TIP3   OH232187   2.795   6.312   4.779 -0.5727 -0.2677  0.3855
 3591TIP3    H132188   2.721   6.293   4.721 -0.7811 -0.3536  0.6748
 3591TIP3    H232189   2.765   6.286   4.866 -0.6420  0.8406  0.7076
 3592TIP3   OH232190   5.388   0.620   4.405 -0.1162  0.0822  0.3012
 3592TIP3    H132191   5.406   0.672   4.326  1.6803 -1.0252 -0.0859
 3592TIP3    H232192   5.297   0.592   4.395  0.0127  0.1057 -1.3249
 3593TIP3   OH232193   2.853   0.778  12.580 -0.0091 -0.0803  0.3712
 3593TIP3    H132194   2.847   0.820  12.666  0.4595 -1.4391  1.0964
 3593TIP3    H232195   2.942   0.797  12.551 -0.1841  0.4233  0.1587
 3594TIP3   OH232196   2.481   4.889   6.697  0.2659  0.0983  0.2110
 3594TIP3    H132197   2.484   4.981   6.722 -1.3915  0.3728 -0.4714
 3594TIP3    H232198   2.495   4.889   6.602  3.0665 -0.6364  0.5346
 3595TIP3   OH232199   1.667   1.263   1.460 -0.2295  0.3814  0.0757
 3595TIP3    H132200   1.756   1.229   1.466 -0.1056  0.7762  0.5233
 3595TIP3    H232201   1.669   1.323   1.386 -0.0250  0.6810  0.3230
 3596TIP3   OH232202   6.091   3.053  11.973 -0.0516  0.0156  0.4872
 3596TIP3    H132203   6.094   2.993  11.899 -0.5180  0.0029  0.4737
 3596TIP3    H232204   6.182   3.062  12.001  0.2583  0.7275 -0.6543
 3597TIP3   OH232205   1.334   5.799   0.085  0.0446  0.5869 -0.8658
 3597TIP3    H132206   1.304   5.807  -0.005 -1.8104  1.4771 -0.2185
 3597TIP3    H232207   1.338   5.705   0.101 -1.4935  0.4280 -1.3026
 3598TIP3   OH232208   3.988   5.300   4.916 -0.0381  0.8835 -0.4276
 3598TIP3    H132209   4.008   5.244   4.991  0.2200  0.7410 -0.6016
 3598TIP3    H232210   3.904   5.341   4.938  1.0105  2.4626  0.8989
 3599TIP3   OH232211   3.352   6.687  12.372  0.1994 -0.2099 -0.4569
 3599TIP3    H132212   3.347   6.774  12.413 -0.3701 -1.0581  1.3852
 3599TIP3    H232213   3.436   6.687  12.327 -0.0006  1.4585 -0.9234
 3600TIP3   OH232214   6.309   2.499  12.713 -0.0808 -0.4722  0.0452
 3600TIP3    H132215   6.259   2.460  12.641 -1.1977  1.4263 -0.2748
 3600TIP3    H232216   6.244   2.517  12.780  0.5963 -0.2729  0.6558
 3601TIP3   OH232217   2.815   6.553   5.053 -0.6480  0.3099 -0.6399
 3601TIP3    H132218   2.748   6.526   5.116  0.1882  0.2782  0.2422
 3601TIP3    H232219   2.898   6.528   5.093 -0.1331 -0.6363 -2.1872
 3602TIP3   OH232220   1.609   5.734  15.095 -0.2036 -0.1198 -0.1890
 3602TIP3    H132221   1.521   5.715  15.127 -0.3393  0.7299 -0.0482
 3602TIP3    H232222   1.603   5.722  15.001 -0.5130  0.0947 -0.1990
 3603TIP3   OH232223   2.171   6.639  17.234 -0.5268 -0.5359  0.0033
 3603TIP3    H132224   2.163   6.544  17.239 -0.5731 -0.5139  0.4302
 3603TIP3    H232225   2.083   6.671  17.255 -0.4682 -0.3967  0.0357
 3604TIP3   OH232226   0.201   3.934   3.749 -0.0023 -0.7742  0.1613
 3604TIP3    H132227   0.114   3.951   3.785 -0.4420 -1.9505 -0.2917
 3604TIP3    H232228   0.195   3.962   3.658  0.5876  0.5898  0.5141
 3605TIP3   OH232229   6.480   2.979  11.071  0.4375  0.4085 -0.3916
 3605TIP3    H132230   6.424   3.033  11.016 -1.0678 -1.8806 -1.2387
 3605TIP3    H232231   6.564   2.976  11.026 -0.2518 -0.0084 -1.6882
 3606TIP3   OH232232   2.131   4.593  16.079 -0.0328 -1.0010 -0.1524
 3606TIP3    H132233   2.085   4.592  15.995 -0.8081  0.2512  0.2475
 3606TIP3    H232234   2.176   4.677  16.081  0.8970 -1.4959  0.2098
 3607TIP3   OH232235   4.021   0.936  13.580  0.1470  0.1577 -0.1922
 3607TIP3    H132236   3.977   0.961  13.661 -1.4936 -0.0873 -0.9856
 3607TIP3    H232237   4.107   0.905  13.608 -0.7930 -0.9763  1.5671
 3608TIP3   OH232238   4.070   6.597  16.011 -0.4041 -0.2430  0.1143
 3608TIP3    H132239   4.020   6.670  15.974  0.5847  0.7925  0.7413
 3608TIP3    H232240   4.030   6.582  16.097  0.7285  1.0475  0.9132
 3609TIP3   OH232241   0.592   5.591   0.347  0.3547 -0.2383 -0.1420
 3609TIP3    H132242   0.543   5.563   0.424  0.2452 -0.8223 -0.4206
 3609TIP3    H232243   0.555   5.677   0.325 -2.0445 -1.5218 -1.5892
 3610TIP3   OH232244   2.350   0.086   6.598 -0.1454  0.1506 -0.8286
 3610TIP3    H132245   2.256   0.069   6.603  0.1267 -1.0404  1.8510
 3610TIP3    H232246   2.390   0.001   6.585  0.6564  0.1645  1.1080
 3611TIP3   OH232247   6.264   1.801   2.548  0.0704 -0.0123  0.0829
 3611TIP3    H132248   6.288   1.857   2.622  0.6542  0.6070 -0.5441
 3611TIP3    H232249   6.170   1.789   2.556 -0.1079  1.2410  0.1411
 3612TIP3   OH232250   1.098   6.489   3.504 -0.0778  0.3994  0.0124
 3612TIP3    H132251   1.167   6.553   3.523  1.5367 -1.0836 -0.6436
 3612TIP3    H232252   1.074   6.454   3.590  2.3293 -1.3585  0.0554
 3613TIP3   OH232253   6.005   3.631  15.132 -0.5086 -0.0932 -0.6306
 3613TIP3    H132254   6.098   3.607  15.139 -0.5182  0.0995  0.2949
 3613TIP3    H232255   5.959   3.547  15.124 -0.3951 -0.2988  0.7386
 3614TIP3   OH232256   1.492   6.517   4.058 -0.2553 -0.7517 -0.7544
 3614TIP3    H132257   1.461   6.478   3.976 -0.0887 -1.2401 -0.5867
 3614TIP3    H232258   1.546   6.591   4.030 -1.1189 -0.2168 -1.0628
 3615TIP3   OH232259   1.013   4.853  12.581 -0.5802  0.4264  0.0582
 3615TIP3    H132260   1.077   4.844  12.652 -0.2491 -1.4937 -0.4260
 3615TIP3    H232261   1.042   4.790  12.515 -1.9719  0.8093 -0.9555
 3616TIP3   OH232262   1.325   1.599  11.004  0.0684 -0.3467  0.0435
 3616TIP3    H132263   1.247   1.650  11.026  0.3073  0.2216 -0.4044
 3616TIP3    H232264   1.291   1.524  10.955 -0.4124 -1.3273  1.7793
 3617TIP3   OH232265   2.159   6.499  11.133 -0.6633  0.2728 -0.5860
 3617TIP3    H132266   2.192   6.473  11.048  0.6328 -0.2190  0.0432
 3617TIP3    H232267   2.237   6.513  11.187 -1.3614  2.7652 -0.0860
 3618TIP3   OH232268   4.610   4.723   2.648 -0.1256  0.2399 -0.0973
 3618TIP3    H132269   4.530   4.755   2.607 -1.0725 -0.6069  1.0427
 3618TIP3    H232270   4.593   4.725   2.742  1.3807  0.5245  0.2001
 3619TIP3   OH232271   3.388   3.892   4.955 -0.0549  0.1733  0.1839
 3619TIP3    H132272   3.351   3.885   4.867  0.1252  0.4000  0.0889
 3619TIP3    H232273   3.420   3.804   4.975 -0.3549  0.0524  0.1392
 3620TIP3   OH232274   4.267   1.174  11.291  0.0598  0.4647  0.1016
 3620TIP3    H132275   4.205   1.235  11.251  1.2298  0.9238 -1.1001
 3620TIP3    H232276   4.270   1.100  11.230  0.7400  0.4877  0.0976
 3621TIP3   OH232277   1.608   3.907   3.258  0.1500  0.3783 -0.0454
 3621TIP3    H132278   1.691   3.944   3.288  0.4935 -0.7359  0.4452
 3621TIP3    H232279   1.567   3.977   3.208  0.6118  1.5256  1.1287
 3622TIP3   OH232280   4.150   4.710   2.834  0.0119 -0.0867  0.0518
 3622TIP3    H132281   4.055   4.717   2.844 -0.1004 -1.0313 -0.2333
 3622TIP3    H232282   4.172   4.627   2.876  0.3665 -1.0707 -1.9431
 3623TIP3   OH232283   6.630   0.553  17.061  0.0571  0.0365 -0.4018
 3623TIP3    H132284   6.568   0.490  17.023 -0.7117 -0.7515  1.9507
 3623TIP3    H232285   6.685   0.500  17.118 -0.2838  1.3922  1.2605
 3624TIP3   OH232286   1.795   2.224  14.130  0.4830 -0.1275 -0.1269
 3624TIP3    H132287   1.879   2.231  14.176 -0.2495  0.1603  1.2265
 3624TIP3    H232288   1.737   2.284  14.177  0.2219  1.8138 -2.7337
 3625TIP3   OH232289   3.959   2.590   6.098 -0.5176  0.1702  0.3674
 3625TIP3    H132290   3.938   2.681   6.080 -1.0469  0.5176  2.5121
 3625TIP3    H232291   4.045   2.592   6.140 -0.4584 -0.3384  0.2855
 3626TIP3   OH232292   6.377   2.357  13.340 -0.0878  0.3548  0.1661
 3626TIP3    H132293   6.417   2.404  13.267 -3.0807  1.6250 -0.8092
 3626TIP3    H232294   6.373   2.266  13.310 -3.0925  1.1127 -2.3874
 3627TIP3   OH232295   6.525   0.907   2.928  0.2013  0.6140  0.4435
 3627TIP3    H132296   6.467   0.904   2.851  0.9679  2.3850 -0.2446
 3627TIP3    H232297   6.493   0.836   2.984 -1.2899  0.1928 -0.8585
 3628TIP3   OH232298   2.617   2.156  12.746  0.0386  0.9471 -0.2600
 3628TIP3    H132299   2.706   2.121  12.743  0.3174  1.7128 -1.0385
 3628TIP3    H232300   2.561   2.079  12.737  0.6283  0.5567 -0.6322
 3629TIP3   OH232301   5.004   2.256   3.519 -0.4326 -0.4965  0.4372
 3629TIP3    H132302   5.097   2.236   3.523 -0.2267  0.2354 -0.3135
 3629TIP3    H232303   4.969   2.228   3.603  0.5233 -0.5146  0.8356
 3630TIP3   OH232304   4.647   3.487  17.101  0.0962  0.1747 -0.4540
 3630TIP3    H132305   4.591   3.433  17.045  1.3147 -0.9886 -0.6020
 3630TIP3    H232306   4.721   3.510  17.046 -1.2775  3.8059 -1.0692
 3631TIP3   OH232307   4.147   2.580  13.484 -0.1116  0.2215 -0.0540
 3631TIP3    H132308   4.118   2.599  13.395  1.4509  1.1639 -0.4085
 3631TIP3    H232309   4.166   2.487  13.485  0.8873  0.3976 -1.0471
 3632TIP3   OH232310   5.579   0.605  15.993  0.4729 -0.7053  0.4161
 3632TIP3    H132311   5.488   0.635  15.986  0.7090  0.3434  1.4183
 3632TIP3    H232312   5.595   0.557  15.912 -0.0291  1.7224 -1.2409
 3633TIP3   OH232313   2.398   4.570  14.312  0.0779  0.0320  0.1737
 3633TIP3    H132314   2.433   4.651  14.276 -2.3366  0.9118 -0.3844
 3633TIP3    H232315   2.368   4.521  14.236  0.9823 -1.1528  0.5531
 3634TIP3   OH232316   3.865   0.296  13.733  0.1453 -0.1203  0.3001
 3634TIP3    H132317   3.886   0.383  13.699  1.4258 -0.1491  0.9738
 3634TIP3    H232318   3.806   0.258  13.668  2.3327 -0.1110 -1.8315
 3635TIP3   OH232319   0.219   4.833   4.749 -0.4545  0.0316 -0.6812
 3635TIP3    H132320   0.194   4.741   4.749  0.5264 -0.2534  0.0750
 3635TIP3    H232321   0.308   4.834   4.712  0.0659  0.5051  0.5266
 3636TIP3   OH232322   1.839   5.164   0.272  0.0718  0.1088  0.2459
 3636TIP3    H132323   1.857   5.251   0.307  0.5985  0.8521 -1.7222
 3636TIP3    H232324   1.902   5.106   0.315  0.4483  0.8916  0.7520
 3637TIP3   OH232325   5.725   5.360   6.117 -0.2288 -0.4226 -0.5457
 3637TIP3    H132326   5.654   5.354   6.181 -0.3087  0.2455 -0.5685
 3637TIP3    H232327   5.794   5.408   6.162  0.3040 -1.2553 -0.4501
 3638TIP3   OH232328   4.354   1.566  11.425 -0.7138 -0.2097  0.0453
 3638TIP3    H132329   4.439   1.609  11.418  0.2022 -1.9331  0.0848
 3638TIP3    H232330   4.326   1.551  11.334  0.2469 -1.8977 -0.0009
 3639TIP3   OH232331   5.017   5.045  13.420  0.2744  0.5099  0.1502
 3639TIP3    H132332   5.021   4.968  13.363  0.9785 -0.2807  1.2199
 3639TIP3    H232333   4.927   5.076  13.412  0.0940 -0.1765 -0.6183
 3640TIP3   OH232334   4.453   2.081  16.992  0.3205 -0.3815  0.6318
 3640TIP3    H132335   4.525   2.031  16.954  0.4547  0.3550 -0.1297
 3640TIP3    H232336   4.493   2.132  17.063  0.7916  0.7804 -0.4208
 3641TIP3   OH232337   1.911   1.008  14.663 -0.0806 -0.0701  0.2932
 3641TIP3    H132338   1.953   0.946  14.604  1.4993 -0.4521  1.7422
 3641TIP3    H232339   1.907   0.962  14.747 -0.7791  1.0467  0.8970
 3642TIP3   OH232340   4.342   1.028  14.207  0.4464  0.6563 -0.1740
 3642TIP3    H132341   4.372   1.085  14.278  2.8032 -1.0659  0.3452
 3642TIP3    H232342   4.386   1.061  14.129  0.9529  0.2269 -0.0757
 3643TIP3   OH232343   1.814   2.657   5.477  0.2006 -0.0297 -0.3145
 3643TIP3    H132344   1.819   2.591   5.408  1.3598 -0.6709  0.3418
 3643TIP3    H232345   1.844   2.738   5.436  1.1391 -0.4643 -0.5041
 3644TIP3   OH232346   2.980   3.685  13.712 -0.3878 -0.8264 -0.2207
 3644TIP3    H132347   2.993   3.680  13.807 -0.1564  0.3550 -0.1780
 3644TIP3    H232348   2.885   3.690  13.701 -0.3691  0.3583  0.0385
 3645TIP3   OH232349   2.778   5.821  12.527 -0.2478 -0.0446 -0.0766
 3645TIP3    H132350   2.867   5.840  12.559  0.2314  0.5572 -1.6808
 3645TIP3    H232351   2.769   5.726  12.537  0.3483 -0.0292  0.6630
 3646TIP3   OH232352   3.646   2.125   6.656  0.3781 -0.4997 -0.1960
 3646TIP3    H132353   3.590   2.201   6.672  1.7067  1.5381 -3.9980
 3646TIP3    H232354   3.585   2.053   6.641 -1.2006  1.0236 -1.4969
 3647TIP3   OH232355   4.890   2.149  10.751 -0.1080  0.3149  0.0243
 3647TIP3    H132356   4.964   2.100  10.714 -0.3680 -0.5000  0.5381
 3647TIP3    H232357   4.813   2.098  10.726 -0.4805  1.0709 -0.3633
 3648TIP3   OH232358   5.485   3.211  12.857  0.2011 -0.2127 -0.3758
 3648TIP3    H132359   5.456   3.121  12.841  0.2601 -0.6325  1.6421
 3648TIP3    H232360   5.481   3.221  12.952  2.8378  1.0221 -0.3233
 3649TIP3   OH232361   1.846   1.790  16.973  0.2185 -0.2147  0.3580
 3649TIP3    H132362   1.765   1.757  16.933 -0.6790  0.0092  1.9051
 3649TIP3    H232363   1.881   1.716  17.022  0.5661 -0.0920  0.3025
 3650TIP3   OH232364   4.447   3.349   0.548 -0.1882 -0.2129 -0.0285
 3650TIP3    H132365   4.445   3.405   0.470 -0.8418 -0.8602 -0.4993
 3650TIP3    H232366   4.437   3.260   0.513 -1.6049 -0.4352  0.8615
 3651TIP3   OH232367   0.564   1.366   5.193 -0.0935 -0.2270  0.1600
 3651TIP3    H132368   0.537   1.288   5.242  0.4917  0.7780  2.1957
 3651TIP3    H232369   0.559   1.437   5.257  2.5616  0.8599 -0.7131
 3652TIP3   OH232370   0.107   2.198   4.415 -1.2866  0.0391  0.3204
 3652TIP3    H132371   0.024   2.167   4.452 -0.9216  0.5300  1.6058
 3652TIP3    H232372   0.149   2.245   4.487 -0.6303  1.2176 -0.8009
 3653TIP3   OH232373   6.223   1.703  16.885  0.0273 -0.1730  0.6176
 3653TIP3    H132374   6.216   1.695  16.790 -0.1256 -1.3306  0.7197
 3653TIP3    H232375   6.270   1.625  16.913  1.1521  0.7487  1.3820
 3654TIP3   OH232376   3.929   3.272   5.574 -0.2204  0.4827 -0.3239
 3654TIP3    H132377   4.019   3.288   5.543  0.4240  0.5904  1.4829
 3654TIP3    H232378   3.937   3.193   5.629 -1.6388 -0.7233 -1.7595
 3655TIP3   OH232379   3.188   3.423   0.746 -0.2418  0.6337 -0.4797
 3655TIP3    H132380   3.180   3.492   0.811 -0.3668  1.4303 -1.3233
 3655TIP3    H232381   3.281   3.421   0.724 -0.1747  0.2610 -0.1711
 3656TIP3   OH232382   1.541   1.620   3.016  0.1419 -0.0857  0.0902
 3656TIP3    H132383   1.619   1.667   3.046  0.0222 -0.4379  0.9991
 3656TIP3    H232384   1.576   1.540   2.976  0.2187 -0.7917  1.5235
 3657TIP3   OH232385   5.344   3.286  14.722  0.1843  0.2544 -0.0145
 3657TIP3    H132386   5.350   3.215  14.786 -1.8490  1.3973  1.5372
 3657TIP3    H232387   5.385   3.361  14.764 -1.0789  0.9969 -0.0863
 3658TIP3   OH232388   1.298   1.986   5.493 -0.2914 -0.4691  0.1451
 3658TIP3    H132389   1.390   2.013   5.492 -0.7039  1.0724 -1.5283
 3658TIP3    H232390   1.282   1.955   5.403 -1.2473 -1.3405  0.6035
 3659TIP3   OH232391   3.384   2.664  12.656  0.2470  0.1971  0.1019
 3659TIP3    H132392   3.415   2.596  12.716 -2.7431  0.7452  2.4763
 3659TIP3    H232393   3.450   2.733  12.663  2.2959 -1.5444 -0.8318
 3660TIP3   OH232394   5.971   4.680   2.544 -0.3792  0.7423  0.3206
 3660TIP3    H132395   5.920   4.742   2.595 -0.7653  0.3514  0.4149
 3660TIP3    H232396   5.962   4.709   2.454 -1.0898  0.4541  0.2919
 3661TIP3   OH232397   3.624   2.582   1.088 -0.3545  0.0615 -1.0216
 3661TIP3    H132398   3.561   2.567   1.017 -2.2120 -0.0413  0.5484
 3661TIP3    H232399   3.674   2.501   1.093 -0.6273 -0.1675 -1.8013
 3662TIP3   OH232400   5.248   4.031   2.529  0.0792  0.6846 -0.5990
 3662TIP3    H132401   5.171   3.990   2.569  0.8216 -1.0022 -0.8375
 3662TIP3    H232402   5.275   4.097   2.593  0.5002 -1.1156  1.1612
 3663TIP3   OH232403   1.999   0.063   6.142 -0.1279  0.0867  0.1560
 3663TIP3    H132404   1.971   0.152   6.123 -0.7209 -0.1061  0.1162
 3663TIP3    H232405   1.947   0.036   6.217 -1.3237 -0.8878 -0.9680
 3664TIP3   OH232406   3.184   3.279  14.970 -0.0491 -0.0130  0.2133
 3664TIP3    H132407   3.155   3.355  15.020 -1.0401 -0.4113  0.2572
 3664TIP3    H232408   3.116   3.213  14.984  0.3417 -0.5981 -0.5630
 3665TIP3   OH232409   2.500   6.442  10.730 -0.0028  0.4242  0.1565
 3665TIP3    H132410   2.543   6.526  10.715 -0.7786  0.6001 -1.1638
 3665TIP3    H232411   2.571   6.384  10.758  0.6077  1.3994  0.6967
 3666TIP3   OH232412   0.279   0.448  13.135  0.0189  0.0838  0.0036
 3666TIP3    H132413   0.214   0.394  13.090 -1.0424  1.1534  0.2206
 3666TIP3    H232414   0.336   0.384  13.179  0.4987 -0.9561 -2.0064
 3667TIP3   OH232415   2.709   4.800   0.561  0.3655 -0.1507 -0.4828
 3667TIP3    H132416   2.796   4.811   0.523  1.4645 -1.1196  1.5656
 3667TIP3    H232417   2.649   4.808   0.487  2.1090  1.4322 -1.8208
 3668TIP3   OH232418   3.177   0.867  13.973  0.2412  0.3362  0.1227
 3668TIP3    H132419   3.185   0.922  14.051 -0.3863  0.8400 -0.1487
 3668TIP3    H232420   3.132   0.923  13.909 -1.5366 -0.8738  0.2378
 3669TIP3   OH232421   6.341   0.156  12.990  0.6539 -0.0625  0.2182
 3669TIP3    H132422   6.318   0.106  13.068  1.0138 -1.3447 -0.4664
 3669TIP3    H232423   6.408   0.103  12.947  1.7574  1.4808 -0.0633
 3670TIP3   OH232424   2.953   5.613  16.630  0.6412  0.9535  0.5296
 3670TIP3    H132425   3.014   5.552  16.588 -0.6846 -0.4762  0.5993
 3670TIP3    H232426   2.964   5.695  16.581  0.5381 -0.0975 -1.3616
 3671TIP3   OH232427   0.520   0.876  10.624  0.0012 -0.5087  0.4631
 3671TIP3    H132428   0.441   0.827  10.601  0.7729 -0.8994 -1.5635
 3671TIP3    H232429   0.558   0.827  10.697  0.4136 -2.6166 -1.0982
 3672TIP3   OH232430   6.689   3.554   0.659 -0.4016  0.1956 -0.1017
 3672TIP3    H132431   6.692   3.518   0.570  1.0485  1.6840 -0.7191
 3672TIP3    H232432   6.775   3.532   0.696 -0.5461  0.6384  0.5061
 3673TIP3   OH232433   3.686   3.986   3.794 -0.7859  0.3392  0.7299
 3673TIP3    H132434   3.681   3.937   3.712  1.2027 -0.2378  0.9094
 3673TIP3    H232435   3.682   4.078   3.768 -0.4913  0.1535  0.0224
 3674TIP3   OH232436   5.618   0.427  14.417 -0.3275 -0.0638  0.2661
 3674TIP3    H132437   5.622   0.401  14.325  1.4745  2.8588 -0.6247
 3674TIP3    H232438   5.695   0.386  14.456 -1.0663 -1.2675  0.5052
 3675TIP3   OH232439   2.911   2.613  16.756  0.6434  0.2549 -0.5321
 3675TIP3    H132440   2.895   2.675  16.685 -1.3734 -0.2866 -0.6212
 3675TIP3    H232441   2.827   2.569  16.769  1.8356 -2.0967 -0.1177
 3676TIP3   OH232442   3.233   6.005   3.228  0.0957  0.3056 -0.3103
 3676TIP3    H132443   3.182   6.074   3.273  0.1390  0.1717 -0.0552
 3676TIP3    H232444   3.310   5.993   3.283  0.6363  0.8311 -0.9424
 3677TIP3   OH232445   4.426   0.493  15.808  0.6705 -0.2343 -0.2360
 3677TIP3    H132446   4.408   0.585  15.829 -1.1407 -0.7009  0.3936
 3677TIP3    H232447   4.344   0.459  15.773  1.2589 -1.6678 -0.2994
 3678TIP3   OH232448   0.536   0.341   0.115  0.0756 -0.5169  0.1146
 3678TIP3    H132449   0.471   0.296   0.169  0.0875 -1.8387 -0.9370
 3678TIP3    H232450   0.548   0.284   0.039 -1.1919  2.0386 -2.1840
 3679TIP3   OH232451   0.941   2.694  11.816 -0.5858  0.2252  0.3803
 3679TIP3    H132452   1.011   2.740  11.771 -1.0012  0.8431  0.3584
 3679TIP3    H232453   0.861   2.719  11.769 -0.7499 -1.0404 -0.0516
 3680TIP3   OH232454   4.658   0.134  13.419 -0.1772  0.6039  0.5186
 3680TIP3    H132455   4.598   0.060  13.417  0.8846 -0.2803  0.6867
 3680TIP3    H232456   4.669   0.159  13.327 -0.4980  0.5172  0.4579
 3681TIP3   OH232457   2.085   0.673  12.388  0.5369  0.0904 -0.6513
 3681TIP3    H132458   2.051   0.585  12.372  0.4602 -0.1839  0.9476
 3681TIP3    H232459   2.159   0.660  12.447 -0.2658  1.1911  0.6503
 3682TIP3   OH232460   6.733   5.393   3.226 -0.1520 -0.3610 -0.0506
 3682TIP3    H132461   6.652   5.437   3.201 -1.4150 -1.1106  2.3290
 3682TIP3    H232462   6.767   5.446   3.299  0.0228 -1.4869  0.7206
 3683TIP3   OH232463   6.042   1.503   5.558  0.3222 -0.2977  0.9258
 3683TIP3    H132464   6.033   1.466   5.470 -1.5216 -2.0598  1.7801
 3683TIP3    H232465   6.031   1.597   5.545 -0.3647 -0.5638 -0.6972
 3684TIP3   OH232466   6.229   6.719   5.213 -0.0401 -0.1514 -0.0863
 3684TIP3    H132467   6.317   6.754   5.220  0.4162 -1.5608  2.0992
 3684TIP3    H232468   6.186   6.775   5.148  2.6093  0.1604 -1.6855
 3685TIP3   OH232469   0.544   3.432  16.717 -0.3904  0.1282 -0.4643
 3685TIP3    H132470   0.583   3.462  16.799 -0.3769  1.0994 -0.8118
 3685TIP3    H232471   0.528   3.339  16.730 -2.3528  0.6525  1.4268
 3686TIP3   OH232472   3.581   1.304   3.204  0.3818  0.1257  0.3083
 3686TIP3    H132473   3.662   1.281   3.158 -1.2888 -1.0593 -2.3181
 3686TIP3    H232474   3.527   1.345   3.136 -1.6488 -0.2264  1.6460
 3687TIP3   OH232475   5.421   1.602  17.152  0.7612 -0.1922 -0.4831
 3687TIP3    H132476   5.338   1.643  17.127  0.4385 -0.3620  0.2840
 3687TIP3    H232477   5.449   1.555  17.074 -0.5271 -1.2268 -0.3648
 3688TIP3   OH232478   5.881   6.029  15.306  0.1585 -0.0910  1.0263
 3688TIP3    H132479   5.960   6.060  15.350  0.5969  0.3544 -0.0471
 3688TIP3    H232480   5.856   6.101  15.249 -0.9886 -0.2581  1.2994
 3689TIP3   OH232481   5.485   0.725  14.350  0.2644  0.1142  0.1145
 3689TIP3    H132482   5.573   0.714  14.315  0.2516 -1.1225  0.4195
 3689TIP3    H232483   5.498   0.764  14.437  0.5859 -0.8658  0.5210
 3690TIP3   OH232484   1.856   0.486   1.164 -0.0452 -0.4111 -0.5613
 3690TIP3    H132485   1.789   0.493   1.096  1.2984  0.4832 -1.8569
 3690TIP3    H232486   1.910   0.412   1.136  0.5337 -0.0166 -0.5029
 3691TIP3   OH232487   3.176   2.832   5.293  0.2855  0.8073 -0.0631
 3691TIP3    H132488   3.213   2.877   5.217 -1.1586  0.8878 -0.7664
 3691TIP3    H232489   3.231   2.858   5.367  2.0384  0.3240 -1.1384
 3692TIP3   OH232490   5.185   4.660  16.624 -0.2927  0.0884 -0.2557
 3692TIP3    H132491   5.162   4.748  16.655  0.3631 -0.3465  1.5642
 3692TIP3    H232492   5.102   4.612  16.626 -0.1860 -0.0972  1.5105
 3693TIP3   OH232493   3.789   2.577  12.492  0.1823  0.2492  0.4255
 3693TIP3    H132494   3.706   2.530  12.479  0.1822  0.4685 -0.4265
 3693TIP3    H232495   3.845   2.514  12.536 -0.4807  0.1404  1.1294
 3694TIP3   OH232496   2.281   3.301  17.311 -0.0157 -0.2128 -0.0186
 3694TIP3    H132497   2.208   3.274  17.254 -0.7526  0.4746  0.5664
 3694TIP3    H232498   2.239   3.352  17.380  0.8942 -0.8311  1.0150
 3695TIP3   OH232499   1.713   0.688  14.826 -0.0547 -0.5710 -0.3345
 3695TIP3    H132500   1.729   0.594  14.819 -0.5177 -0.7623  0.8914
 3695TIP3    H232501   1.740   0.711  14.915  1.9470  0.8774 -1.2210
 3696TIP3   OH232502   5.276   6.245  16.764  0.4022  0.3592 -0.2090
 3696TIP3    H132503   5.340   6.314  16.781  0.2458  0.7193 -1.0412
 3696TIP3    H232504   5.311   6.197  16.690 -0.1278  0.3548 -0.4627
 3697TIP3   OH232505   6.036   2.721  16.449  0.2627 -0.0584 -0.2865
 3697TIP3    H132506   6.073   2.805  16.476  0.3489  0.1099 -0.9192
 3697TIP3    H232507   6.104   2.682  16.393 -0.0527 -0.2513 -0.5355
 3698TIP3   OH232508   1.942   5.378  12.979 -0.4889 -0.1581  0.6541
 3698TIP3    H132509   1.940   5.295  12.931  0.9529 -0.1017  0.4467
 3698TIP3    H232510   1.934   5.352  13.071 -0.1209 -0.5338  0.5864
 3699TIP3   OH232511   6.465   3.811   3.832  0.4018  0.0203  0.1834
 3699TIP3    H132512   6.397   3.853   3.884 -0.1357 -1.4433  0.7088
 3699TIP3    H232513   6.418   3.759   3.767  1.0206 -0.5475  0.1767
 3700TIP3   OH232514   5.018   6.388   2.201 -0.1691  0.0776 -0.3854
 3700TIP3    H132515   5.038   6.397   2.294  1.8203 -2.2840 -0.4579
 3700TIP3    H232516   4.948   6.323   2.197 -0.0772 -0.0136 -0.5389
 3701TIP3   OH232517   4.901   5.578   4.338 -0.4611  0.1670 -0.0143
 3701TIP3    H132518   4.979   5.528   4.314 -1.0370  0.4800 -2.8632
 3701TIP3    H232519   4.931   5.669   4.341 -0.2474  0.0795  1.3489
 3702TIP3   OH232520   3.408   1.060   2.487  0.3848 -0.2563 -0.3851
 3702TIP3    H132521   3.385   1.152   2.474 -0.9174 -0.2607  1.4854
 3702TIP3    H232522   3.439   1.055   2.577  0.0512 -1.7110 -0.3263
 3703TIP3   OH232523   0.769   2.947  15.746  0.4255  0.0907  0.4351
 3703TIP3    H132524   0.726   2.868  15.781 -0.5947  0.3777 -0.1362
 3703TIP3    H232525   0.833   2.914  15.683  0.7995 -0.3300  1.0273
 3704TIP3   OH232526   3.872   3.478  17.131  0.6401  0.9135  0.0470
 3704TIP3    H132527   3.796   3.458  17.185  0.4414  1.6426  0.0503
 3704TIP3    H232528   3.845   3.553  17.078  0.5254 -0.3094 -1.7102
 3705TIP3   OH232529   3.292   1.864   1.252 -0.9886 -0.3070 -0.7039
 3705TIP3    H132530   3.289   1.814   1.170 -0.6926 -1.5211  0.0035
 3705TIP3    H232531   3.280   1.799   1.320 -1.5430  0.7406  0.2243
 3706TIP3   OH232532   5.760   3.610  15.792 -0.0602 -0.4701 -0.3196
 3706TIP3    H132533   5.776   3.546  15.723  1.0458 -0.7861  0.2046
 3706TIP3    H232534   5.665   3.622  15.792 -0.0051  0.5235 -2.7444
 3707TIP3   OH232535   2.007   3.265  12.048 -0.5462 -0.1536 -0.1691
 3707TIP3    H132536   2.002   3.240  12.140  0.6885 -0.8973 -0.2872
 3707TIP3    H232537   2.021   3.359  12.048 -1.8440  0.0650  0.3562
 3708TIP3   OH232538   0.858   2.539   2.179  0.3152 -0.0249 -0.2973
 3708TIP3    H132539   0.777   2.577   2.212  0.2040  0.2067 -0.8204
 3708TIP3    H232540   0.927   2.575   2.236  0.0877  0.0336 -0.0585
 3709TIP3   OH232541   1.049   0.661   2.125  0.2924 -0.0778 -0.0213
 3709TIP3    H132542   1.138   0.627   2.131  1.2722  1.7424 -2.5136
 3709TIP3    H232543   1.000   0.591   2.082  1.7410  0.5423 -2.9697
 3710TIP3   OH232544   4.498   0.592   1.494  0.1948 -0.3238  0.0709
 3710TIP3    H132545   4.577   0.618   1.448  0.4971 -1.1769  0.0980
 3710TIP3    H232546   4.526   0.579   1.585  0.2476 -1.5920 -0.1120
 3711TIP3   OH232547   6.393   5.014   1.893  0.1491 -0.4721 -0.2351
 3711TIP3    H132548   6.454   5.029   1.964  0.6973  0.0571 -0.8023
 3711TIP3    H232549   6.328   4.954   1.929  0.2754 -0.0219  0.7820
 3712TIP3   OH232550   3.602   4.988   5.362  0.1207 -0.4456  0.2358
 3712TIP3    H132551   3.674   4.927   5.350 -1.1991 -2.1633  0.5676
 3712TIP3    H232552   3.560   4.995   5.276 -0.7055 -1.3461  0.5436
 3713TIP3   OH232553   0.727   3.820  15.735 -0.2355  0.2657 -0.0865
 3713TIP3    H132554   0.767   3.865  15.810 -1.2850  0.6123  0.2736
 3713TIP3    H232555   0.792   3.753  15.711  0.1020  0.1136  1.1584
 3714TIP3   OH232556   3.384   5.391  11.365 -0.1791 -0.0582  0.4258
 3714TIP3    H132557   3.396   5.378  11.271 -0.7592 -0.8250  0.4428
 3714TIP3    H232558   3.472   5.402  11.399 -0.0297  1.7541 -0.3913
 3715TIP3   OH232559   0.460   1.521  13.778  0.5777  0.5600  0.2512
 3715TIP3    H132560   0.425   1.466  13.848 -1.0842 -0.1101 -1.0677
 3715TIP3    H232561   0.493   1.599  13.824  1.0571 -0.5574  1.9288
 3716TIP3   OH232562   4.654   1.329   0.584  0.1655  0.0185  0.3778
 3716TIP3    H132563   4.715   1.280   0.639  3.2276  3.0169 -0.0285
 3716TIP3    H232564   4.633   1.407   0.636 -1.4823  0.1914 -0.4829
 3717TIP3   OH232565   3.890   1.862   5.797 -0.1320 -0.3795  0.6015
 3717TIP3    H132566   3.839   1.880   5.876 -0.2052 -0.4609  0.5740
 3717TIP3    H232567   3.963   1.923   5.800  0.1077 -0.6788  0.9571
 3718TIP3   OH232568   4.813   2.956  17.405  0.1825 -0.2503  0.2090
 3718TIP3    H132569   4.780   3.020  17.467  0.0565  0.1248 -0.2363
 3718TIP3    H232570   4.885   3.000  17.361  1.0517 -0.9373  0.9151
 3719TIP3   OH232571   5.578   0.711   5.859  0.2941  0.2251 -0.4152
 3719TIP3    H132572   5.589   0.726   5.953  0.5031  0.4271 -0.4732
 3719TIP3    H232573   5.490   0.673   5.852  0.4569 -0.2317 -0.0909
 3720TIP3   OH232574   1.651   1.983   0.120  0.3627  0.0116 -0.6839
 3720TIP3    H132575   1.563   1.992   0.084  0.5295 -1.3766 -1.4956
 3720TIP3    H232576   1.671   1.890   0.113  0.8709 -0.1598  2.0091
 3721TIP3   OH232577   6.231   2.394  11.739  0.5594  0.6672  0.1979
 3721TIP3    H132578   6.224   2.302  11.710  0.0130  0.5778  0.6058
 3721TIP3    H232579   6.141   2.425  11.740  0.9182  2.2774 -3.3234
 3722TIP3   OH232580   2.660   6.379  15.433  0.5539 -0.0004 -0.1186
 3722TIP3    H132581   2.618   6.454  15.475 -0.1625 -1.5850  2.1468
 3722TIP3    H232582   2.653   6.308  15.496  0.9810 -2.0922 -2.2624
 3723TIP3   OH232583   1.395   5.953  15.390 -0.2827  0.2103 -0.0743
 3723TIP3    H132584   1.410   5.974  15.298  0.8894 -0.5686 -0.0766
 3723TIP3    H232585   1.378   5.859  15.391 -2.8761  0.6072  0.2367
 3724TIP3   OH232586   0.259   2.288   3.843  0.4863  0.6313  0.6676
 3724TIP3    H132587   0.166   2.284   3.867  0.2684 -0.6053 -0.2583
 3724TIP3    H232588   0.295   2.205   3.874  1.1982  0.9262  0.6544
 3725TIP3   OH232589   2.907   5.335   2.350 -0.2865  0.1456  0.4107
 3725TIP3    H132590   2.897   5.247   2.315 -1.8555  0.7104 -0.7082
 3725TIP3    H232591   2.952   5.384   2.281 -2.0186  0.8829 -0.2796
 3726TIP3   OH232592   2.097   4.341  13.477  0.3011  0.0223  0.1154
 3726TIP3    H132593   2.141   4.420  13.447 -1.4567  0.7148 -0.7773
 3726TIP3    H232594   2.005   4.367  13.488  0.1510 -1.2238  2.4032
 3727TIP3   OH232595   6.388   6.657  11.996 -0.3636  0.2857  0.4007
 3727TIP3    H132596   6.443   6.661  11.918 -1.2761  0.7474 -0.2370
 3727TIP3    H232597   6.301   6.684  11.965 -0.9600 -0.4738  1.3684
 3728TIP3   OH232598   3.364   1.758  14.523 -0.1664 -0.1719  0.1478
 3728TIP3    H132599   3.455   1.736  14.538 -1.0804 -4.1998  0.8438
 3728TIP3    H232600   3.360   1.781  14.430  1.2721 -1.9650 -0.4131
 3729TIP3   OH232601   6.162   5.609   3.158  0.4676  0.0952  0.0233
 3729TIP3    H132602   6.122   5.677   3.103 -1.5476  1.0734  2.5200
 3729TIP3    H232603   6.247   5.646   3.181  0.2808  0.8071 -0.3643
 3730TIP3   OH232604   6.252   5.798   4.774  0.0344 -0.7493 -0.1515
 3730TIP3    H132605   6.189   5.827   4.708  0.7326 -0.6137 -0.7667
 3730TIP3    H232606   6.318   5.868   4.777  0.5137 -1.2023 -0.0106
 3731TIP3   OH232607   0.862   2.448   1.594 -0.4646  0.8931 -0.3308
 3731TIP3    H132608   0.921   2.522   1.607  1.2168 -0.4704  0.2273
 3731TIP3    H232609   0.822   2.433   1.680 -0.7790  1.1167 -0.4355
 3732TIP3   OH232610   1.426   1.362   2.229 -0.5567 -0.4883  0.1536
 3732TIP3    H132611   1.412   1.315   2.147 -0.5767 -1.2945  0.6105
 3732TIP3    H232612   1.517   1.391   2.224 -0.2234 -1.4601  0.2933
 3733TIP3   OH232613   1.688   4.040  13.116  0.3759  0.0859 -0.3084
 3733TIP3    H132614   1.596   4.012  13.124  0.6096 -0.2146  2.3252
 3733TIP3    H232615   1.684   4.135  13.121  0.2466  0.0329  0.8760
 3734TIP3   OH232616   5.264   1.805  16.328 -0.2581  0.1314 -0.1802
 3734TIP3    H132617   5.331   1.805  16.259 -1.1563 -0.2250 -1.0673
 3734TIP3    H232618   5.311   1.777  16.406  0.5548 -0.5755 -0.8898
 3735TIP3   OH232619   4.475   2.582   0.144  0.7434  0.1234  0.2563
 3735TIP3    H132620   4.553   2.631   0.117  1.7351 -1.7415 -0.3923
 3735TIP3    H232621   4.508   2.500   0.180 -0.8914 -1.6478 -1.9461
 3736TIP3   OH232622   4.835   1.193  15.631  0.5561 -0.7987 -0.1127
 3736TIP3    H132623   4.746   1.160  15.649 -0.4823  0.5110 -2.4425
 3736TIP3    H232624   4.853   1.252  15.705 -2.0299  1.6412 -1.2234
 3737TIP3   OH232625   5.937   3.222  16.631 -0.5443  0.1555 -0.1344
 3737TIP3    H132626   5.970   3.138  16.599 -1.0561  0.6144 -1.9500
 3737TIP3    H232627   6.005   3.285  16.610 -1.6851  0.7856 -2.1642
 3738TIP3   OH232628   1.120   0.765  15.986 -0.1101  0.0657  0.4061
 3738TIP3    H132629   1.101   0.847  16.033 -0.5754  0.3586 -0.2724
 3738TIP3    H232630   1.214   0.768  15.970 -0.1278  0.4901  0.3559
 3739TIP3   OH232631   6.103   0.474  13.347 -0.5453  0.0187 -0.1574
 3739TIP3    H132632   6.133   0.424  13.271 -0.4448 -0.7605  0.3853
 3739TIP3    H232633   6.041   0.415  13.391  0.2560  0.0044  0.9969
 3740TIP3   OH232634   5.356   0.433   3.583  0.4350  0.0580 -0.4526
 3740TIP3    H132635   5.369   0.527   3.591  0.6054  0.0129 -0.2022
 3740TIP3    H232636   5.276   0.424   3.531 -1.7677  0.3852  2.6091
 3741TIP3   OH232637   4.796   0.062   5.482 -0.9142  0.1005 -0.4174
 3741TIP3    H132638   4.802   0.090   5.573 -0.8594 -0.6882 -0.1676
 3741TIP3    H232639   4.708   0.025   5.474 -0.0762 -2.2169  0.0529
 3742TIP3   OH232640   0.930   4.359  11.342 -0.4854  0.4934  0.1695
 3742TIP3    H132641   0.980   4.351  11.262 -0.7841  1.0190 -0.0783
 3742TIP3    H232642   0.838   4.353  11.314 -0.6213  1.5670  0.3476
 3743TIP3   OH232643   6.425   5.879  12.909  0.3280  0.9289 -0.1125
 3743TIP3    H132644   6.411   5.785  12.913  2.1487  0.6480  0.1140
 3743TIP3    H232645   6.459   5.895  12.821  3.5638  0.7884  0.9693
 3744TIP3   OH232646   4.318   4.863  14.200 -0.3155 -0.3571 -0.2394
 3744TIP3    H132647   4.345   4.786  14.150 -2.6495  0.1884 -2.5884
 3744TIP3    H232648   4.304   4.930  14.133 -0.2436  1.5296  1.5465
 3745TIP3   OH232649   6.381   2.280  13.749  0.0114 -0.7038 -0.0590
 3745TIP3    H132650   6.313   2.305  13.687 -0.0754  0.6864  0.5379
 3745TIP3    H232651   6.339   2.218  13.809 -0.5410 -0.3672 -0.0945
 3746TIP3   OH232652   2.989   3.470   2.847  0.2763  0.2335 -0.1189
 3746TIP3    H132653   2.985   3.376   2.832 -2.0503  0.3612 -0.6550
 3746TIP3    H232654   2.915   3.506   2.798  0.1783  2.1647  1.3068
 3747TIP3   OH232655   5.690   2.836  14.634 -0.8331 -0.4894  0.3532
 3747TIP3    H132656   5.644   2.895  14.694 -1.5237 -0.0553 -0.5819
 3747TIP3    H232657   5.741   2.779  14.692  1.4738  2.2580  1.2752
 3748TIP3   OH232658   5.914   2.829   3.424  0.2892  0.2865 -0.5200
 3748TIP3    H132659   5.984   2.840   3.360 -0.6448  0.9942 -1.4680
 3748TIP3    H232660   5.861   2.757   3.390  0.3194  0.0336 -0.0385
 3749TIP3   OH232661   4.942   5.530   3.300 -0.2571 -0.3253 -0.5204
 3749TIP3    H132662   4.854   5.508   3.267 -0.5236 -0.9057  0.5410
 3749TIP3    H232663   4.929   5.551   3.392  0.9497 -2.2339  0.1555
 3750TIP3   OH232664   1.058   6.679   3.755 -0.0128 -0.1028  0.0645
 3750TIP3    H132665   0.963   6.672   3.748 -0.0118  1.1006 -1.9161
 3750TIP3    H232666   1.085   6.594   3.790 -1.7840 -0.5211  0.5426
 3751TIP3   OH232667   1.888   6.129   3.493 -0.6799 -0.0187  0.4915
 3751TIP3    H132668   1.884   6.225   3.488 -1.6128 -0.0603  0.2389
 3751TIP3    H232669   1.893   6.110   3.586 -1.0120  0.2677  0.5722
 3752TIP3   OH232670   1.680   0.314  12.345 -0.0657 -0.1935 -0.1388
 3752TIP3    H132671   1.604   0.269  12.380  1.3592 -3.1523 -0.5503
 3752TIP3    H232672   1.675   0.403  12.382 -2.9795 -0.6619  0.8092
 3753TIP3   OH232673   2.928   0.727  16.513 -0.2814  0.2534 -0.2277
 3753TIP3    H132674   2.975   0.775  16.581 -0.2083  0.4100 -0.3860
 3753TIP3    H232675   2.929   0.786  16.437 -3.8563  1.8624  0.7575
 3754TIP3   OH232676   4.833   3.130   6.676 -0.1348 -0.3163 -0.3590
 3754TIP3    H132677   4.768   3.097   6.739  1.3704  1.7879  2.5679
 3754TIP3    H232678   4.915   3.088   6.703  0.9901  2.3715  0.7195
 3755TIP3   OH232679   5.906   4.295  13.382  0.2262 -0.1455  0.0204
 3755TIP3    H132680   5.913   4.200  13.374 -0.6994 -0.1498 -0.9065
 3755TIP3    H232681   5.943   4.329  13.301 -1.0060  0.2000 -0.4123
 3756TIP3   OH232682   4.690   2.704  11.899 -0.2791  0.0170  0.0365
 3756TIP3    H132683   4.733   2.631  11.944  1.2993  1.4069  0.9263
 3756TIP3    H232684   4.676   2.673  11.810  2.3984 -0.6475 -0.2383
 3757TIP3   OH232685   6.581   2.047  15.445  0.2307 -0.5334  0.2358
 3757TIP3    H132686   6.608   2.009  15.362 -0.2188 -0.8836  0.2496
 3757TIP3    H232687   6.646   2.116  15.461  0.7095 -0.9057 -0.0678
 3758TIP3   OH232688   6.303   0.485   1.092 -0.2066 -0.2381  0.2375
 3758TIP3    H132689   6.277   0.534   1.014 -1.9305  1.8749  1.9768
 3758TIP3    H232690   6.238   0.510   1.158  1.5551 -1.3744  2.5448
 3759TIP3   OH232691   2.810   0.038   1.825  0.2430  0.0739 -0.0199
 3759TIP3    H132692   2.791   0.061   1.734 -0.5607  0.9118  0.3331
 3759TIP3    H232693   2.877   0.101   1.852  0.9052 -0.5480 -0.1957
 3760TIP3   OH232694   5.094   2.133   0.515  0.1870 -0.0744  0.3223
 3760TIP3    H132695   5.173   2.177   0.547 -0.1195  0.4008  0.4320
 3760TIP3    H232696   5.042   2.118   0.594  1.1751 -2.4844  0.5893
 3761TIP3   OH232697   0.425   1.441  16.397 -0.4867  0.2942  0.0726
 3761TIP3    H132698   0.348   1.384  16.385  0.9914 -1.4094 -2.2173
 3761TIP3    H232699   0.449   1.468  16.308  1.0946  1.4468  0.8106
 3762TIP3   OH232700   1.725   5.874  13.079  0.3412  0.4684 -0.0063
 3762TIP3    H132701   1.751   5.918  12.998 -1.6411 -1.3447 -1.7325
 3762TIP3    H232702   1.654   5.928  13.114  1.4586  1.4695  0.8153
 3763TIP3   OH232703   2.607   5.535  17.322  0.3995 -0.2170 -0.3070
 3763TIP3    H132704   2.673   5.554  17.255  0.9933  0.0614  0.3432
 3763TIP3    H232705   2.620   5.443  17.343  1.2996  0.0746  0.5505
 3764TIP3   OH232706   0.868   5.176  15.045  0.2507 -0.2622  0.5066
 3764TIP3    H132707   0.847   5.195  14.954 -2.8865  1.7208  1.4791
 3764TIP3    H232708   0.934   5.240  15.069 -0.5850  0.7504  0.1873
 3765TIP3   OH232709   1.804   3.943   1.625  0.0402 -0.1702 -0.0863
 3765TIP3    H132710   1.812   3.853   1.592 -0.1036  0.3618 -1.6494
 3765TIP3    H232711   1.879   3.954   1.684 -0.9526 -1.8969  1.6297
 3766TIP3   OH232712   5.596   2.668  17.350  0.3912 -0.4039  0.0623
 3766TIP3    H132713   5.595   2.690  17.443  2.1586  0.5313 -0.1008
 3766TIP3    H232714   5.686   2.639  17.334 -0.3579 -2.3552 -0.9845
 3767TIP3   OH232715   4.358   5.738   5.999 -0.1672 -0.4914  0.2190
 3767TIP3    H132716   4.394   5.780   5.921 -0.2769  0.1397  0.5029
 3767TIP3    H232717   4.269   5.773   6.007 -0.3904 -1.0457  0.2664
 3768TIP3   OH232718   4.213   4.481   0.794 -0.1932 -0.0527  0.3735
 3768TIP3    H132719   4.245   4.569   0.775 -1.7264  0.7056  1.1334
 3768TIP3    H232720   4.264   4.453   0.870  1.2617 -0.4113 -0.6958
 3769TIP3   OH232721   5.637   5.841  13.078 -0.0712 -0.6191  0.1097
 3769TIP3    H132722   5.589   5.924  13.078  0.6999 -0.1408 -1.4560
 3769TIP3    H232723   5.595   5.790  13.009  0.6688 -0.7879 -0.2200
 3770TIP3   OH232724   4.890   1.790  14.735  0.8021  0.4694  0.7277
 3770TIP3    H132725   4.921   1.868  14.781  1.2353  1.1153 -0.6248
 3770TIP3    H232726   4.853   1.824  14.653  0.1815 -0.6714  0.5177
 3771TIP3   OH232727   4.765   2.920   3.626 -0.3708  0.1555  0.5645
 3771TIP3    H132728   4.754   2.957   3.539 -2.6662 -0.6105  0.4741
 3771TIP3    H232729   4.765   2.825   3.613 -1.1005  0.0263  1.4204
 3772TIP3   OH232730   0.068   6.221  13.312  0.4075 -0.2034 -0.5719
 3772TIP3    H132731   0.145   6.169  13.337  1.9899  2.8437  1.6740
 3772TIP3    H232732   0.080   6.304  13.359 -3.1299  1.3000 -2.0022
 3773TIP3   OH232733   3.209   2.777  16.613  0.3246 -0.1748  0.2831
 3773TIP3    H132734   3.292   2.757  16.568  0.8929  0.8838  0.8179
 3773TIP3    H232735   3.224   2.863  16.652 -1.1688  0.2010  0.0727
 3774TIP3   OH232736   6.338   4.011   3.343  0.4388 -0.1201 -0.1501
 3774TIP3    H132737   6.374   3.939   3.291 -1.0706 -1.0520  0.0287
 3774TIP3    H232738   6.244   3.993   3.346  0.1555  1.3695  0.6834
 3775TIP3   OH232739   0.017   5.977   0.741 -0.2194  0.3040  0.1273
 3775TIP3    H132740   0.065   5.937   0.669 -1.8232  3.1559 -2.7867
 3775TIP3    H232741  -0.043   5.909   0.771 -0.2658 -0.6534 -1.9832
 3776TIP3   OH232742   4.955   3.886  11.041 -0.0587  0.0013  0.6371
 3776TIP3    H132743   4.915   3.913  11.123  1.4091  0.7468  1.1416
 3776TIP3    H232744   4.938   3.959  10.981 -1.2419 -0.5981  0.2132
 3777TIP3   OH232745   0.255   5.949   1.649  0.4443  0.0845  0.0092
 3777TIP3    H132746   0.244   5.901   1.731  0.3541  0.9170  0.4957
 3777TIP3    H232747   0.176   5.930   1.599 -1.1959  2.3175  1.5625
 3778TIP3   OH232748   2.004   3.385   2.474  0.7963  0.5677  0.0363
 3778TIP3    H132749   1.956   3.352   2.549 -1.5464  2.8172 -0.3267
 3778TIP3    H232750   2.090   3.407   2.508  0.7984 -1.2459  1.3222
 3779TIP3   OH232751   4.169   2.735   2.569 -0.0577  0.3852 -0.3773
 3779TIP3    H132752   4.156   2.830   2.571 -1.6599  0.1934  0.0299
 3779TIP3    H232753   4.248   2.723   2.517  1.4845  2.0332  1.4568
 3780TIP3   OH232754   6.139   5.163   3.006  0.0512  0.2788  0.2778
 3780TIP3    H132755   6.216   5.181   3.060  0.1436  0.9817 -0.0730
 3780TIP3    H232756   6.082   5.238   3.021  0.6377  1.1623 -1.5665
 3781TIP3   OH232757   4.519   5.676  14.128  0.1142 -0.4321  0.1531
 3781TIP3    H132758   4.605   5.719  14.131 -0.4160  0.6973 -0.3364
 3781TIP3    H232759   4.496   5.672  14.035 -0.6182 -0.1929  0.3152
 3782TIP3   OH232760   3.165   6.685   5.851  0.4007  0.3666  0.0777
 3782TIP3    H132761   3.082   6.730   5.868 -0.5973 -0.6469 -1.7234
 3782TIP3    H232762   3.149   6.595   5.877  1.2464  0.3359  0.5156
 3783TIP3   OH232763   3.277   6.226   5.015 -0.3928 -0.0292  0.2005
 3783TIP3    H132764   3.184   6.227   4.991 -1.1166  1.9138  2.6257
 3783TIP3    H232765   3.293   6.315   5.048  2.0265 -0.6810  0.9261
 3784TIP3   OH232766   4.906   6.459  14.919 -0.0496  0.5841  0.3431
 3784TIP3    H132767   4.957   6.405  14.859 -0.8392  0.7384 -0.4894
 3784TIP3    H232768   4.879   6.534  14.866  0.1726  1.2962  1.2038
 3785TIP3   OH232769   0.032   5.750  16.168  0.8429  0.3619 -0.2924
 3785TIP3    H132770  -0.011   5.779  16.248  0.6942  0.3972 -0.3836
 3785TIP3    H232771   0.125   5.749  16.189  0.8842  1.2923 -0.4105
 3786TIP3   OH232772   3.814   1.127  10.552 -0.0171  0.0431  0.3207
 3786TIP3    H132773   3.838   1.102  10.642  1.2764 -2.1455 -0.5687
 3786TIP3    H232774   3.863   1.207  10.536 -0.7944  0.8674  1.7482
 3787TIP3   OH232775   4.429   1.565  14.248  0.0970 -0.1499 -0.3829
 3787TIP3    H132776   4.498   1.514  14.290 -0.4384  0.7358  1.6777
 3787TIP3    H232777   4.348   1.519  14.270 -0.1847  0.2259 -0.6216
 3788TIP3   OH232778   5.249   0.542   2.654  0.1282  0.2999 -0.0994
 3788TIP3    H132779   5.342   0.556   2.640 -0.1427  0.7694 -1.5574
 3788TIP3    H232780   5.245   0.469   2.715  1.4432 -1.3790 -1.9085
 3789TIP3   OH232781   5.961   1.603  12.984 -0.0811 -0.3580  0.0093
 3789TIP3    H132782   5.950   1.592  13.078  1.9286 -0.9884  0.2151
 3789TIP3    H232783   5.905   1.535  12.945 -1.9968  0.7778  0.6400
 3790TIP3   OH232784   5.389   1.645  13.465 -0.2464 -0.1665 -0.1656
 3790TIP3    H132785   5.322   1.598  13.415  0.3528 -0.8596 -0.3437
 3790TIP3    H232786   5.345   1.723  13.497 -0.9937 -0.3500 -0.7155
 3791TIP3   OH232787   0.387   1.389  14.030  0.3798 -0.1673 -0.8871
 3791TIP3    H132788   0.383   1.310  14.085  1.2682 -0.5756 -1.3951
 3791TIP3    H232789   0.297   1.401  14.000 -0.5896  1.1498  2.1049
 3792TIP3   OH232790   1.256   2.774  12.914 -0.0759 -0.1385 -0.2729
 3792TIP3    H132791   1.258   2.798  13.007  0.3911  1.0774 -0.5743
 3792TIP3    H232792   1.303   2.691  12.910 -2.1642 -1.4582  0.8928
 3793TIP3   OH232793   4.697   0.150   0.519  0.5277  0.2862 -0.3770
 3793TIP3    H132794   4.787   0.121   0.534  0.5806 -0.1099 -1.3399
 3793TIP3    H232795   4.707   0.233   0.473  0.4226 -0.1225 -1.1601
 3794TIP3   OH232796   6.628   2.177   6.576  0.2115 -0.0913  0.1570
 3794TIP3    H132797   6.619   2.087   6.609 -1.7761  0.3710  0.9517
 3794TIP3    H232798   6.720   2.199   6.594  1.4780 -2.7533 -2.2106
 3795TIP3   OH232799   4.434   2.744  14.634  0.0815 -0.0372  0.0548
 3795TIP3    H132800   4.403   2.756  14.545  2.7427  3.3717 -0.5937
 3795TIP3    H232801   4.527   2.724  14.625  0.5468  0.9971  2.0597
 3796TIP3   OH232802   0.599   4.246  12.470  0.0153  0.8951  0.0661
 3796TIP3    H132803   0.572   4.324  12.518 -1.1780  1.2492 -1.1180
 3796TIP3    H232804   0.677   4.215  12.516 -0.8979  1.3665  2.0327
 3797TIP3   OH232805   1.904   0.111  11.993  0.1077  0.3767 -0.0438
 3797TIP3    H132806   1.832   0.173  12.001 -0.3465 -0.1072 -0.2787
 3797TIP3    H232807   1.950   0.116  12.077 -0.0673  0.8514  0.0255
 3798TIP3   OH232808   1.663   3.697  14.274 -0.2133  0.4200  0.3902
 3798TIP3    H132809   1.630   3.607  14.271 -0.0214  0.2333  2.3196
 3798TIP3    H232810   1.586   3.751  14.290 -0.2402  0.5293 -0.1038
 3799TIP3   OH232811   4.563   0.140  12.711 -0.3044  0.2128  0.1134
 3799TIP3    H132812   4.568   0.235  12.703 -0.4814  0.3255  1.1671
 3799TIP3    H232813   4.480   0.124  12.756 -1.2441 -0.5816 -1.7818
 3800TIP3   OH232814   0.990   5.049   1.485  0.3501 -0.0561  0.1045
 3800TIP3    H132815   1.006   5.114   1.416 -0.1270  1.6407  1.5104
 3800TIP3    H232816   0.895   5.037   1.484  0.0909  1.3968  1.5927
 3801TIP3   OH232817   1.752   6.332   3.286  0.3822  0.2658 -0.3529
 3801TIP3    H132818   1.772   6.389   3.211  0.8354  0.9635  0.2767
 3801TIP3    H232819   1.820   6.265   3.284 -0.3011 -0.4373 -1.2487
 3802TIP3   OH232820   3.065   6.314   1.184 -0.3515  0.3009  0.2355
 3802TIP3    H132821   3.071   6.350   1.095 -2.2857 -0.0500 -0.0816
 3802TIP3    H232822   2.971   6.307   1.200 -0.0385 -2.0172  1.3618
 3803TIP3   OH232823   5.386   2.626  12.805  0.1923 -0.7083 -0.5163
 3803TIP3    H132824   5.316   2.662  12.750 -1.1673 -5.0207 -2.0140
 3803TIP3    H232825   5.452   2.595  12.742  2.1874  0.6928  0.7701
 3804TIP3   OH232826   2.832   3.817  13.413 -0.5468 -0.3231  0.1731
 3804TIP3    H132827   2.772   3.751  13.376 -3.0035  0.5677  2.2603
 3804TIP3    H232828   2.840   3.792  13.505  1.0249  0.5638  0.3011
 3805TIP3   OH232829   2.214   5.363  16.929  0.4488  0.4557  0.7201
 3805TIP3    H132830   2.254   5.440  16.969 -0.0191  1.5690 -0.8695
 3805TIP3    H232831   2.240   5.367  16.837 -2.1122  0.4527 -0.0746
 3806TIP3   OH232832   5.759   5.898   4.908  0.1400 -0.2877 -0.0870
 3806TIP3    H132833   5.796   5.851   4.983  0.6553  2.7011  1.7219
 3806TIP3    H232834   5.834   5.912   4.850  0.9705  1.7405  1.3590
 3807TIP3   OH232835   4.799   3.203   1.607 -0.0695 -0.2603  0.1196
 3807TIP3    H132836   4.877   3.230   1.558  0.1128 -0.5219  0.2661
 3807TIP3    H232837   4.814   3.235   1.696 -0.3146  0.0469  0.0526
 3808TIP3   OH232838   2.466   2.032  11.995  0.7677  0.2636 -0.3737
 3808TIP3    H132839   2.445   1.946  12.031  0.1406  0.2637 -0.7324
 3808TIP3    H232840   2.465   2.091  12.071  0.5596  0.0712 -0.2275
 3809TIP3   OH232841   5.118   5.247  14.037  0.3130  0.4107  0.4628
 3809TIP3    H132842   5.134   5.162  14.080  0.8046 -0.7379 -1.8449
 3809TIP3    H232843   5.174   5.308  14.084  0.2735 -0.6100  1.9178
 3810TIP3   OH232844   1.780   0.529   0.213  0.7399  0.0624  0.1264
 3810TIP3    H132845   1.820   0.555   0.296 -0.2609 -0.5369  0.8274
 3810TIP3    H232846   1.687   0.550   0.225  0.3909 -1.1579 -0.3728
 3811TIP3   OH232847   6.113   3.504   3.113  0.0699 -0.1003  0.5474
 3811TIP3    H132848   6.208   3.492   3.112 -0.0203 -0.9008 -0.2882
 3811TIP3    H232849   6.093   3.539   3.026 -0.3251  0.7780  0.9818
 3812TIP3   OH232850   3.454   1.101   0.604  0.0326  0.5795 -0.2687
 3812TIP3    H132851   3.442   1.183   0.555  0.0469  0.8612  0.1945
 3812TIP3    H232852   3.526   1.056   0.559  2.2482  2.2876  1.3263
 3813TIP3   OH232853   6.745   1.748  12.989 -0.8166  0.1819 -0.2492
 3813TIP3    H132854   6.689   1.702  13.052 -1.8327  1.2454 -0.3393
 3813TIP3    H232855   6.746   1.690  12.912 -1.9316  0.1853 -0.2920
 3814TIP3   OH232856   5.085   1.243  13.349 -0.3403  0.2920  0.6824
 3814TIP3    H132857   5.133   1.175  13.396 -1.6338  0.1623  1.8909
 3814TIP3    H232858   5.069   1.311  13.415  0.5838  1.6175 -0.4002
 3815TIP3   OH232859   4.113   5.262  12.450 -0.4440  0.2993 -0.0347
 3815TIP3    H132860   4.144   5.280  12.539 -0.9117 -1.7265  0.5870
 3815TIP3    H232861   4.042   5.325  12.437 -0.6897  0.3099  1.2152
 3816TIP3   OH232862   2.350   2.041   2.979  0.0905  0.0211 -0.4383
 3816TIP3    H132863   2.319   2.126   2.946 -2.0544 -1.0607 -1.3725
 3816TIP3    H232864   2.375   2.059   3.070 -1.0958  1.5028 -0.3598
 3817TIP3   OH232865   6.246   4.731   2.753  0.5452 -0.1291  0.1093
 3817TIP3    H132866   6.174   4.707   2.695  0.5280 -1.6948  0.7263
 3817TIP3    H232867   6.242   4.827   2.758  0.1714  0.0141 -1.9462
 3818TIP3   OH232868   0.141   5.242  14.605 -0.3945  0.5302 -0.3369
 3818TIP3    H132869   0.216   5.271  14.552  0.0150 -0.0438 -0.0765
 3818TIP3    H232870   0.071   5.304  14.583  0.4984  1.7996  0.3011
 3819TIP3   OH232871   0.955   1.960   4.370 -0.1134  0.1265 -0.5036
 3819TIP3    H132872   0.986   1.946   4.281 -1.9519 -0.9507 -1.0223
 3819TIP3    H232873   0.907   2.043   4.367  2.7827  1.9632  0.3724
 3820TIP3   OH232874   6.254   6.238  17.047  0.0220  0.4416 -0.2828
 3820TIP3    H132875   6.277   6.295  16.973 -0.6584  1.3022  0.1473
 3820TIP3    H232876   6.294   6.280  17.123 -1.0487  0.7265  0.1362
 3821TIP3   OH232877   2.296   3.757  16.778 -0.1363 -0.2997  0.1555
 3821TIP3    H132878   2.321   3.816  16.848 -0.6997  0.2515 -0.0973
 3821TIP3    H232879   2.347   3.678  16.794 -1.4279 -0.8085  2.1349
 3822TIP3   OH232880   0.403   6.132   3.672 -0.3917  0.1818  0.3419
 3822TIP3    H132881   0.470   6.070   3.701 -1.5988 -1.0262  0.6707
 3822TIP3    H232882   0.340   6.136   3.745  0.3966  3.0313  1.0098
 3823TIP3   OH232883   0.622   3.014  11.419  0.6082  0.2994  0.3075
 3823TIP3    H132884   0.610   3.057  11.335  0.9371  2.3851  1.2627
 3823TIP3    H232885   0.687   3.067  11.464  0.3539 -0.6927  1.9197
 3824TIP3   OH232886   2.055   1.006  13.692 -0.2355 -0.2185 -0.4505
 3824TIP3    H132887   2.063   0.922  13.648 -1.3841 -0.2818 -0.5674
 3824TIP3    H232888   2.082   1.071  13.626  0.4041 -0.4662 -0.4404
 3825TIP3   OH232889   4.297   0.537  11.744  0.4527 -0.1398  0.3201
 3825TIP3    H132890   4.350   0.465  11.780  1.2127  0.3957  0.3092
 3825TIP3    H232891   4.358   0.584  11.687 -0.7118 -0.9964 -1.7583
 3826TIP3   OH232892   4.850   3.358   0.530  0.5244  0.1193  0.4717
 3826TIP3    H132893   4.791   3.424   0.568  0.5971 -0.8944  2.4859
 3826TIP3    H232894   4.824   3.353   0.438 -1.5275  0.7867  0.9501
 3827TIP3   OH232895   3.248   6.178   3.888  0.0663  0.2380  0.2244
 3827TIP3    H132896   3.204   6.154   3.970  0.4304 -0.2378  0.2787
 3827TIP3    H232897   3.195   6.138   3.820  0.9198 -1.1195  0.3351
 3828TIP3   OH232898   5.031   2.404   1.126 -0.7349 -0.4832 -0.3398
 3828TIP3    H132899   4.967   2.360   1.071 -2.3652  2.5677 -1.1254
 3828TIP3    H232900   4.987   2.412   1.211 -2.4048  3.1540 -1.3357
 3829TIP3   OH232901   3.550   2.161  13.319  0.9295 -0.2080 -0.2359
 3829TIP3    H132902   3.602   2.215  13.258  1.3393 -1.3317 -0.9180
 3829TIP3    H232903   3.551   2.074  13.279 -1.8632 -0.1955 -0.5071
 3830TIP3   OH232904   1.051   2.118   0.447  0.3588  0.1390  0.5096
 3830TIP3    H132905   0.959   2.105   0.425  0.5305 -1.1494  0.4634
 3830TIP3    H232906   1.091   2.150   0.366 -0.4375  2.9649  1.1317
 3831TIP3   OH232907   4.984   6.732  17.037  0.3337 -0.2444 -0.1008
 3831TIP3    H132908   5.023   6.805  16.988 -3.0223  0.8118 -1.4242
 3831TIP3    H232909   5.059   6.679  17.064  2.7784  2.5331 -0.9143
 3832TIP3   OH232910   6.037   5.736  11.816  0.1795  0.0132 -0.5257
 3832TIP3    H132911   5.943   5.715  11.819  0.4613 -1.3778 -1.0177
 3832TIP3    H232912   6.078   5.659  11.777  1.6321  0.2768  0.4129
 3833TIP3   OH232913   2.339   2.152   1.375 -0.4887  0.2234  0.2761
 3833TIP3    H132914   2.353   2.233   1.423  0.1435 -0.7308  1.7892
 3833TIP3    H232915   2.288   2.097   1.436  1.2067 -1.4005  0.3393
 3834TIP3   OH232916   5.439   3.846   0.801 -0.4852  0.5604  0.2151
 3834TIP3    H132917   5.391   3.852   0.884 -0.0466 -0.5906  0.5724
 3834TIP3    H232918   5.504   3.777   0.816  2.1046  2.8597  0.1401
 3835TIP3   OH232919   4.730   4.896  15.990  0.0843 -0.1175 -0.3258
 3835TIP3    H132920   4.660   4.893  15.925 -0.9024 -1.1680  0.7295
 3835TIP3    H232921   4.779   4.815  15.976  2.3883  1.5077 -2.3617
 3836TIP3   OH232922   0.969   0.687  13.395  0.4380  0.0602 -0.0026
 3836TIP3    H132923   0.987   0.742  13.319  0.5962 -0.4348 -0.3211
 3836TIP3    H232924   0.941   0.603  13.359 -0.2777  0.0791  0.4803
 3837TIP3   OH232925   1.158   2.840  17.003  0.9040  0.2556  0.7277
 3837TIP3    H132926   1.119   2.892  17.073  0.6628 -1.7250  2.1533
 3837TIP3    H232927   1.210   2.774  17.048  0.3938 -1.3760 -0.9410
 3838TIP3   OH232928   5.601   4.650   1.594  0.4823  0.1260 -0.6070
 3838TIP3    H132929   5.681   4.696   1.620 -0.2181  1.0081  0.0818
 3838TIP3    H232930   5.606   4.566   1.639  0.8222  0.3383 -0.2428
 3839TIP3   OH232931   6.396   2.298  15.205  0.7102  0.5780  0.1068
 3839TIP3    H132932   6.369   2.345  15.127 -0.5110 -1.5228 -0.8340
 3839TIP3    H232933   6.490   2.312  15.211  0.8438  0.7377 -1.8109
 3840TIP3   OH232934   6.278   6.169  11.885  0.5139 -0.2113  0.6358
 3840TIP3    H132935   6.186   6.182  11.860 -0.2868 -2.0020  2.3881
 3840TIP3    H232936   6.299   6.081  11.853  1.7966  0.3355 -0.1177
 3841TIP3   OH232937   2.496   1.291   4.038 -0.4020  0.2080 -0.6145
 3841TIP3    H132938   2.488   1.224   3.971  0.1619 -0.0701 -0.4084
 3841TIP3    H232939   2.532   1.246   4.114 -0.0595  0.7234 -0.4593
 3842TIP3   OH232940   6.459   5.493   5.321  0.2302  0.1290 -0.4187
 3842TIP3    H132941   6.547   5.531   5.316  0.2439 -0.0413 -1.7538
 3842TIP3    H232942   6.428   5.515   5.409  1.1365  1.2310 -0.3584
 3843TIP3   OH232943   3.606   1.726  16.955 -0.8513 -0.1711 -0.0909
 3843TIP3    H132944   3.514   1.699  16.946 -0.8931  0.3288 -1.2465
 3843TIP3    H232945   3.656   1.649  16.928 -0.9477 -0.0495 -0.6302
 3844TIP3   OH232946   3.126   3.417  12.560  0.5788  0.0379 -0.2058
 3844TIP3    H132947   3.091   3.497  12.521 -2.5089 -1.2823 -0.4912
 3844TIP3    H232948   3.186   3.382  12.495  1.7372  1.9268 -0.1989
 3845TIP3   OH232949   2.928   2.792   6.286 -0.2303  0.1824  0.6692
 3845TIP3    H132950   2.833   2.783   6.290 -0.5925  2.0402 -1.6490
 3845TIP3    H232951   2.945   2.883   6.310  0.5524  0.8725 -2.1260
 3846TIP3   OH232952   2.878   6.482  15.127  0.1567  0.1822  0.3404
 3846TIP3    H132953   2.932   6.544  15.077 -1.2855  2.0103  0.9103
 3846TIP3    H232954   2.862   6.410  15.067  1.8739  0.3411 -0.3802
 3847TIP3   OH232955   6.536   4.865  17.003  0.0715  0.4261 -0.2461
 3847TIP3    H132956   6.458   4.852  17.058 -0.2283  1.2496 -0.4533
 3847TIP3    H232957   6.598   4.911  17.060  0.2946  0.0361 -0.1737
 3848TIP3   OH232958   5.738   2.951   5.187  0.1367  0.1491  0.2190
 3848TIP3    H132959   5.827   2.963   5.153  0.1099  1.1240  0.4569
 3848TIP3    H232960   5.699   2.885   5.130  0.6752  0.4627 -0.5375
 3849TIP3   OH232961   6.297   3.588  15.107  0.4759 -0.3993  0.7981
 3849TIP3    H132962   6.352   3.514  15.133 -0.9581 -0.7624  3.0658
 3849TIP3    H232963   6.358   3.662  15.098  2.2127 -2.0253 -3.0997
 3850TIP3   OH232964   1.755   3.168  16.555 -0.8798 -0.6337 -0.3063
 3850TIP3    H132965   1.661   3.188  16.547 -0.7574 -0.1940 -0.7371
 3850TIP3    H232966   1.781   3.140  16.467 -0.9078 -2.1590  0.1524
 3851TIP3   OH232967   0.122   1.594   2.466 -0.3710 -0.1903 -0.6066
 3851TIP3    H132968   0.091   1.509   2.497  0.5474 -0.7692 -1.2552
 3851TIP3    H232969   0.092   1.656   2.533 -0.7696 -1.0598  0.0329
 3852TIP3   OH232970   1.300   0.378  11.292  0.7359 -0.5851  0.0659
 3852TIP3    H132971   1.296   0.444  11.361 -1.2159 -1.1531  0.5333
 3852TIP3    H232972   1.381   0.330  11.310  0.0007 -1.0909  2.3262
 3853TIP3   OH232973   2.111   3.474  17.424  0.0053  0.0229 -0.4232
 3853TIP3    H132974   2.119   3.554  17.476 -0.7474  0.0685 -0.3562
 3853TIP3    H232975   2.060   3.500  17.348  0.6976 -0.1538 -0.9523
 3854TIP3   OH232976   1.096   5.572   1.779 -0.1522  0.0644 -0.1604
 3854TIP3    H132977   1.108   5.550   1.687 -0.2893 -0.6890 -0.0078
 3854TIP3    H232978   1.001   5.563   1.793 -0.0969 -0.0991  0.1182
 3855TIP3   OH232979   1.144   5.512   5.064  0.3167  0.4677 -0.2417
 3855TIP3    H132980   1.063   5.461   5.053  0.8234 -0.1884 -1.0372
 3855TIP3    H232981   1.213   5.446   5.071  0.5715  0.9161  2.9968
 3856TIP3   OH232982   5.777   1.232   0.847 -0.3019 -0.4693  0.0421
 3856TIP3    H132983   5.796   1.138   0.845  0.7123 -0.2730  0.3814
 3856TIP3    H232984   5.826   1.267   0.773 -1.2668 -0.3011 -0.5353
 3857TIP3   OH232985   5.507   5.508  11.259  0.0514  0.0174  0.2536
 3857TIP3    H132986   5.597   5.537  11.274  0.2598 -1.4198  2.0769
 3857TIP3    H232987   5.472   5.571  11.195  3.1730 -0.9424 -2.7261
 3858TIP3   OH232988   1.422   3.185  13.852  0.4652 -0.1250 -0.2975
 3858TIP3    H132989   1.333   3.215  13.871  0.3539 -0.8244  0.2865
 3858TIP3    H232990   1.470   3.198  13.933  0.8622  0.0772 -0.5579
 3859TIP3   OH232991   5.781   2.633  13.457 -0.2948  0.1904 -0.8545
 3859TIP3    H132992   5.876   2.626  13.470 -0.4759  0.3944  0.8567
 3859TIP3    H232993   5.770   2.648  13.363  1.3465 -0.1274 -1.1234
 3860TIP3   OH232994   4.544   6.582   1.109 -0.5559 -0.8457  0.0395
 3860TIP3    H132995   4.497   6.647   1.161  0.0478  0.0214 -0.4724
 3860TIP3    H232996   4.491   6.572   1.030 -0.4744 -0.7403 -0.0271
 3861TIP3   OH232997   3.531   2.488   0.808  0.0559  0.7002 -0.2599
 3861TIP3    H132998   3.461   2.536   0.852 -0.4585  0.0634 -0.3731
 3861TIP3    H232999   3.488   2.443   0.736  0.4060 -0.4387  0.2208
 3862TIP3   OH233000   3.764   5.270   2.218  0.1637 -0.0749 -0.2035
 3862TIP3    H133001   3.841   5.311   2.179  0.9004  0.2631  1.5312
 3862TIP3    H233002   3.795   5.186   2.250 -0.4690 -0.4202 -0.4797
 3863TIP3   OH233003   2.819   1.773   1.075 -0.3612 -0.0822  0.1754
 3863TIP3    H133004   2.869   1.849   1.044  0.6389 -0.7822  0.0541
 3863TIP3    H233005   2.742   1.771   1.017  0.1699  0.1700 -0.5598
 3864TIP3   OH233006   1.066   2.308   4.797 -0.2836 -0.2481 -0.1527
 3864TIP3    H133007   1.087   2.283   4.887  1.4800 -0.9588 -0.7025
 3864TIP3    H233008   1.032   2.397   4.803  0.2060 -0.1316  1.1655
 3865TIP3   OH233009   0.303   3.797  16.765 -0.1514  0.1748  0.0631
 3865TIP3    H133010   0.331   3.788  16.674  1.4988 -0.3952  0.5925
 3865TIP3    H233011   0.255   3.880  16.767  2.9127  2.1176 -0.6383
 3866TIP3   OH233012   4.613   2.971   5.706 -0.4160  0.1829  0.1381
 3866TIP3    H133013   4.649   3.032   5.640 -1.7525 -0.0558 -0.8655
 3866TIP3    H233014   4.684   2.910   5.724 -0.1429 -0.0196 -1.4564
 3867TIP3   OH233015   3.571   4.806  12.036  0.7604 -0.5941  0.0314
 3867TIP3    H133016   3.532   4.892  12.050  0.4172 -1.0229  1.9243
 3867TIP3    H233017   3.657   4.825  11.997  0.4876  0.5633 -0.0460
 3868TIP3   OH233018   0.033   4.546   3.762 -0.0141 -0.2751  0.0951
 3868TIP3    H133019   0.002   4.456   3.776 -1.4565  0.1920  0.1548
 3868TIP3    H233020   0.005   4.567   3.673  0.0122  0.2154  0.1983
 3869TIP3   OH233021   2.787   1.462   5.381 -0.2555  0.0246 -0.7429
 3869TIP3    H133022   2.783   1.367   5.394  1.0209  0.2965  2.6831
 3869TIP3    H233023   2.865   1.476   5.327  0.9992 -0.8049  0.7806
 3870TIP3   OH233024   5.286   2.619   1.268 -0.1133 -0.7142  0.2648
 3870TIP3    H133025   5.277   2.714   1.278 -0.7993 -0.7005 -0.4188
 3870TIP3    H233026   5.289   2.605   1.173  1.1478 -1.2759  0.3692
 3871TIP3   OH233027   6.474   5.294   3.808 -0.5613 -0.4573 -0.1929
 3871TIP3    H133028   6.549   5.263   3.758 -0.3230  0.8606 -0.6980
 3871TIP3    H233029   6.397   5.269   3.756 -0.3787 -0.2777 -0.5495
 3872TIP3   OH233030   6.312   2.094   3.419 -0.0192 -0.0771 -0.4387
 3872TIP3    H133031   6.363   2.066   3.343  0.9893 -1.0407  0.5629
 3872TIP3    H233032   6.366   2.161   3.461  0.6969 -1.4360  0.8899
 3873TIP3   OH233033   6.108   1.857   6.016  0.0135  0.7051 -0.6047
 3873TIP3    H133034   6.149   1.928   6.065  0.9543  1.5137 -2.4617
 3873TIP3    H233035   6.142   1.777   6.055 -0.2617  1.2647  0.8473
 3874TIP3   OH233036   3.960   1.305   5.874 -0.3666 -0.0072  0.7974
 3874TIP3    H133037   3.882   1.258   5.845 -0.0901  0.7729 -1.3681
 3874TIP3    H233038   3.977   1.271   5.962 -1.2479 -2.5532  0.0699
 3875TIP3   OH233039   4.168   1.435   1.531 -0.3752  0.0465 -0.0287
 3875TIP3    H133040   4.095   1.484   1.494 -0.9587 -0.8306 -0.0733
 3875TIP3    H233041   4.173   1.465   1.622 -0.8760  0.0229  0.0102
 3876TIP3   OH233042   6.139   5.170   4.889 -0.5965  0.3124 -0.4552
 3876TIP3    H133043   6.195   5.187   4.965  0.5474 -0.7918 -1.0170
 3876TIP3    H233044   6.074   5.108   4.922  0.4208 -0.8482 -0.5536
 3877TIP3   OH233045   1.567   2.588   1.130  0.1986  0.1587 -0.0623
 3877TIP3    H133046   1.592   2.517   1.071 -2.3213 -1.3620  0.5456
 3877TIP3    H233047   1.555   2.545   1.215 -2.1355  1.1172  0.1495
 3878TIP3   OH233048   0.868   6.218  12.486 -0.1021  0.7380 -0.0268
 3878TIP3    H133049   0.914   6.190  12.407 -0.1784 -0.5996  0.3694
 3878TIP3    H233050   0.838   6.136  12.526  2.4662  1.0578  2.9616
 3879TIP3   OH233051   3.789   2.165  12.605  0.7299 -0.6971  0.5277
 3879TIP3    H133052   3.859   2.195  12.546  0.8320 -1.0499  0.4699
 3879TIP3    H233053   3.803   2.215  12.686 -0.3864  1.0057 -0.2731
 3880TIP3   OH233054   1.333   4.282  16.654 -0.2920  0.0330 -0.3479
 3880TIP3    H133055   1.332   4.364  16.603 -1.2232  0.5994  0.5492
 3880TIP3    H233056   1.310   4.309  16.743 -3.4408 -1.5411 -0.5606
 3881TIP3   OH233057   5.725   3.523   3.860  0.1706  0.1019 -0.3665
 3881TIP3    H133058   5.802   3.503   3.913 -0.5864  0.4759  0.9217
 3881TIP3    H233059   5.760   3.572   3.785  1.0504  1.4852  0.8898
 3882TIP3   OH233060   2.903   5.170   0.341  0.1514 -0.3952 -0.4459
 3882TIP3    H133061   2.922   5.126   0.258  0.5501  0.1284 -0.6394
 3882TIP3    H233062   2.967   5.134   0.402  0.1893 -0.4115 -0.4950
 3883TIP3   OH233063   6.692   1.278  12.116 -0.9877  0.9530 -0.6707
 3883TIP3    H133064   6.705   1.262  12.022  0.5522 -0.9619 -0.1798
 3883TIP3    H233065   6.597   1.292  12.124 -1.1220  1.4477 -2.5317
 3884TIP3   OH233066   3.234   5.665  11.360 -0.0775 -0.7193  0.5469
 3884TIP3    H133067   3.265   5.659  11.270 -1.3793 -2.4235  0.1683
 3884TIP3    H233068   3.278   5.592  11.405 -1.4753 -1.5575  0.6082
 3885TIP3   OH233069   0.940   0.168   4.527  0.4250  0.4425  0.2676
 3885TIP3    H133070   0.874   0.152   4.594 -0.4842  2.1694 -0.1667
 3885TIP3    H233071   0.896   0.221   4.461  2.3696  2.1511  0.2267
 3886TIP3   OH233072   0.235   2.870   3.303  1.2310  0.0705  0.4264
 3886TIP3    H133073   0.305   2.809   3.327  0.2071 -1.4108 -0.2014
 3886TIP3    H233074   0.168   2.815   3.261 -0.0794  1.5095  0.5244
 3887TIP3   OH233075   4.150   2.907   5.541 -0.9610  0.3229 -0.0312
 3887TIP3    H133076   4.237   2.869   5.525 -1.0663  0.5465 -1.2082
 3887TIP3    H233077   4.166   2.971   5.611 -0.0548  0.7428 -0.5918
 3888TIP3   OH233078   5.933   4.003  13.323  0.2380 -0.1432  0.5616
 3888TIP3    H133079   5.927   3.976  13.232 -1.7296  2.6729 -0.2592
 3888TIP3    H233080   6.027   4.002  13.342  0.6332 -1.5425 -1.1883
 3889TIP3   OH233081   2.639   5.846   0.645  0.1843  0.3361  0.2926
 3889TIP3    H133082   2.733   5.828   0.651  0.1984  0.8052  1.8951
 3889TIP3    H233083   2.613   5.869   0.734 -1.5874 -0.4091  0.0186
 3890TIP3   OH233084   0.278   4.499   2.349  0.3424  0.0400  0.2900
 3890TIP3    H133085   0.228   4.477   2.271  0.2091 -1.8108  0.8500
 3890TIP3    H233086   0.290   4.415   2.395 -0.6690  1.2040  2.9041
 3891TIP3   OH233087   2.816   2.671   5.848  0.2040  0.4641 -0.1011
 3891TIP3    H133088   2.874   2.595   5.859 -0.7448 -0.2302  0.2267
 3891TIP3    H233089   2.786   2.691   5.936 -0.1375  0.7500 -0.2828
 3892TIP3   OH233090   6.079   4.990  13.524  0.2591  0.2438  0.1455
 3892TIP3    H133091   6.081   4.894  13.521  0.6193  0.2693 -2.5017
 3892TIP3    H233092   6.143   5.017  13.458 -0.6508  2.3136  0.0539
 3893TIP3   OH233093   2.760   4.395  14.844  0.7714 -0.2104  0.8560
 3893TIP3    H133094   2.694   4.332  14.872  0.0969 -0.2510 -0.7098
 3893TIP3    H233095   2.757   4.392  14.748  1.3895  1.5040  0.7482
 3894TIP3   OH233096   5.766   2.460   2.801  0.0722  0.0377  0.1448
 3894TIP3    H133097   5.789   2.535   2.745 -0.8039 -0.0511 -0.3476
 3894TIP3    H233098   5.748   2.389   2.739  0.3766 -0.4300  0.5930
 3895TIP3   OH233099   1.952   3.360  16.626  0.4869  0.6223 -0.2571
 3895TIP3    H133100   2.005   3.343  16.548 -0.5245  2.0188 -1.3016
 3895TIP3    H233101   1.871   3.312  16.610  0.4718  0.5077  0.1698
 3896TIP3   OH233102   5.878   3.461  14.213 -0.2883 -0.1345  0.2337
 3896TIP3    H133103   5.807   3.512  14.176  0.6698  2.0419  1.2317
 3896TIP3    H233104   5.859   3.457  14.307  0.5777 -0.0224  0.4259
 3897TIP3   OH233105   2.067   2.387   3.004  0.1583  0.5257 -1.2150
 3897TIP3    H133106   2.081   2.398   3.098  1.2393 -0.6792 -1.1967
 3897TIP3    H233107   1.972   2.385   2.994  0.0257 -0.2079 -0.0162
 3898TIP3   OH233108   6.594   0.029  16.925  0.1167  0.0762  0.5853
 3898TIP3    H133109   6.562   0.093  16.989  0.9024  0.5143  0.5421
 3898TIP3    H233110   6.670  -0.011  16.967 -1.0243 -1.6747  1.0970
 3899TIP3   OH233111   5.910   5.502   6.282  0.1697 -0.2041  0.2565
 3899TIP3    H133112   5.939   5.589   6.255 -0.0357  0.4833  2.1289
 3899TIP3    H233113   5.894   5.510   6.376 -1.8182 -1.7249  0.1160
 3900TIP3   OH233114   1.672   5.515   7.062  0.0919 -0.0866  0.0390
 3900TIP3    H133115   1.763   5.504   7.088 -0.2140  0.3892  1.4353
 3900TIP3    H233116   1.623   5.456   7.119 -0.3753 -1.5962 -1.8168
 3901TIP3   OH233117   5.897   3.465  14.853 -0.0434  0.4223  0.5764
 3901TIP3    H133118   5.981   3.492  14.815 -0.4505 -0.1369 -0.7804
 3901TIP3    H233119   5.831   3.495  14.791 -0.7132 -0.8177  0.6398
 3902TIP3   OH233120   1.925   6.048   4.009 -0.5498 -0.3695  0.2929
 3902TIP3    H133121   1.882   5.998   4.078  0.3586 -0.8135  0.5422
 3902TIP3    H233122   1.897   6.138   4.025 -2.5049 -0.7906 -0.3815
 3903TIP3   OH233123   1.508   1.203  12.014  0.2204 -0.0133 -0.7070
 3903TIP3    H133124   1.524   1.165  11.927 -0.7562  2.6436 -2.1776
 3903TIP3    H233125   1.595   1.211  12.053  0.7395 -0.7670 -1.6598
 3904TIP3   OH233126   6.166   1.020  14.831 -0.3909 -0.2231 -0.4449
 3904TIP3    H133127   6.183   1.097  14.885 -0.9012  2.9308 -4.2948
 3904TIP3    H233128   6.253   0.989  14.804 -0.1883 -1.0731  1.0540
 3905TIP3   OH233129   5.248   0.745   4.663 -0.3756 -0.2429  0.2112
 3905TIP3    H133130   5.295   0.819   4.701  0.2351  0.7587 -2.2781
 3905TIP3    H233131   5.295   0.726   4.582  0.1819 -4.1656  1.2479
 3906TIP3   OH233132   2.080   4.823   1.797  0.3376 -0.8503  0.1183
 3906TIP3    H133133   2.033   4.739   1.807 -0.2254 -0.6091 -0.4090
 3906TIP3    H233134   2.167   4.807   1.834  0.4522 -1.8629 -0.5658
 3907TIP3   OH233135   0.163   4.328  12.943 -0.7131 -0.5027  0.1488
 3907TIP3    H133136   0.218   4.257  12.910  0.0522 -0.0890  0.5010
 3907TIP3    H233137   0.166   4.318  13.038 -1.4540 -0.6193  0.1665
 3908TIP3   OH233138   3.690   1.564   4.322 -0.1421 -0.3180  0.2299
 3908TIP3    H133139   3.615   1.510   4.298  1.0995 -3.1419  2.2185
 3908TIP3    H233140   3.674   1.587   4.414  0.7042  0.3899  0.2106
 3909TIP3   OH233141   3.001   0.234   1.834 -0.4748  0.0039 -0.3969
 3909TIP3    H133142   3.049   0.159   1.799 -0.7366 -0.5224  0.3337
 3909TIP3    H233143   3.069   0.293   1.866 -0.2923 -0.8793  0.9159
 3910TIP3   OH233144   0.970   3.790  11.587  0.0651  0.0656 -0.7040
 3910TIP3    H133145   0.998   3.795  11.679  1.4886 -0.7669 -1.0518
 3910TIP3    H233146   1.005   3.870  11.548  1.2159 -0.5239 -0.9297
 3911TIP3   OH233147   2.351   1.387  12.104  0.3942 -0.1992 -0.5569
 3911TIP3    H133148   2.431   1.433  12.131  0.4587 -0.7007  0.1302
 3911TIP3    H233149   2.300   1.380  12.184  0.0690 -0.6990 -0.8082
 3912TIP3   OH233150   3.022   3.034  12.059 -0.0796  0.4951 -1.0676
 3912TIP3    H133151   3.056   3.040  11.970  2.3826 -0.7762 -0.2967
 3912TIP3    H233152   3.010   2.940  12.074 -0.1288  0.6629  0.0369
 3913TIP3   OH233153   4.219   0.979  15.660 -0.6648  0.2322 -0.1002
 3913TIP3    H133154   4.129   1.004  15.641 -1.3444  1.0152  3.3890
 3913TIP3    H233155   4.251   1.048  15.718  1.6651 -0.8498  0.0217
 3914TIP3   OH233156   4.465   1.779  15.792 -0.1992  0.6522 -0.0278
 3914TIP3    H133157   4.482   1.701  15.846 -3.5271  1.1374  2.0418
 3914TIP3    H233158   4.424   1.745  15.713 -0.9887  0.2051  0.5530
 3915TIP3   OH233159   4.664   0.038   1.969 -0.5009 -0.8141 -0.4215
 3915TIP3    H133160   4.656  -0.053   1.942  1.2453 -1.5878  1.3759
 3915TIP3    H233161   4.574   0.070   1.974 -1.3398 -3.1808  1.2061
 3916TIP3   OH233162   1.307   6.298   0.727  0.2670 -0.0170 -0.3544
 3916TIP3    H133163   1.261   6.305   0.811 -1.2393  1.3747 -1.2284
 3916TIP3    H233164   1.281   6.212   0.693 -1.5914  0.6407 -0.7128
 3917TIP3   OH233165   3.850   4.820  11.965  0.0714  0.2593 -0.0776
 3917TIP3    H133166   3.921   4.776  12.014  0.6514 -1.5365 -2.3251
 3917TIP3    H233167   3.872   4.913  11.970  2.0568 -0.1695  0.1110
 3918TIP3   OH233168   5.844   5.858   2.119 -0.5175  0.1321  0.4202
 3918TIP3    H133169   5.932   5.874   2.152 -0.2964  0.3289 -0.2432
 3918TIP3    H233170   5.845   5.766   2.092 -0.3530  0.2689 -0.0534
 3919TIP3   OH233171   5.189   0.957  16.613  0.0994 -0.1519  0.2446
 3919TIP3    H133172   5.098   0.986  16.604  0.0520 -0.0470  1.0134
 3919TIP3    H233173   5.238   1.038  16.630  0.7134  0.1468 -2.5507
 3920TIP3   OH233174   6.559   1.112  13.310 -0.6675  0.6288  0.3824
 3920TIP3    H133175   6.551   1.067  13.226  0.4047 -0.4190  0.8098
 3920TIP3    H233176   6.646   1.151  13.308  0.1586 -0.9713  1.6810
 3921TIP3   OH233177   5.928   1.012   0.726 -0.6014 -0.3692  0.1728
 3921TIP3    H133178   5.918   0.972   0.813 -1.7307 -0.9798 -0.2170
 3921TIP3    H233179   6.022   1.009   0.709 -0.5514 -1.9751  0.5706
 3922TIP3   OH233180   4.413   0.785  14.048 -0.2897 -0.2067  0.2651
 3922TIP3    H133181   4.372   0.868  14.024  0.3353 -0.4662 -1.9785
 3922TIP3    H233182   4.499   0.788  14.006  0.6673 -1.0489  2.0827
 3923TIP3   OH233183   5.968   3.799  11.066 -0.3471 -0.2817  0.5348
 3923TIP3    H133184   6.063   3.799  11.076 -0.1405  2.3572 -0.6343
 3923TIP3    H233185   5.941   3.888  11.089 -2.0901  0.0049 -2.1048
 3924TIP3   OH233186   4.801   3.895   1.224 -0.6593  0.1231  0.2484
 3924TIP3    H133187   4.846   3.818   1.189  0.3699  0.5104  0.6602
 3924TIP3    H233188   4.797   3.956   1.151  1.5881  0.9770  0.7556
 3925TIP3   OH233189   5.947   5.099   4.285  0.3226 -0.1926  0.2948
 3925TIP3    H133190   5.927   5.006   4.278 -2.6271  0.2406  1.5313
 3925TIP3    H233191   5.971   5.125   4.196 -1.3505 -1.6735 -0.6550
 3926TIP3   OH233192   3.405   5.924   1.801 -0.6054 -0.0553  0.5998
 3926TIP3    H133193   3.427   6.016   1.813  2.8440 -0.5634 -0.5950
 3926TIP3    H233194   3.415   5.909   1.707  1.5991 -2.1454  1.0647
 3927TIP3   OH233195   6.013   2.939  13.300 -0.4778  1.1628  0.1629
 3927TIP3    H133196   6.049   3.025  13.320 -0.5982  1.3465 -0.3983
 3927TIP3    H233197   5.926   2.939  13.340  0.0404  0.8059  1.3141
 3928TIP3   OH233198   3.549   4.508   1.165  0.5198  0.2464 -0.6998
 3928TIP3    H133199   3.636   4.467   1.160  0.4360  0.0451 -0.4932
 3928TIP3    H233200   3.529   4.512   1.258  0.0915 -0.1650 -0.7679
 3929TIP3   OH233201   2.339   1.273  14.518 -0.0089  0.1682  0.1699
 3929TIP3    H133202   2.277   1.332  14.561 -1.7966 -0.9787 -0.7117
 3929TIP3    H233203   2.424   1.316  14.528 -0.1667 -0.1102  5.0540
 3930TIP3   OH233204   2.001   5.985  14.143  0.2989 -0.6743  0.4062
 3930TIP3    H133205   1.936   6.043  14.104 -2.6865 -3.0708  1.4365
 3930TIP3    H233206   2.055   5.956  14.070  0.6801  1.8370 -0.3984
 3931TIP3   OH233207   2.669   1.363  16.381  0.1087  0.2479  0.0790
 3931TIP3    H133208   2.742   1.301  16.373  0.1003  0.2838 -0.2938
 3931TIP3    H233209   2.595   1.309  16.409  0.1660  0.1373  0.0167
 3932TIP3   OH233210   3.252   2.098   0.156  0.0112 -0.1654  0.1847
 3932TIP3    H133211   3.281   2.111   0.065  0.5530 -0.2887  0.3334
 3932TIP3    H233212   3.328   2.058   0.199 -0.1738  0.0824  0.7429
 3933TIP3   OH233213   1.165   4.594   4.746  0.4605 -0.6356  0.0243
 3933TIP3    H133214   1.127   4.682   4.742  0.6990 -0.5386 -0.1396
 3933TIP3    H233215   1.092   4.536   4.726  0.5950 -0.4061 -1.2316
 3934TIP3   OH233216   4.140   2.287  13.451 -0.3345 -0.0828  0.6191
 3934TIP3    H133217   4.180   2.243  13.526 -0.6242 -0.9995  0.2511
 3934TIP3    H233218   4.204   2.277  13.380 -1.1978 -1.5954  0.0157
 3935TIP3   OH233219   3.101   4.203  13.494 -0.1981 -0.0080 -0.0617
 3935TIP3    H133220   3.152   4.284  13.502  1.1165 -0.6773 -1.2714
 3935TIP3    H233221   3.164   4.133  13.513 -1.6655 -0.7613  2.5809
 3936TIP3   OH233222   2.949   0.871  17.158  0.3540 -0.4028 -0.1151
 3936TIP3    H133223   3.043   0.862  17.174  0.4549  1.2640  0.4589
 3936TIP3    H233224   2.944   0.898  17.066  0.3331 -1.7045 -0.5135
 3937TIP3   OH233225   4.381   6.687  14.589  0.0448 -0.1196  0.4148
 3937TIP3    H133226   4.473   6.661  14.598 -0.2343 -0.8547  1.3654
 3937TIP3    H233227   4.337   6.608  14.558 -0.1448  0.4692 -0.8693
 3938TIP3   OH233228   3.150   2.360   1.585  0.7761 -0.4911  0.2072
 3938TIP3    H133229   3.193   2.352   1.500  1.5042  1.1809  0.3916
 3938TIP3    H233230   3.061   2.327   1.570  1.2087 -1.1934 -0.9235
 3939TIP3   OH233231   0.997   0.994  14.694  0.0085  0.2287 -0.0665
 3939TIP3    H133232   0.958   0.916  14.734  1.5854 -0.1951  0.7095
 3939TIP3    H233233   0.947   1.007  14.614  0.6659 -2.5318 -1.0490
 3940TIP3   OH233234   4.048   1.361   6.351  0.0263 -1.3701 -0.8194
 3940TIP3    H133235   3.980   1.356   6.419  1.2894 -0.9361  0.5359
 3940TIP3    H233236   4.130   1.341   6.397  0.7895 -2.2946 -2.4980
 3941TIP3   OH233237   5.470   0.691   1.599  0.1670 -0.0191  0.2186
 3941TIP3    H133238   5.521   0.622   1.642 -0.7346 -1.1968 -0.5219
 3941TIP3    H233239   5.413   0.725   1.668  0.4009 -0.2397  0.5240
 3942TIP3   OH233240   2.077   6.238  15.814  0.5532 -0.2378  0.2054
 3942TIP3    H133241   2.070   6.312  15.755  0.8349 -0.9972 -0.8027
 3942TIP3    H233242   2.150   6.186  15.779 -1.1308 -2.2346 -0.5413
 3943TIP3   OH233243   0.877   2.742  15.969  0.2077  0.1514  0.1586
 3943TIP3    H133244   0.917   2.705  16.047  1.5067  0.9523 -0.1041
 3943TIP3    H233245   0.786   2.760  15.994  0.4090 -0.2935  1.2375
 3944TIP3   OH233246   4.681   4.741   2.141 -0.4649  0.0212 -0.3676
 3944TIP3    H133247   4.590   4.763   2.119 -0.7466 -0.7545 -0.0235
 3944TIP3    H233248   4.692   4.771   2.231 -1.1181 -1.9161  0.4090
 3945TIP3   OH233249   0.210   6.688   2.187  0.0754 -0.3930 -0.5851
 3945TIP3    H133250   0.247   6.765   2.230  0.3653 -1.4708  1.1769
 3945TIP3    H233251   0.282   6.625   2.184 -0.2560 -0.7383 -1.6790
 3946TIP3   OH233252   0.801   0.257  14.245 -0.5035  0.1636 -0.4146
 3946TIP3    H133253   0.786   0.308  14.166 -0.4849  1.1385  0.2004
 3946TIP3    H233254   0.847   0.178  14.214  2.7085  2.0874 -0.9902
 3947TIP3   OH233255   1.351   5.751  16.607  0.4459 -0.1731  0.0067
 3947TIP3    H133256   1.408   5.824  16.630  0.1422  0.5253 -1.4022
 3947TIP3    H233257   1.275   5.791  16.565  0.6652 -1.3262 -1.5558
 3948TIP3   OH233258   3.372   3.828   1.994  0.1914  0.0171  0.3019
 3948TIP3    H133259   3.399   3.786   1.912  0.7389  0.2070  0.3767
 3948TIP3    H233260   3.404   3.918   1.986 -0.9229  0.4157  0.1689
 3949TIP3   OH233261   1.066   3.101   0.096  0.5317  0.2772  0.1004
 3949TIP3    H133262   0.972   3.090   0.104  0.6432 -0.7094  0.1582
 3949TIP3    H233263   1.104   3.026   0.143  1.3155 -0.1897 -1.2106
 3950TIP3   OH233264   2.706   4.038  13.679  0.0122 -0.2429  0.1905
 3950TIP3    H133265   2.613   4.036  13.704 -0.0029  2.7243  0.8128
 3950TIP3    H233266   2.726   4.131  13.671  2.9205 -0.8040 -0.1376
 3951TIP3   OH233267   1.777   3.884  12.909 -0.0480 -0.0626 -0.2134
 3951TIP3    H133268   1.731   3.920  12.984 -0.5885 -0.7800 -0.1935
 3951TIP3    H233269   1.863   3.859  12.943  0.2469  0.9301 -0.1711
 3952TIP3   OH233270   3.452   1.742  11.550  0.1892  0.5392 -0.5651
 3952TIP3    H133271   3.431   1.686  11.476 -2.1528 -1.1492  1.2305
 3952TIP3    H233272   3.444   1.831  11.516 -1.6592 -0.1691 -2.1392
 3953TIP3   OH233273   0.563   0.628   4.500 -0.2340 -0.0880 -0.0200
 3953TIP3    H133274   0.495   0.695   4.499  1.7904  2.0854  0.3085
 3953TIP3    H233275   0.616   0.646   4.422  0.9630 -0.6546  0.6420
 3954TIP3   OH233276   5.811   1.039   3.677 -0.2673  0.3032 -0.2583
 3954TIP3    H133277   5.885   1.053   3.736 -0.7004 -1.1156  0.6657
 3954TIP3    H233278   5.851   1.024   3.591  0.4566  0.6207  0.0156
 3955TIP3   OH233279   5.383   0.752  11.405  0.5480 -0.5427  0.1313
 3955TIP3    H133280   5.299   0.763  11.361  0.6112 -3.8330 -1.0630
 3955TIP3    H233281   5.440   0.818  11.365 -1.0707  0.8944  0.0770
 3956TIP3   OH233282   6.188   2.481   2.731 -0.1598  0.3910 -0.0109
 3956TIP3    H133283   6.160   2.553   2.674  0.2756 -0.9961 -2.0996
 3956TIP3    H233284   6.244   2.427   2.675  0.5572 -0.9100  1.8647
 3957TIP3   OH233285   5.285   0.972   1.336  0.3003 -0.2595  0.4072
 3957TIP3    H133286   5.196   0.964   1.301  0.1658  0.0889  0.6621
 3957TIP3    H233287   5.336   1.010   1.265  0.2980 -0.6647  0.1842
 3958TIP3   OH233288   0.730   0.912   1.587 -0.0430  0.0743 -0.2587
 3958TIP3    H133289   0.662   0.936   1.650  0.2886 -0.3335  0.2660
 3958TIP3    H233290   0.775   0.994   1.567 -0.5621  0.3128 -0.4601
 3959TIP3   OH233291   3.268   3.230   3.088 -0.3066 -0.3402 -0.4215
 3959TIP3    H133292   3.206   3.229   3.161 -1.1380  0.8812 -1.0697
 3959TIP3    H233293   3.297   3.140   3.080 -0.9803 -0.6853  0.7612
 3960TIP3   OH233294   0.885   6.048  15.523 -0.0021  0.3363 -0.0807
 3960TIP3    H133295   0.890   5.968  15.470 -0.8520  0.3263 -0.1600
 3960TIP3    H233296   0.799   6.044  15.564 -0.3792  1.5768 -0.6874
 3961TIP3   OH233297   1.819   5.484  15.215 -0.1602 -0.1873 -0.5133
 3961TIP3    H133298   1.892   5.534  15.250 -2.3288  2.4704  0.5455
 3961TIP3    H233299   1.809   5.515  15.125  0.5438 -1.2284 -0.9651
 3962TIP3   OH233300   4.299   1.149   4.501  0.0956  0.2769 -0.6549
 3962TIP3    H133301   4.266   1.222   4.449 -0.2532  1.6235  1.3325
 3962TIP3    H233302   4.347   1.191   4.573 -0.2277 -1.4317  0.6129
 3963TIP3   OH233303   5.907   6.670  14.606 -0.8123 -0.7416  0.5563
 3963TIP3    H133304   5.943   6.710  14.686  0.8292 -0.7238 -0.1430
 3963TIP3    H233305   5.814   6.691  14.608 -0.4931  0.7328  1.6076
 3964TIP3   OH233306   3.512   0.212   5.774  0.4748 -0.0898  0.8653
 3964TIP3    H133307   3.580   0.274   5.800 -0.3859  1.1168  0.3664
 3964TIP3    H233308   3.452   0.264   5.720  1.1517 -1.9833 -1.9447
 3965TIP3   OH233309   1.678   6.418  15.570 -0.1043  0.0236  0.0595
 3965TIP3    H133310   1.722   6.443  15.651 -0.8011 -2.6918  1.3942
 3965TIP3    H233311   1.718   6.334  15.547  1.6250  1.6563 -3.7316
 3966TIP3   OH233312   5.574   3.040  14.764 -0.2407  0.1063  0.5572
 3966TIP3    H133313   5.622   3.099  14.706  0.3345  1.0821  1.9488
 3966TIP3    H233314   5.577   3.084  14.849 -1.7374 -0.8776  1.1543
 3967TIP3   OH233315   1.390   0.414   1.865  0.2262 -0.3091 -0.2764
 3967TIP3    H133316   1.463   0.471   1.887 -1.5768  1.9113  0.4232
 3967TIP3    H233317   1.321   0.474   1.836 -0.8551 -2.4015 -2.4208
 3968TIP3   OH233318   4.103   1.561   1.780 -0.0729 -0.2648  0.7660
 3968TIP3    H133319   4.040   1.630   1.761 -0.3417 -0.9933 -1.2329
 3968TIP3    H233320   4.149   1.591   1.858 -0.4949  1.9422  0.2225
 3969TIP3   OH233321   3.157   0.414  11.823 -0.0026 -0.2825 -0.2554
 3969TIP3    H133322   3.160   0.363  11.904 -0.5630 -1.8504 -1.1612
 3969TIP3    H233323   3.178   0.503  11.849 -1.4670 -0.4801  1.8244
 3970TIP3   OH233324   6.472   3.190  12.237 -0.1708  0.0017 -0.2042
 3970TIP3    H133325   6.398   3.213  12.293 -0.1473  0.8062 -0.4886
 3970TIP3    H233326   6.436   3.192  12.148  0.6635  2.6399 -0.5729
 3971TIP3   OH233327   6.607   3.410  14.188 -0.3571  0.0026  0.1159
 3971TIP3    H133328   6.521   3.413  14.231 -0.5624  0.4100 -0.3214
 3971TIP3    H233329   6.604   3.480  14.123  1.3090  1.9082  1.9476
 3972TIP3   OH233330   2.465   2.603   5.594  0.2370 -0.5116 -0.2875
 3972TIP3    H133331   2.390   2.622   5.538  0.5982  1.1025 -0.2654
 3972TIP3    H233332   2.472   2.679   5.652  1.4559 -0.9593  0.1950
 3973TIP3   OH233333   4.245   6.456   6.383 -0.1326  0.3840  0.3308
 3973TIP3    H133334   4.257   6.538   6.430 -0.7906  1.0864 -0.6959
 3973TIP3    H233335   4.151   6.450   6.367 -0.0948 -0.5630  0.3711
 3974TIP3   OH233336   4.979   1.474  13.936 -0.2870 -0.2989 -0.1985
 3974TIP3    H133337   4.976   1.378  13.928 -0.8170 -0.4088  0.9868
 3974TIP3    H233338   4.906   1.494  13.994  2.5338  0.3618  3.4554
 3975TIP3   OH233339   5.461   0.150   2.608 -0.1347  0.2699 -0.3294
 3975TIP3    H133340   5.410   0.228   2.586 -0.0420  0.2520 -0.6097
 3975TIP3    H233341   5.499   0.121   2.524  1.2044  0.8960  0.0327
 3976TIP3   OH233342   1.115   1.010   6.436  0.6008  0.0055 -0.2275
 3976TIP3    H133343   1.058   1.080   6.470  0.6820  0.6163 -1.3016
 3976TIP3    H233344   1.202   1.051   6.431  0.3857  0.3127 -2.1944
 3977TIP3   OH233345   4.885   2.767  11.044 -0.0934  0.2437  0.2900
 3977TIP3    H133346   4.841   2.755  10.959  0.8766  1.6857 -0.4688
 3977TIP3    H233347   4.855   2.694  11.098 -1.6913 -0.0340 -0.9031
 3978TIP3   OH233348   1.217   0.381   5.814 -0.5033  0.1610 -0.2841
 3978TIP3    H133349   1.274   0.319   5.770 -0.6794 -0.4189  0.2839
 3978TIP3    H233350   1.214   0.457   5.756  1.2609  0.4316 -0.0687
 3979TIP3   OH233351   1.677   3.483  12.983 -0.1683 -0.4440  0.6150
 3979TIP3    H133352   1.731   3.537  13.040  0.3915  0.4547 -0.7299
 3979TIP3    H233353   1.683   3.524  12.897 -2.0206 -1.0228  0.1542
 3980TIP3   OH233354   6.450   1.497  12.835  0.3550 -0.1098  0.0201
 3980TIP3    H133355   6.389   1.519  12.905  1.4968  0.4738  0.8830
 3980TIP3    H233356   6.415   1.417  12.796 -1.1323  0.4152  0.2399
 3981TIP3   OH233357   3.462   6.698  11.094  0.2457  0.2451 -0.1840
 3981TIP3    H133358   3.510   6.622  11.059  0.0076 -0.8969  1.8147
 3981TIP3    H233359   3.531   6.761  11.117  0.4533  0.6427 -1.7595
 3982TIP3   OH233360   4.787   6.277  11.535 -1.2039  0.5263  0.1790
 3982TIP3    H133361   4.848   6.332  11.584 -2.5452  0.2712  2.2116
 3982TIP3    H233362   4.728   6.339  11.492 -1.4856  0.7042  0.8262
 3983TIP3   OH233363   6.182   3.826  14.008  0.2109  0.1683 -0.3025
 3983TIP3    H133364   6.195   3.744  13.960 -0.5990  0.4735 -1.0740
 3983TIP3    H233365   6.260   3.877  13.989  1.1155 -0.7223  0.8539
 3984TIP3   OH233366   1.580   5.537  14.192  0.3610  0.4237  0.0716
 3984TIP3    H133367   1.538   5.584  14.121  1.3606  0.4087 -0.5381
 3984TIP3    H233368   1.618   5.459  14.151 -0.1037 -0.2252  0.8345
 3985TIP3   OH233369   6.146   4.125  14.902 -0.2415  0.6985  0.3159
 3985TIP3    H133370   6.229   4.081  14.885 -0.9888 -1.3981  1.7295
 3985TIP3    H233371   6.096   4.063  14.956 -2.6346  1.9733 -0.2801
 3986TIP3   OH233372   4.886   2.782   2.126 -0.2304 -0.2886 -0.0753
 3986TIP3    H133373   4.856   2.795   2.036 -0.9766 -0.1436  0.1828
 3986TIP3    H233374   4.830   2.841   2.178  0.1510 -0.4163  0.4876
 3987TIP3   OH233375   2.400   1.307  16.165  0.0483 -0.1695  0.3271
 3987TIP3    H133376   2.433   1.379  16.218  1.7404 -2.1957  2.2284
 3987TIP3    H233377   2.458   1.305  16.088  0.5205 -0.0332  0.6789
 3988TIP3   OH233378   4.174   3.285  12.042  0.4150 -0.3819  0.1279
 3988TIP3    H133379   4.200   3.202  12.083  1.9895 -0.3383 -0.6914
 3988TIP3    H233380   4.257   3.325  12.016 -0.3788  1.0527 -0.2670
 3989TIP3   OH233381   4.232   3.367   2.591 -0.0377  0.2065 -0.3976
 3989TIP3    H133382   4.297   3.306   2.624 -0.8740 -0.2508  0.4759
 3989TIP3    H233383   4.207   3.419   2.668 -1.8066 -0.6655 -0.3267
 3990TIP3   OH233384   4.360   1.647  13.986  0.0260 -0.1563  0.6509
 3990TIP3    H133385   4.380   1.593  13.909  1.6963  2.7425 -1.1257
 3990TIP3    H233386   4.379   1.590  14.061  2.8792 -1.6752 -1.0715
 3991TIP3   OH233387   3.187   4.440   5.915  0.3303  0.2642 -0.1436
 3991TIP3    H133388   3.109   4.492   5.896 -0.4349 -0.4527  0.8749
 3991TIP3    H233389   3.154   4.350   5.922  1.3501 -0.1261 -0.2500
 3992TIP3   OH233390   0.814   5.482  16.936  0.5739 -0.3196  0.1571
 3992TIP3    H133391   0.805   5.523  16.850 -0.2794  0.5588  0.6440
 3992TIP3    H233392   0.883   5.417  16.924  1.4312  0.7201 -0.8586
 3993TIP3   OH233393   3.656   0.457   3.757 -0.3172  0.3177  0.0888
 3993TIP3    H133394   3.665   0.549   3.730  3.3536  0.8387  2.3618
 3993TIP3    H233395   3.628   0.462   3.848  2.5791 -0.5528  1.1296
 3994TIP3   OH233396   4.913   0.692   3.276  0.2513 -0.6533 -0.2670
 3994TIP3    H133397   4.821   0.664   3.267  0.2221 -0.3569 -0.9077
 3994TIP3    H233398   4.911   0.786   3.258  0.7704 -0.7498 -0.8380
 3995TIP3   OH233399   4.282   4.999  12.129 -0.1671 -0.0455 -0.3760
 3995TIP3    H133400   4.206   4.963  12.175  0.0941 -1.1490 -0.7891
 3995TIP3    H233401   4.357   4.950  12.162  0.4574  1.3561  0.3790
 3996TIP3   OH233402   6.560   0.430  13.964 -1.1233  0.2503 -0.6496
 3996TIP3    H133403   6.599   0.515  13.941 -2.1980  1.1557  0.7038
 3996TIP3    H233404   6.557   0.382  13.881 -0.0245  1.3250 -1.3572
 3997TIP3   OH233405   0.061   3.847   0.939 -0.1982 -0.0280  0.0719
 3997TIP3    H133406   0.082   3.764   0.982 -0.8981 -0.8323 -1.0504
 3997TIP3    H233407   0.121   3.851   0.864  0.6291  1.0695  0.7724
 3998TIP3   OH233408   0.579   5.663  16.174 -0.4207  0.3100 -0.3742
 3998TIP3    H133409   0.638   5.683  16.101 -1.3036  1.0439 -0.9046
 3998TIP3    H233410   0.549   5.749  16.205  1.1151  0.1251  1.8815
 3999TIP3   OH233411   1.832   3.320  14.598  0.3316 -0.2524  0.1975
 3999TIP3    H133412   1.846   3.414  14.587 -1.7099 -0.1520 -2.7594
 3999TIP3    H233413   1.786   3.311  14.682 -0.3130  1.4957  0.0510
 4000TIP3   OH233414   6.230   0.311  14.966 -0.5437 -0.8462 -0.2877
 4000TIP3    H133415   6.140   0.335  14.945 -0.2848  0.5036  0.0099
 4000TIP3    H233416   6.254   0.371  15.037  1.0558 -0.1681 -1.3370
 4001TIP3   OH233417   6.209   2.455   4.232 -0.2785  0.0277  0.1018
 4001TIP3    H133418   6.293   2.493   4.204  0.4518 -2.2166 -1.0933
 4001TIP3    H233419   6.152   2.530   4.247  1.9586  1.6595  1.0852
 4002TIP3   OH233420   2.043   4.734  16.548  0.1346  0.3815 -0.3662
 4002TIP3    H133421   2.041   4.764  16.639 -0.6225 -1.0410  0.1146
 4002TIP3    H233422   2.035   4.639  16.554 -0.3978  0.2942 -1.9453
 4003TIP3   OH233423   4.295   4.491   1.843  0.0886  0.1575  0.1373
 4003TIP3    H133424   4.334   4.435   1.777  2.1495 -2.1913  3.0907
 4003TIP3    H233425   4.206   4.457   1.853  0.0841 -0.1027 -0.7229
 4004TIP3   OH233426   1.302   2.822   3.230  0.1490  0.0027 -0.1155
 4004TIP3    H133427   1.341   2.781   3.153  1.5433 -1.1102  1.1272
 4004TIP3    H233428   1.360   2.896   3.250  0.1534 -0.0877  0.2150
 4005TIP3   OH233429   1.645   1.116   2.998  0.0657  0.0315  0.3975
 4005TIP3    H133430   1.700   1.174   3.051 -0.9280  1.4852 -0.1025
 4005TIP3    H233431   1.671   1.028   3.024  2.6871  0.6327  0.1437
 4006TIP3   OH233432   0.308   1.923  16.463  0.1846  0.2130 -0.7993
 4006TIP3    H133433   0.329   1.992  16.526 -1.3635  0.7594 -0.8293
 4006TIP3    H233434   0.362   1.944  16.387  3.0615 -1.1909  0.6827
 4007TIP3   OH233435   6.659   0.847  14.291 -0.4759  0.0771  0.0331
 4007TIP3    H133436   6.641   0.758  14.262  1.1431 -0.8288  1.5436
 4007TIP3    H233437   6.736   0.874  14.240  0.7412 -0.5130  1.4564
 4008TIP3   OH233438   4.672   0.982  17.197 -0.1780 -0.2996  0.2220
 4008TIP3    H133439   4.722   0.919  17.144 -2.8815 -1.1633 -1.5097
 4008TIP3    H233440   4.727   1.060  17.200  1.9856 -1.7150 -0.0788
 4009TIP3   OH233441   6.674   0.634   4.601 -0.1888  0.4460  0.5359
 4009TIP3    H133442   6.646   0.571   4.535 -1.2369  1.1335  0.3169
 4009TIP3    H233443   6.755   0.672   4.566  0.2380 -0.4762  0.4890
 4010TIP3   OH233444   3.998   0.545  13.712  0.1388  0.4725  0.0702
 4010TIP3    H133445   4.087   0.581  13.709 -0.2032  1.6477  2.2292
 4010TIP3    H233446   3.948   0.608  13.763 -1.7348 -0.6394 -0.2881
 4011TIP3   OH233447   3.919   3.178   0.566  0.4328 -0.0790 -0.2672
 4011TIP3    H133448   3.856   3.123   0.611 -0.2900  0.1870 -0.9276
 4011TIP3    H233449   3.957   3.122   0.499 -0.6516  0.3268 -1.2567
 4012TIP3   OH233450   6.361   1.695  11.312  0.6664  0.6591  0.5873
 4012TIP3    H133451   6.350   1.629  11.243 -0.9608  0.1443  1.2959
 4012TIP3    H233452   6.437   1.665  11.362 -1.0610 -1.7522  1.9872
 4013TIP3   OH233453   4.513   5.753  11.055  0.0492  0.1623  0.3220
 4013TIP3    H133454   4.469   5.829  11.016 -1.5356 -0.7566  0.2237
 4013TIP3    H233455   4.581   5.730  10.991  1.0000  1.8272  0.6464
 4014TIP3   OH233456   0.310   5.839  15.016 -0.3364 -0.2761  0.0945
 4014TIP3    H133457   0.405   5.846  15.018 -0.2220 -0.9772 -1.4026
 4014TIP3    H233458   0.288   5.789  15.095  0.4209  0.8018  1.0130
 4015TIP3   OH233459   2.215   0.181  17.335 -0.1735  0.2323  0.4301
 4015TIP3    H133460   2.148   0.246  17.355 -0.1122  0.2418  0.6050
 4015TIP3    H233461   2.166   0.105  17.303 -0.1409  1.3468 -2.6408
 4016TIP3   OH233462   0.703   4.001   5.945 -0.1755 -0.0075 -0.2478
 4016TIP3    H133463   0.657   4.025   5.864 -1.5014  0.2759  0.5630
 4016TIP3    H233464   0.638   3.954   5.997  1.4285 -2.6688 -0.4579
 4017TIP3   OH233465   1.688   1.441   2.855  0.3444  0.0927  0.2003
 4017TIP3    H133466   1.685   1.452   2.760 -2.6975  1.5932  0.3663
 4017TIP3    H233467   1.620   1.376   2.873 -1.0678  1.8517  1.5028
 4018TIP3   OH233468   5.909   4.509  11.864  0.5231 -0.0257  0.1124
 4018TIP3    H133469   5.908   4.573  11.935  0.0719  0.8164 -0.6396
 4018TIP3    H233470   5.988   4.528  11.814 -0.2437  0.7707 -0.8314
 4019TIP3   OH233471   4.536   3.156   1.889 -0.3940 -0.0870  0.4373
 4019TIP3    H133472   4.455   3.143   1.839 -1.1760 -1.1742  1.9172
 4019TIP3    H233473   4.543   3.078   1.945  1.3833  0.2542  0.7581
 4020TIP3   OH233474   3.645   2.312   1.984  0.2194  0.8171  0.0894
 4020TIP3    H133475   3.670   2.231   1.940  1.3793  1.4110 -0.3597
 4020TIP3    H233476   3.596   2.282   2.062  1.0455 -0.3265  0.1919
 4021TIP3   OH233477   6.615   4.310   4.943  0.0426 -0.0000 -0.2648
 4021TIP3    H133478   6.566   4.292   5.023 -0.2388 -1.4856 -0.7523
 4021TIP3    H233479   6.706   4.317   4.971 -0.1345  0.1395  0.2731
 4022TIP3   OH233480   1.262   4.398   2.073 -0.2939 -0.2186 -0.0891
 4022TIP3    H133481   1.231   4.467   2.015 -0.2637  0.0101  0.1670
 4022TIP3    H233482   1.357   4.401   2.066 -0.2987 -0.3378 -0.1997
 4023TIP3   OH233483   0.875   2.399  10.992 -0.3233  0.3938  0.0996
 4023TIP3    H133484   0.911   2.359  10.912 -0.0503  0.1767  0.3301
 4023TIP3    H233485   0.849   2.487  10.965  0.6412  0.6567 -0.0087
 4024TIP3   OH233486   2.621   0.873  11.730  0.5655 -0.1507 -0.5131
 4024TIP3    H133487   2.675   0.795  11.718  2.0964  0.5011  1.6301
 4024TIP3    H233488   2.684   0.943  11.749 -0.7014  1.8060 -2.9250
 4025TIP3   OH233489   5.840   3.497  10.619 -0.1809  0.0672 -0.2187
 4025TIP3    H133490   5.848   3.546  10.701  1.1683 -0.1329 -0.1993
 4025TIP3    H233491   5.889   3.550  10.555  0.8379 -0.9581 -0.3206
 4026TIP3   OH233492   1.478   2.987  12.323 -0.6586 -0.0204 -0.5170
 4026TIP3    H133493   1.422   3.057  12.356 -1.2256  0.3797 -2.1805
 4026TIP3    H233494   1.442   2.907  12.360 -0.0492  0.5263  1.3548
 4027TIP3   OH233495   4.058   3.661   1.910  0.2238 -0.2761 -0.0022
 4027TIP3    H133496   4.123   3.713   1.957 -2.4115  3.0371  0.4015
 4027TIP3    H233497   4.081   3.671   1.818  2.3664 -2.3706  0.2286
 4028TIP3   OH233498   2.719   3.335  11.350  0.0671 -0.5764 -0.1613
 4028TIP3    H133499   2.742   3.249  11.315  0.6269 -0.0862 -1.0535
 4028TIP3    H233500   2.721   3.393  11.274  1.3383  0.5323  0.6737
 4029TIP3   OH233501   4.393   2.101  15.647 -0.1682  0.1333  0.2362
 4029TIP3    H133502   4.455   2.076  15.715  0.2041 -0.2424 -0.2309
 4029TIP3    H233503   4.440   2.165  15.593 -0.8552  1.3129  0.9834
 4030TIP3   OH233504   4.417   2.703  15.819  0.2809 -0.0893  0.4033
 4030TIP3    H133505   4.471   2.702  15.898 -0.7482  0.8169  1.1345
 4030TIP3    H233506   4.327   2.701  15.851 -0.1769  1.3241 -0.6994
 4031TIP3   OH233507   0.516   5.117  16.238  0.0692 -0.1761  0.3473
 4031TIP3    H133508   0.517   5.199  16.188  0.2817 -0.1873  0.3321
 4031TIP3    H233509   0.596   5.121  16.291  0.8405 -1.0229 -0.7092
 4032TIP3   OH233510   4.148   2.578   6.317 -0.6884 -0.3288  0.1243
 4032TIP3    H133511   4.236   2.563   6.351 -0.9233  1.1631  1.5361
 4032TIP3    H233512   4.093   2.587   6.395 -1.8065  0.2234 -0.6967
 4033TIP3   OH233513   4.932   1.224  13.800  0.5146 -0.1875  0.1372
 4033TIP3    H133514   4.920   1.130  13.785 -0.1669 -0.2063  0.7804
 4033TIP3    H233515   4.887   1.265  13.726 -1.2013 -0.3313  1.0435
 4034TIP3   OH233516   0.952   6.228  16.415  0.0131 -1.0486  0.3144
 4034TIP3    H133517   0.888   6.299  16.409  0.7090 -0.5003 -0.8401
 4034TIP3    H233518   1.037   6.271  16.416  0.4009 -1.7832  1.7141
 4035TIP3   OH233519   5.038   1.489  15.076  0.2350 -0.1651  0.4489
 4035TIP3    H133520   5.114   1.454  15.029  0.0785 -0.0395  0.0988
 4035TIP3    H233521   5.043   1.583  15.061 -0.0469 -0.1679  0.3444
 4036TIP3   OH233522   4.984   3.782   4.921  0.3873  0.0293  0.4912
 4036TIP3    H133523   5.045   3.845   4.883 -0.1622  2.0093  2.6406
 4036TIP3    H233524   4.899   3.826   4.919 -0.6087 -1.7960 -0.4564
 4037TIP3   OH233525   4.562   2.143  16.615 -0.1300  0.2622 -0.2329
 4037TIP3    H133526   4.578   2.234  16.590  1.2543  0.3481  0.8743
 4037TIP3    H233527   4.514   2.107  16.541 -2.3911  2.3672  0.0807
 4038TIP3   OH233528   5.982   2.064   0.891  0.3011 -0.2744 -0.4986
 4038TIP3    H133529   5.924   2.125   0.845  1.2269 -0.3896 -1.9069
 4038TIP3    H233530   5.948   2.060   0.980 -0.9287  0.8135 -0.8894
 4039TIP3   OH233531   2.865   2.788  15.321 -0.4493  0.8269  0.1332
 4039TIP3    H133532   2.832   2.819  15.236  1.0830  0.8097 -0.4956
 4039TIP3    H233533   2.829   2.850  15.384  0.4229  2.3630 -0.8207
 4040TIP3   OH233534   2.284   2.814  11.961  0.4380  0.6194 -0.5020
 4040TIP3    H133535   2.192   2.823  11.986  0.7428  2.1222  0.1755
 4040TIP3    H233536   2.286   2.739  11.901 -1.2686  0.7670 -0.7723
 4041TIP3   OH233537   2.182   5.753   6.760  0.4208 -0.1287  0.4354
 4041TIP3    H133538   2.234   5.816   6.810  0.3146  0.6407 -0.3935
 4041TIP3    H233539   2.246   5.688   6.731  1.5747  2.1755 -2.8008
 4042TIP3   OH233540   4.868   6.623   4.950 -0.0085  0.4162 -0.5299
 4042TIP3    H133541   4.922   6.588   5.021 -1.8441 -1.0354  0.2256
 4042TIP3    H233542   4.824   6.546   4.913 -1.5484  1.5239 -1.1064
 4043TIP3   OH233543   6.326   1.560  17.345  0.1058 -0.0151  0.1151
 4043TIP3    H133544   6.254   1.548  17.407  0.1923 -1.3143 -0.0197
 4043TIP3    H233545   6.405   1.552  17.399  0.1733 -0.5444 -0.0646
 4044TIP3   OH233546   0.086   0.353   3.546  0.6387  0.3799 -0.1481
 4044TIP3    H133547   0.109   0.294   3.473 -0.6505 -0.6155  0.2155
 4044TIP3    H233548   0.115   0.306   3.624  1.0868  0.9797  0.0442
 4045TIP3   OH233549   5.677   2.913  12.629  0.2052  0.0422  0.0288
 4045TIP3    H133550   5.647   2.992  12.585  0.8278  0.4268  0.2718
 4045TIP3    H233551   5.704   2.855  12.559 -1.8913 -0.6688 -0.2442
 4046TIP3   OH233552   3.421   2.686  16.464  0.0869 -0.0367 -0.2037
 4046TIP3    H133553   3.511   2.718  16.462 -0.3643  1.3862  0.9993
 4046TIP3    H233554   3.418   2.619  16.395  1.2104  2.1596 -2.5570
 4047TIP3   OH233555   3.779   1.442  16.693 -0.0990  0.1057  0.0927
 4047TIP3    H133556   3.737   1.424  16.777 -0.5768  1.3181  0.1327
 4047TIP3    H233557   3.872   1.453  16.715 -0.1570 -0.0123  0.4019
 4048TIP3   OH233558   3.034   0.619  14.885 -0.9717 -0.6320 -0.2791
 4048TIP3    H133559   2.962   0.588  14.939 -0.0287 -0.3335  1.2009
 4048TIP3    H233560   3.011   0.710  14.864  0.4571  0.7085  3.1269
 4049TIP3   OH233561   3.954   5.549  14.429  1.2422  0.6929 -0.3509
 4049TIP3    H133562   3.956   5.534  14.334  0.7093 -0.2222 -0.2289
 4049TIP3    H233563   3.987   5.638  14.440  0.0561  1.3082 -1.5055
 4050TIP3   OH233564   4.931   1.345   3.830  0.5939  0.1049  0.5182
 4050TIP3    H133565   4.902   1.283   3.763 -0.4274  0.9828  0.1139
 4050TIP3    H233566   4.960   1.422   3.780  0.1976  0.6148  1.0712
 4051TIP3   OH233567   1.127   4.570  14.474  0.1576 -0.4000 -0.8769
 4051TIP3    H133568   1.106   4.485  14.510 -1.6011  0.9189  1.4544
 4051TIP3    H233569   1.044   4.604  14.440  0.5152  0.8991 -0.5394
 4052TIP3   OH233570   3.737   3.822  12.123  0.5488  0.9559 -0.0657
 4052TIP3    H133571   3.819   3.852  12.161  0.2936  1.3071  0.2088
 4052TIP3    H233572   3.710   3.748  12.177 -0.2918  2.0299  1.0335
 4053TIP3   OH233573   0.947   1.321   1.322 -0.7255 -0.3750  0.1183
 4053TIP3    H133574   1.036   1.317   1.289 -0.9014  0.3123 -0.4631
 4053TIP3    H233575   0.899   1.255   1.271 -0.4671 -1.0556  0.7355
 4054TIP3   OH233576   5.451   0.246  15.973  0.2902 -0.1296 -0.3885
 4054TIP3    H133577   5.417   0.324  16.016 -1.4207 -1.3613  0.6194
 4054TIP3    H233578   5.385   0.224  15.907  0.9015 -0.5443 -0.8729
 4055TIP3   OH233579   2.103   6.138   4.934  0.4691  0.7545  0.4547
 4055TIP3    H133580   2.090   6.122   4.840  0.0099  0.2945  0.5938
 4055TIP3    H233581   2.069   6.226   4.948  2.9199  1.9257 -0.2949
 4056TIP3   OH233582   0.631   6.737  13.810 -0.0152 -0.5227  0.0770
 4056TIP3    H133583   0.667   6.656  13.776  0.9318 -0.6148  1.2185
 4056TIP3    H233584   0.628   6.797  13.735 -0.6349 -1.5597 -0.7488
 4057TIP3   OH233585   6.620   0.877   5.869  0.4861 -0.3460 -0.3086
 4057TIP3    H133586   6.698   0.887   5.923  1.2894 -0.8930 -1.3062
 4057TIP3    H233587   6.562   0.820   5.920  0.1064  1.2094  1.0560
 4058TIP3   OH233588   1.646   1.856  14.700 -0.1116 -0.4085 -0.3496
 4058TIP3    H133589   1.675   1.784  14.643 -1.7557 -2.6095  1.4034
 4058TIP3    H233590   1.552   1.864  14.681 -0.7251 -1.2790  2.0481
 4059TIP3   OH233591   3.767   6.319  14.833 -0.6027 -0.0380  0.1310
 4059TIP3    H133592   3.850   6.351  14.797  0.0915 -0.0471  1.6437
 4059TIP3    H233593   3.705   6.328  14.761  1.0509 -1.6173 -1.6078
 4060TIP3   OH233594   0.055   0.417  15.268  0.4135 -0.2780  0.0246
 4060TIP3    H133595  -0.016   0.407  15.332  1.5678 -1.1425  1.2223
 4060TIP3    H233596   0.033   0.355  15.198 -0.8671  0.6905 -0.4713
 4061TIP3   OH233597   1.558   5.380  13.116 -0.2099  0.0257 -0.1519
 4061TIP3    H133598   1.569   5.462  13.067 -3.4391  0.5987 -0.1891
 4061TIP3    H233599   1.481   5.339  13.077  0.7176 -2.5854  0.5397
 4062TIP3   OH233600   6.064   6.188   6.304  0.2343 -0.5071  0.0796
 4062TIP3    H133601   6.083   6.099   6.273  1.4370 -0.4731  0.6508
 4062TIP3    H233602   6.039   6.176   6.396  2.3812 -0.1009  0.7619
 4063TIP3   OH233603   1.320   1.289  14.441  0.3408  0.5312  0.2492
 4063TIP3    H133604   1.358   1.303  14.354 -0.3967  0.6395 -0.0559
 4063TIP3    H233605   1.296   1.376  14.471 -3.5377  0.1952 -1.3324
 4064TIP3   OH233606   5.050   2.189  13.189  0.3777 -0.6182  0.2279
 4064TIP3    H133607   5.017   2.219  13.273 -1.4109 -0.0002 -0.6553
 4064TIP3    H233608   5.141   2.164  13.207  0.0905 -0.3633  2.2867
 4065TIP3   OH233609   4.283   3.371  12.833  0.7004  0.2924  0.2951
 4065TIP3    H133610   4.194   3.375  12.798  0.9195  1.0020 -0.2062
 4065TIP3    H233611   4.340   3.369  12.756  1.1561  1.0272  0.5942
 4066TIP3   OH233612   6.671   6.647   1.882 -0.1773  0.0333 -0.5900
 4066TIP3    H133613   6.653   6.722   1.939 -0.5219 -0.5952  0.1543
 4066TIP3    H233614   6.685   6.574   1.943 -0.1359 -0.5695 -1.3080
 4067TIP3   OH233615   2.360   1.178  13.484 -0.4246 -0.3645  0.4522
 4067TIP3    H133616   2.329   1.223  13.562 -1.8269 -0.7950  0.1575
 4067TIP3    H233617   2.336   1.086  13.498 -0.1483 -0.5467 -0.2260
 4068TIP3   OH233618   1.234   2.647  13.391  0.0918 -0.0006  0.2010
 4068TIP3    H133619   1.155   2.679  13.435 -0.4522  0.4137 -1.0341
 4068TIP3    H233620   1.244   2.557  13.422 -1.2521 -0.2827 -0.1257
 4069TIP3   OH233621   6.528   1.298   5.207  0.1540  0.1368 -0.3286
 4069TIP3    H133622   6.494   1.290   5.296 -0.9120  0.8713 -0.6592
 4069TIP3    H233623   6.597   1.364   5.214  1.8440 -1.5932  0.4029
 4070TIP3   OH233624   4.522   4.138   5.022 -0.2380 -0.1872 -0.0735
 4070TIP3    H133625   4.491   4.149   5.112  1.4385 -0.2227  0.5401
 4070TIP3    H233626   4.444   4.112   4.973 -1.4607  1.0700  1.1068
 4071TIP3   OH233627   0.588   4.020   3.138  0.0874 -0.5976  0.0109
 4071TIP3    H133628   0.500   4.030   3.104 -0.2765 -0.1416  1.0347
 4071TIP3    H233629   0.645   4.056   3.070 -0.6032  0.1870 -0.1631
 4072TIP3   OH233630   2.077   1.889  17.233  0.2526 -0.3092  0.4406
 4072TIP3    H133631   2.128   1.969  17.221  0.6896 -0.7575 -0.9545
 4072TIP3    H233632   2.022   1.883  17.154  0.4602 -1.5365  0.3611
 4073TIP3   OH233633   0.311   6.175  14.356 -0.8661  0.1397  0.1318
 4073TIP3    H133634   0.271   6.103  14.309  1.9676 -2.0464  0.7547
 4073TIP3    H233635   0.365   6.133  14.423 -0.0062  2.8976  1.3311
 4074TIP3   OH233636   4.468   1.553  12.912 -0.0388  0.1006 -0.1843
 4074TIP3    H133637   4.526   1.587  12.980 -0.0256 -0.6408  0.1855
 4074TIP3    H233638   4.451   1.463  12.938 -0.6741  0.0491 -0.7451
 4075TIP3   OH233639   5.297   4.732   2.807 -0.3220  0.8715 -0.5440
 4075TIP3    H133640   5.377   4.782   2.791  0.5151 -0.8954 -2.1409
 4075TIP3    H233641   5.277   4.690   2.724 -3.5750  2.0896 -0.5171
 4076TIP3   OH233642   0.230   0.284   3.792  0.3050  0.5275 -0.2579
 4076TIP3    H133643   0.231   0.331   3.876 -0.9475  0.1181  0.0049
 4076TIP3    H233644   0.299   0.327   3.740  1.6745  0.2473  1.2413
 4077TIP3   OH233645   2.336   2.333   5.414  0.3008 -0.3352 -0.9042
 4077TIP3    H133646   2.281   2.408   5.435 -0.4351 -0.9821 -0.4742
 4077TIP3    H233647   2.386   2.317   5.494 -1.3305 -1.8016 -0.1267
 4078TIP3   OH233648   4.686   3.708  15.000  0.4238  0.0276 -0.6251
 4078TIP3    H133649   4.624   3.697  14.927  0.4229  2.3477 -1.0376
 4078TIP3    H233650   4.636   3.683  15.078 -0.9559  1.5118 -0.9941
 4079TIP3   OH233651   2.200   2.929   2.874  0.8230  0.4597 -0.3766
 4079TIP3    H133652   2.202   3.021   2.900  1.0229  0.1620  0.7173
 4079TIP3    H233653   2.193   2.881   2.956  1.4429 -0.5366 -0.8842
 4080TIP3   OH233654   0.897   0.940  12.226  0.2460  0.8970  0.6328
 4080TIP3    H133655   0.904   0.845  12.236  0.6361  0.9522  0.9554
 4080TIP3    H233656   0.811   0.955  12.188  0.1055  0.4250  0.7630
 4081TIP3   OH233657   5.979   3.343  13.112  0.2663 -0.6966 -0.1705
 4081TIP3    H133658   5.898   3.355  13.063  0.5881  0.6752 -0.3914
 4081TIP3    H233659   6.041   3.307  13.048 -0.0044 -1.2592 -0.1269
 4082TIP3   OH233660   5.391   0.978   0.242  0.2814 -0.2636 -0.2682
 4082TIP3    H133661   5.431   1.035   0.177  0.2586 -1.7895 -1.6875
 4082TIP3    H233662   5.418   1.014   0.326  0.0221  1.9692 -1.0957
 4083TIP3   OH233663   5.389   1.436   3.382 -0.0842  0.5244  0.0713
 4083TIP3    H133664   5.397   1.480   3.297  0.0590  1.2682  0.4576
 4083TIP3    H233665   5.450   1.483   3.439 -1.4623  1.2194  1.0407
 4084TIP3   OH233666   5.907   4.742  16.516  0.3012  0.2146 -0.0904
 4084TIP3    H133667   5.906   4.836  16.534  0.2347  0.2253 -0.1522
 4084TIP3    H233668   5.992   4.725  16.476  1.6527 -0.2586  2.6923
 4085TIP3   OH233669   5.592   4.458  16.978 -0.2648  1.0117 -0.0517
 4085TIP3    H133670   5.614   4.443  16.886  0.5868 -0.5353  0.3627
 4085TIP3    H233671   5.677   4.468  17.021 -0.4102 -1.6425  1.0588
 4086TIP3   OH233672   6.337   6.557   2.257  0.2581  0.1827  0.1047
 4086TIP3    H133673   6.264   6.508   2.295  1.3479 -2.8454 -1.3652
 4086TIP3    H233674   6.320   6.555   2.163  1.4005  0.8719 -0.1314
 4087TIP3   OH233675   2.211   0.537   4.458  0.1193  0.1945 -0.1928
 4087TIP3    H133676   2.161   0.456   4.449 -0.3556  0.6141 -1.6033
 4087TIP3    H233677   2.162   0.601   4.406  1.3974  0.9650 -0.4876
 4088TIP3   OH233678   3.713   6.262  17.145  0.0705  0.2870 -0.1541
 4088TIP3    H133679   3.747   6.202  17.079  0.2197  1.7262 -1.4509
 4088TIP3    H233680   3.791   6.305  17.181 -0.1187  0.8718 -0.4250
 4089TIP3   OH233681   4.845   6.421   0.533  0.0350 -0.5334 -0.4185
 4089TIP3    H133682   4.851   6.418   0.628  1.3194  0.0827 -0.4556
 4089TIP3    H233683   4.783   6.492   0.516  0.8663  0.3190 -0.0285
 4090TIP3   OH233684   6.539   4.646   1.946  0.0482 -0.3562 -0.4772
 4090TIP3    H133685   6.522   4.620   1.855  0.1886 -0.1571 -0.5612
 4090TIP3    H233686   6.513   4.570   1.998 -0.6506 -0.2295 -0.6358
 4091TIP3   OH233687   4.590   1.995   5.241 -0.2550  0.6145  0.4594
 4091TIP3    H133688   4.609   2.052   5.166  3.3762 -1.9035 -0.7825
 4091TIP3    H233689   4.512   1.946   5.214  1.0049 -0.2759 -1.8258
 4092TIP3   OH233690   6.638   4.304  16.004  0.6248 -0.1184  0.2475
 4092TIP3    H133691   6.563   4.333  16.056  1.4598  2.0882  0.3010
 4092TIP3    H233692   6.697   4.264  16.068 -0.0196 -0.9642  0.3475
 4093TIP3   OH233693   5.623   4.321   5.431 -0.4929  0.0433  0.1915
 4093TIP3    H133694   5.551   4.289   5.375 -0.5571 -1.5270  1.1020
 4093TIP3    H233695   5.682   4.366   5.371 -1.4513 -0.0368 -0.8447
 4094TIP3   OH233696   4.664   5.276   1.827 -0.2863  0.4200 -0.4893
 4094TIP3    H133697   4.708   5.200   1.865 -0.6407  0.4776  0.0646
 4094TIP3    H233698   4.702   5.286   1.740  0.1146 -0.0920 -0.3769
 4095TIP3   OH233699   1.113   6.406   3.764 -0.2318 -0.0934  0.3059
 4095TIP3    H133700   1.057   6.344   3.810 -0.3670 -1.1064 -1.1660
 4095TIP3    H233701   1.202   6.387   3.795 -0.5242  0.7349  1.7643
 4096TIP3   OH233702   0.372   1.043  11.508  0.9786  0.3008 -0.1323
 4096TIP3    H133703   0.413   0.958  11.496  1.5162  0.8554 -2.6247
 4096TIP3    H233704   0.299   1.026  11.568  1.3032 -1.8277 -0.2882
 4097TIP3   OH233705   0.362   3.709  15.721 -0.1815  0.8981 -0.0565
 4097TIP3    H133706   0.313   3.746  15.794 -0.3328 -0.1106  0.3704
 4097TIP3    H233707   0.425   3.777  15.698  0.6768  0.7969  1.7929
 4098TIP3   OH233708   0.289   1.303   1.246  0.1954  0.6015  0.1209
 4098TIP3    H133709   0.227   1.360   1.291 -0.0086  0.7859 -0.3922
 4098TIP3    H233710   0.309   1.349   1.164  0.1296 -0.0016 -0.2366
 4099TIP3   OH233711   5.846   4.676  15.914 -0.0591  0.2829 -0.2059
 4099TIP3    H133712   5.906   4.750  15.904  1.4905 -1.1406 -2.3917
 4099TIP3    H233713   5.790   4.681  15.837  0.0562 -0.7738 -0.3703
 4100TIP3   OH233714   4.596   3.121   3.727  0.6583 -0.3174  0.0795
 4100TIP3    H133715   4.522   3.062   3.738  0.0387  0.0634 -1.7054
 4100TIP3    H233716   4.662   3.068   3.682  0.3618  0.1208 -0.9027
 4101TIP3   OH233717   0.451   4.352  15.867  0.2138 -0.2941  0.1450
 4101TIP3    H133718   0.425   4.332  15.777 -1.6822  2.2528  0.0295
 4101TIP3    H233719   0.543   4.378  15.860 -0.6337  2.7762 -1.6944
 4102TIP3   OH233720   3.306   0.090   4.833 -0.7780  0.3800 -0.0795
 4102TIP3    H133721   3.251   0.157   4.792 -1.2775  0.1504  0.2038
 4102TIP3    H233722   3.276   0.087   4.924 -1.1124 -0.5923 -0.2163
 4103TIP3   OH233723   0.391   2.417   1.588  0.0033 -0.7838 -0.3688
 4103TIP3    H133724   0.370   2.326   1.611  1.0894 -1.2785 -1.2178
 4103TIP3    H233725   0.478   2.412   1.549 -0.6542  0.3422 -2.1149
 4104TIP3   OH233726   1.377   1.428  10.348  0.1291  0.2260 -0.2424
 4104TIP3    H133727   1.309   1.381  10.300 -1.0117  1.3047  0.2552
 4104TIP3    H233728   1.342   1.436  10.437  0.2427  2.0302 -0.3215
 4105TIP3   OH233729   1.671   5.849  14.200 -0.7704 -0.4022  0.0920
 4105TIP3    H133730   1.683   5.755  14.214 -1.1502 -0.2365  1.7605
 4105TIP3    H233731   1.703   5.865  14.111 -0.3388 -2.0373 -0.0681
 4106TIP3   OH233732   2.585   5.468   4.358  0.1958 -0.7914  0.4673
 4106TIP3    H133733   2.490   5.478   4.346  0.1043 -0.4778  1.3554
 4106TIP3    H233734   2.612   5.548   4.402  1.3784  0.4251 -2.2603
 4107TIP3   OH233735   2.379   3.903  16.015 -0.3297  0.6118  0.2862
 4107TIP3    H133736   2.344   3.859  16.092 -2.2454  0.6334 -0.5088
 4107TIP3    H233737   2.445   3.843  15.980 -1.0908 -0.4538  0.6528
 4108TIP3   OH233738   6.165   1.505  14.009  0.6199  0.0269  0.5522
 4108TIP3    H133739   6.174   1.443  13.937  3.9448  0.1068  0.7164
 4108TIP3    H233740   6.139   1.452  14.084  0.1949 -0.5785 -0.0112
 4109TIP3   OH233741   0.649   0.525  12.062 -0.1853  0.1768  0.3528
 4109TIP3    H133742   0.629   0.529  12.156 -1.3888 -0.6639  0.1612
 4109TIP3    H233743   0.611   0.441  12.034 -0.2783  0.6520 -0.9822
 4110TIP3   OH233744   1.260   1.456   4.994 -0.3551  0.5138  0.1759
 4110TIP3    H133745   1.254   1.523   4.926  1.8383 -0.1421 -0.7414
 4110TIP3    H233746   1.315   1.495   5.061 -0.5236  0.2660  0.4607
 4111TIP3   OH233747   3.733   4.231   1.658  0.1884 -0.2449 -0.0882
 4111TIP3    H133748   3.739   4.226   1.754  1.5346 -0.2227 -0.1566
 4111TIP3    H233749   3.684   4.152   1.634 -1.4236  0.4550  0.6913
 4112TIP3   OH233750   3.043   0.980   3.500  0.2294 -0.0276 -0.2675
 4112TIP3    H133751   3.124   0.959   3.455 -0.2754 -0.7412 -0.8541
 4112TIP3    H233752   3.070   0.998   3.591  0.7957 -2.3506  0.0765
 4113TIP3   OH233753   1.054   3.849  13.646 -0.4598 -0.3158 -0.5043
 4113TIP3    H133754   0.963   3.840  13.617 -0.1466 -1.6357 -1.1755
 4113TIP3    H233755   1.085   3.928  13.603 -1.2604  0.1095 -0.3306
 4114TIP3   OH233756   2.862   2.277  11.435 -0.0611 -0.3445 -0.7766
 4114TIP3    H133757   2.823   2.314  11.356  0.8815  0.8583 -0.7050
 4114TIP3    H233758   2.912   2.349  11.474  0.0332 -1.0932  0.5657
 4115TIP3   OH233759   6.258   4.548  13.590 -0.0769 -0.5182 -0.0354
 4115TIP3    H133760   6.307   4.495  13.653  2.1562  0.8458 -0.5108
 4115TIP3    H233761   6.212   4.613  13.644  1.5987  0.4697  0.2758
 4116TIP3   OH233762   1.058   1.906  15.144  0.0139 -0.3103 -0.0078
 4116TIP3    H133763   1.141   1.865  15.171  1.1107  1.1646 -0.9685
 4116TIP3    H233764   1.037   1.864  15.061  0.6729  0.4016 -0.5538
 4117TIP3   OH233765   5.260   2.072  12.795 -0.5381  0.4140 -0.3123
 4117TIP3    H133766   5.219   2.117  12.721  0.7285  2.7340  0.2741
 4117TIP3    H233767   5.341   2.121  12.810 -0.0421 -0.9049  1.6873
 4118TIP3   OH233768   4.320   2.322  14.976 -0.2364  0.1862  0.0653
 4118TIP3    H133769   4.246   2.284  14.928 -1.8943  3.0891  0.1301
 4118TIP3    H233770   4.356   2.388  14.917 -0.4274  1.7363  1.6122
 4119TIP3   OH233771   3.424   1.372  15.163  0.0996  0.5678  0.2396
 4119TIP3    H133772   3.447   1.459  15.196  1.7331  0.2702 -0.0334
 4119TIP3    H233773   3.338   1.354  15.200  0.5074  1.5664  1.7691
 4120TIP3   OH233774   5.587   2.589   1.961  0.4779 -0.5782 -0.6889
 4120TIP3    H133775   5.659   2.639   1.922  0.1412 -1.9016 -3.1467
 4120TIP3    H233776   5.631   2.527   2.020  1.0654  0.7707  0.3547
 4121TIP3   OH233777   2.199   3.507  13.570 -0.3729  0.7082 -0.2151
 4121TIP3    H133778   2.224   3.545  13.486 -1.2602  0.4801 -0.5990
 4121TIP3    H233779   2.153   3.578  13.616 -0.1480  0.7432 -0.0406
 4122TIP3   OH233780   2.010   2.801  14.863  0.1272  0.7658  0.4576
 4122TIP3    H133781   2.034   2.764  14.948  0.8989  1.8858  0.7562
 4122TIP3    H233782   1.948   2.871  14.884 -2.6261 -1.3037 -0.2230
 4123TIP3   OH233783   4.416   3.382  17.229 -0.1624  0.2058  0.0990
 4123TIP3    H133784   4.334   3.429  17.235 -0.7822 -0.4002 -2.4859
 4123TIP3    H233785   4.484   3.449  17.242 -0.9464  0.5432  3.2908
 4124TIP3   OH233786   3.818   5.704  13.338  0.0253  0.5675 -0.3922
 4124TIP3    H133787   3.739   5.725  13.389 -0.1582 -1.7187  0.3469
 4124TIP3    H233788   3.785   5.668  13.256  0.2959 -0.0153 -0.2478
 4125TIP3   OH233789   0.723   1.709   1.094 -0.8002  0.1750 -0.3562
 4125TIP3    H133790   0.707   1.786   1.039  0.4795  0.3230 -0.5411
 4125TIP3    H233791   0.749   1.745   1.178  0.6887 -0.0269 -0.7042
 4126TIP3   OH233792   1.222   5.675   5.864  0.0260  0.0091  0.5225
 4126TIP3    H133793   1.161   5.653   5.794  0.4900 -1.4348  0.5320
 4126TIP3    H233794   1.304   5.631   5.839  0.3104 -0.1937  1.7548
 4127TIP3   OH233795   2.429   2.399  14.775  0.3188 -0.5417  0.3915
 4127TIP3    H133796   2.385   2.401  14.860 -1.6012 -1.6124 -0.5186
 4127TIP3    H233797   2.522   2.392  14.797  0.0748  1.3746  2.3810
 4128TIP3   OH233798   6.373   5.166   5.854  0.2934 -0.1077 -0.0788
 4128TIP3    H133799   6.414   5.119   5.927 -0.2784 -1.1217 -0.3791
 4128TIP3    H233800   6.349   5.097   5.792 -0.0765  0.6509 -0.8032
 4129TIP3   OH233801   0.484   6.652  16.741  0.2660  0.1283 -0.5471
 4129TIP3    H133802   0.394   6.669  16.768  0.0843 -1.5822  0.0187
 4129TIP3    H233803   0.530   6.735  16.756 -0.6505  0.3056  1.5125
 4130TIP3   OH233804   3.930   3.669  14.643 -0.3995  0.1646 -0.3772
 4130TIP3    H133805   3.861   3.735  14.650 -0.9787 -0.4364 -0.3066
 4130TIP3    H233806   3.965   3.681  14.554 -0.9501  0.1328 -0.6029
 4131TIP3   OH233807   0.624   4.340  17.398  0.7776 -0.0844  0.4326
 4131TIP3    H133808   0.709   4.314  17.362  0.8662 -1.0164  1.2760
 4131TIP3    H233809   0.636   4.337  17.493 -0.0515  0.2804  0.5570
 4132TIP3   OH233810   0.616   2.835  11.958 -0.3587  0.1275  0.0820
 4132TIP3    H133811   0.649   2.839  11.868 -2.4550 -0.2277 -0.7455
 4132TIP3    H233812   0.549   2.903  11.962 -1.5643 -1.0530  0.7878
 4133TIP3   OH233813   5.013   0.684  15.559  0.3618 -0.0475 -0.1774
 4133TIP3    H133814   4.931   0.635  15.547 -0.9731  2.2406 -1.1529
 4133TIP3    H233815   5.001   0.730  15.642 -1.1389  3.2388 -2.0134
 4134TIP3   OH233816   4.804   3.981   0.766  0.1182 -0.0103 -0.0791
 4134TIP3    H133817   4.742   3.975   0.693 -0.3096 -0.0127  0.2787
 4134TIP3    H233818   4.846   3.895   0.768 -0.6751 -0.3998  0.3761
 4135TIP3   OH233819   5.695   1.225  15.314  0.1394  0.4343  0.1368
 4135TIP3    H133820   5.730   1.312  15.333 -0.3829  0.9799 -1.2659
 4135TIP3    H233821   5.661   1.232  15.224 -2.0247 -0.5319  0.8108
 4136TIP3   OH233822   6.197   1.786   2.252  0.3424  0.2840  0.2304
 4136TIP3    H133823   6.128   1.734   2.211  2.1091 -0.2530 -2.3862
 4136TIP3    H233824   6.225   1.734   2.328  0.0737 -1.1623 -0.6143
 4137TIP3   OH233825   4.238   3.975   1.767 -0.0031  0.3348 -0.3816
 4137TIP3    H133826   4.269   3.987   1.677  0.2208  0.8373 -0.2457
 4137TIP3    H233827   4.279   3.894   1.796  0.8861  0.7823 -0.3449
 4138TIP3   OH233828   5.089   3.746   0.859 -0.1959  0.3686 -0.1111
 4138TIP3    H133829   5.108   3.827   0.811  1.2526 -0.3087 -0.7343
 4138TIP3    H233830   5.124   3.677   0.804  0.8858 -0.4954  1.5873
 4139TIP3   OH233831   6.061   0.595  15.151  0.2250 -0.6798 -0.4865
 4139TIP3    H133832   6.098   0.681  15.132 -0.5164 -0.1269  0.5300
 4139TIP3    H233833   6.109   0.566  15.229 -2.3659  0.6882  1.7766
 4140TIP3   OH233834   3.605   3.706   0.931 -0.0283  0.0533 -0.1255
 4140TIP3    H133835   3.676   3.715   0.994  0.7938 -0.2581 -0.9785
 4140TIP3    H233836   3.634   3.757   0.855 -0.4681 -0.5103 -0.6856
 4141TIP3   OH233837   2.955   4.530   2.034 -0.1161  0.0153  0.3722
 4141TIP3    H133838   2.940   4.504   2.125  0.2335 -0.7030  0.2294
 4141TIP3    H233839   3.027   4.593   2.039  1.1013 -1.3566  0.4288
 4142TIP3   OH233840   1.195   1.602   2.945  0.4909  0.2179 -0.0680
 4142TIP3    H133841   1.265   1.648   2.899  0.1425  1.9219  1.0252
 4142TIP3    H233842   1.224   1.511   2.947  2.7564  0.8933  0.4922
 4143TIP3   OH233843   6.492   2.487  15.507  0.3533  0.5799  0.7013
 4143TIP3    H133844   6.509   2.455  15.418  1.9491 -1.4462  1.6511
 4143TIP3    H233845   6.424   2.554  15.496 -1.0440 -1.0808 -1.8249
 4144TIP3   OH233846   3.997   4.973   1.444  0.0890 -0.5951 -0.0308
 4144TIP3    H133847   4.037   5.033   1.507 -0.4897 -1.8017  1.5711
 4144TIP3    H233848   4.005   5.017   1.360  0.6361  1.2256  0.9214
 4145TIP3   OH233849   3.337   1.483  14.538  0.2475  0.1038  0.8535
 4145TIP3    H133850   3.258   1.437  14.508  0.2338 -0.0943  1.1886
 4145TIP3    H233851   3.310   1.574  14.546  0.2936  0.1914  0.1170
 4146TIP3   OH233852   4.775   1.018   4.841  0.1343 -0.2781 -0.2372
 4146TIP3    H133853   4.713   0.969   4.788  0.4236 -0.3803 -0.4888
 4146TIP3    H233854   4.861   0.995   4.804  0.2850  0.2884 -0.2604
 4147TIP3   OH233855   5.113   0.631   4.919 -0.3245  0.1225  0.1021
 4147TIP3    H133856   5.153   0.667   4.841 -0.2576 -0.7662 -0.2782
 4147TIP3    H233857   5.148   0.684   4.991  2.5639 -1.3921 -0.0478
 4148TIP3   OH233858   5.679   0.736  17.400  0.0430  0.1823  0.0916
 4148TIP3    H133859   5.690   0.650  17.441 -0.3385 -1.0485 -2.2144
 4148TIP3    H233860   5.590   0.736  17.368 -0.1678  1.7421  0.5931
 4149TIP3   OH233861   5.446   1.193  13.130 -0.1567 -0.0372  0.1353
 4149TIP3    H133862   5.450   1.282  13.094  1.0383 -0.7791 -1.6857
 4149TIP3    H233863   5.536   1.174  13.156 -0.0788 -1.2544 -0.9277
 4150TIP3   OH233864   6.040   1.441  14.490  0.1455  0.0423 -0.0522
 4150TIP3    H133865   6.050   1.453  14.395  2.2517  0.0257  0.1279
 4150TIP3    H233866   6.124   1.405  14.518 -0.4153  0.1499  1.8479
 4151TIP3   OH233867   2.955   0.423   1.159 -1.0924 -0.4355  0.0399
 4151TIP3    H133868   2.898   0.501   1.161 -2.5629 -1.4769  0.6547
 4151TIP3    H233869   3.022   0.441   1.225 -1.1241  0.5066 -0.1628
 4152TIP3   OH233870   2.116   3.860   1.021  0.3670 -0.2497 -0.4711
 4152TIP3    H133871   2.045   3.881   1.081  0.1321  1.3465 -1.2596
 4152TIP3    H233872   2.074   3.810   0.951  0.7573 -2.7116  0.9291
 4153TIP3   OH233873   6.489   1.647   2.474  0.3714 -0.0572  0.0415
 4153TIP3    H133874   6.458   1.558   2.489  1.0457 -0.5473 -1.3441
 4153TIP3    H233875   6.418   1.702   2.507 -0.7482 -1.1231 -0.4863
 4154TIP3   OH233876   1.319   2.471  11.850 -0.6083 -0.4037 -0.1126
 4154TIP3    H133877   1.301   2.377  11.855  0.8316 -0.6335  1.9405
 4154TIP3    H233878   1.251   2.512  11.903 -0.3856 -0.4250  0.1903
 4155TIP3   OH233879   3.093   4.806   1.904 -0.1047 -0.2053  0.0575
 4155TIP3    H133880   3.136   4.728   1.866  0.0383 -0.2109  0.2299
 4155TIP3    H233881   3.061   4.854   1.828 -1.0870 -0.9425 -0.0129
 4156TIP3   OH233882   4.965   0.802  15.798  0.1010 -0.2523  0.3507
 4156TIP3    H133883   5.027   0.765  15.862  0.1596  0.7848  0.9152
 4156TIP3    H233884   4.982   0.896  15.800  1.0146 -0.2720 -2.1638
 4157TIP3   OH233885   3.218   2.602   4.776  0.0503 -0.5302  0.2850
 4157TIP3    H133886   3.252   2.686   4.745 -0.7846 -0.3643 -0.2078
 4157TIP3    H233887   3.232   2.604   4.871  1.3449 -0.4476  0.1037
 4158TIP3   OH233888   6.740   2.273  13.866  0.4824  0.4641  0.4061
 4158TIP3    H133889   6.811   2.321  13.823  0.5819  0.8440  0.9888
 4158TIP3    H233890   6.722   2.199  13.807  1.0816  0.5921  0.0544
 4159TIP3   OH233891   1.858   5.505  12.384  0.6438  0.2252 -0.1126
 4159TIP3    H133892   1.903   5.429  12.346  1.4083  1.1781 -1.1962
 4159TIP3    H233893   1.787   5.467  12.436  0.7683 -1.2228 -0.9312
 4160TIP3   OH233894   2.884   3.114  17.001 -0.1313  0.2933  0.1938
 4160TIP3    H133895   2.821   3.060  17.048  1.2081 -0.0540  1.6675
 4160TIP3    H233896   2.841   3.199  16.993 -0.9985 -0.0870  0.6681
 4161TIP3   OH233897   4.042   3.759   6.096  0.0097  0.0827  0.2279
 4161TIP3    H133898   3.976   3.803   6.150  0.4490  2.3897 -0.9909
 4161TIP3    H233899   4.119   3.754   6.152 -0.5711 -0.8088  0.9832
 4162TIP3   OH233900   0.384   1.343  13.184  0.5807  0.4791  0.4327
 4162TIP3    H133901   0.411   1.422  13.232 -0.4754  0.7694  0.5841
 4162TIP3    H233902   0.373   1.373  13.094  1.6246  0.1495  0.1779
 4163TIP3   OH233903   5.849   6.256   4.852  0.1681 -0.0610  0.1516
 4163TIP3    H133904   5.916   6.190   4.833  0.6855  1.0861 -2.5325
 4163TIP3    H233905   5.766   6.213   4.829  0.5744  0.3984 -2.5800
 4164TIP3   OH233906   0.860   2.018   1.795 -0.2051 -0.0000 -0.0323
 4164TIP3    H133907   0.877   1.938   1.844  0.6221 -1.6604 -2.8114
 4164TIP3    H233908   0.902   2.087   1.847  1.5681 -1.7672  1.0466
 4165TIP3   OH233909   5.038   1.190  11.892  0.5699 -0.6001 -0.1490
 4165TIP3    H133910   4.944   1.178  11.880  0.7809 -1.9377 -0.7170
 4165TIP3    H233911   5.048   1.282  11.918 -0.9372 -0.5990  0.5501
 4166TIP3   OH233912   4.668   1.510  15.524 -0.4342  0.6239  0.3691
 4166TIP3    H133913   4.607   1.583  15.514 -1.4514  0.3405  3.3552
 4166TIP3    H233914   4.733   1.542  15.587 -0.5427 -0.7805  1.2566
 4167TIP3   OH233915   1.666   2.584  12.803 -0.2878  0.6970 -0.5098
 4167TIP3    H133916   1.677   2.665  12.753  1.0440  0.1386 -1.1822
 4167TIP3    H233917   1.755   2.559  12.828 -0.5850 -0.9618 -0.9823
 4168TIP3   OH233918   2.340   0.826   3.297 -0.1181 -0.0762 -0.2034
 4168TIP3    H133919   2.284   0.770   3.243  1.7033  1.3317 -3.8972
 4168TIP3    H233920   2.422   0.778   3.304 -0.5004 -0.5030  2.0074
 4169TIP3   OH233921   2.677   6.424   3.251  0.0446 -0.0391 -0.4951
 4169TIP3    H133922   2.729   6.426   3.332  0.4678 -1.1276 -0.7259
 4169TIP3    H233923   2.638   6.337   3.250  1.3694 -0.6723 -2.2833
 4170TIP3   OH233924   5.531   4.870   4.773  0.3801 -0.3577  0.2365
 4170TIP3    H133925   5.449   4.874   4.725  0.7598 -2.0250 -0.6239
 4170TIP3    H233926   5.568   4.784   4.752  2.1996  0.2120  0.8475
 4171TIP3   OH233927   5.522   2.350  10.845 -0.2340  0.2373 -0.2860
 4171TIP3    H133928   5.612   2.335  10.814 -0.4944  0.5981 -1.2374
 4171TIP3    H233929   5.485   2.262  10.854 -0.0648  0.1151 -0.7447
 4172TIP3   OH233930   3.830   6.430   0.453  0.2855 -0.3235 -0.1063
 4172TIP3    H133931   3.777   6.467   0.382 -1.3121  0.2241  1.2829
 4172TIP3    H233932   3.887   6.367   0.411 -1.0180 -0.4280 -1.8113
 4173TIP3   OH233933   6.394   0.335   1.749 -0.1533 -0.0569 -0.2998
 4173TIP3    H133934   6.381   0.331   1.844  0.7187  1.7600 -0.0573
 4173TIP3    H233935   6.384   0.428   1.727  0.9944 -0.2355 -1.7636
 4174TIP3   OH233936   2.087   4.279   5.334  0.3818 -0.1661  0.3542
 4174TIP3    H133937   2.181   4.262   5.340  0.1185 -1.6186  0.6010
 4174TIP3    H233938   2.076   4.323   5.250  1.3944  0.9914  0.7839
 4175TIP3   OH233939   6.083   6.231   4.137 -0.3550  0.3185 -0.2621
 4175TIP3    H133940   6.031   6.311   4.146 -0.0676  0.5078 -0.2844
 4175TIP3    H233941   6.134   6.244   4.057  1.3777  1.0857  0.9175
 4176TIP3   OH233942   2.968   3.636  17.191  0.7014 -0.3844  0.1316
 4176TIP3    H133943   2.925   3.570  17.135 -1.4326  0.7895  0.2736
 4176TIP3    H233944   2.932   3.719  17.160 -1.2638  0.2897  3.7258
 4177TIP3   OH233945   5.376   4.661   5.829  0.0782  0.2927 -0.5109
 4177TIP3    H133946   5.326   4.738   5.855 -0.3097 -0.3911  0.8999
 4177TIP3    H233947   5.391   4.671   5.735 -0.4992  1.7624 -0.4639
 4178TIP3   OH233948   0.062   2.400   0.129  0.1308  0.4889  0.6703
 4178TIP3    H133949  -0.009   2.429   0.187 -0.3120  0.0169  0.3732
 4178TIP3    H233950   0.048   2.306   0.120  1.0137  0.3237  0.8980
 4179TIP3   OH233951   2.311   5.821   3.019 -0.6749  0.6206 -0.1410
 4179TIP3    H133952   2.339   5.752   3.078 -0.8794 -0.0839 -0.8465
 4179TIP3    H233953   2.221   5.798   2.995 -0.4645  0.6721 -1.0251
 4180TIP3   OH233954   3.875   0.015  15.890  0.8078  0.1740 -0.0030
 4180TIP3    H133955   3.860  -0.052  15.824 -2.0191  1.7837 -1.1574
 4180TIP3    H233956   3.806   0.001  15.955  0.5975  1.5006  0.0876
 4181TIP3   OH233957   4.985   6.445   3.817  0.4387 -0.4777 -0.5661
 4181TIP3    H133958   4.983   6.472   3.725 -1.8934  1.2399 -0.0812
 4181TIP3    H233959   5.033   6.515   3.861  1.5999 -1.3245 -0.4240
 4182TIP3   OH233960   4.837   2.676  13.855  0.2021 -0.4242 -0.2459
 4182TIP3    H133961   4.772   2.703  13.790  0.7900  1.4765 -0.1207
 4182TIP3    H233962   4.809   2.719  13.936  1.5397  0.3624 -0.1723
 4183TIP3   OH233963   5.860   0.387  14.492 -0.4850  0.2084 -0.0293
 4183TIP3    H133964   5.898   0.463  14.449 -1.2270  0.5560 -0.0839
 4183TIP3    H233965   5.901   0.385  14.579 -0.5566  0.7416  0.0166
 4184TIP3   OH233966   3.568   0.554   5.674 -0.0178 -0.0766 -0.4966
 4184TIP3    H133967   3.548   0.586   5.762  1.4536 -0.2524 -0.0667
 4184TIP3    H233968   3.484   0.555   5.628 -0.5262  1.6295  0.3889
 4185TIP3   OH233969   3.633   2.693   0.125  0.1744 -0.2501  0.2744
 4185TIP3    H133970   3.571   2.760   0.155  0.7017 -0.0883  1.0317
 4185TIP3    H233971   3.578   2.626   0.085 -0.2568  1.5584 -2.4254
 4186TIP3   OH233972   6.290   5.968   0.154 -0.4305 -0.2954  0.0789
 4186TIP3    H133973   6.308   5.968   0.060  1.7570 -0.1495  0.4445
 4186TIP3    H233974   6.269   5.877   0.174  0.0341 -0.5210 -0.4168
 4187TIP3   OH233975   3.268   2.972   6.799 -0.2965 -0.3256 -0.2270
 4187TIP3    H133976   3.174   2.976   6.819 -0.5917 -0.3435 -1.5491
 4187TIP3    H233977   3.296   2.889   6.837 -0.8289 -0.3472  0.1374
 4188TIP3   OH233978   4.165   0.326  14.861 -0.1657 -0.3683 -0.2773
 4188TIP3    H133979   4.180   0.365  14.775 -1.6524 -0.3777 -0.5807
 4188TIP3    H233980   4.160   0.401  14.921  0.1811 -0.3137 -0.3157
 4189TIP3   OH233981   2.653   1.570  16.816  0.0889 -0.2818 -0.4473
 4189TIP3    H133982   2.642   1.588  16.723 -0.0631  0.4950 -0.2820
 4189TIP3    H233983   2.608   1.486  16.829 -0.5110 -0.0440 -0.9325
 4190TIP3   OH233984   4.446   2.439  15.693 -0.9585 -0.0480 -0.1031
 4190TIP3    H133985   4.462   2.515  15.749 -2.8268 -0.1752  0.6812
 4190TIP3    H233986   4.369   2.464  15.641 -1.0315 -1.0580 -0.4934
 4191TIP3   OH233987   5.884   2.973  14.159  0.1813 -0.4283  0.0631
 4191TIP3    H133988   5.816   3.039  14.162 -0.2749 -0.8981  0.2900
 4191TIP3    H233989   5.881   2.933  14.246  0.3966 -0.7981 -0.0985
 4192TIP3   OH233990   1.525   5.108   5.057  0.2640  0.5704 -0.3955
 4192TIP3    H133991   1.475   5.045   5.108  0.7280 -0.8351 -1.6062
 4192TIP3    H233992   1.617   5.088   5.077  0.4051  1.4701 -0.1014
 4193TIP3   OH233993   0.929   5.229   3.065  0.5305 -0.0065  0.1237
 4193TIP3    H133994   0.900   5.228   3.156 -1.3236  1.9755 -0.3654
 4193TIP3    H233995   0.939   5.322   3.044 -0.2834 -0.3340 -2.0052
 4194TIP3   OH233996   2.637   4.025  16.316 -0.0599 -0.1775  0.2749
 4194TIP3    H133997   2.697   3.982  16.254 -0.8507 -2.2305  0.8624
 4194TIP3    H233998   2.695   4.064  16.382  0.7230 -2.6747  1.1864
 4195TIP3   OH233999   2.862   2.638  17.436 -0.2644  0.3227  0.0592
 4195TIP3    H134000   2.817   2.562  17.470 -1.8355  1.2071  0.0260
 4195TIP3    H234001   2.882   2.616  17.345  0.4154 -0.5058  0.3953
 4196TIP3   OH234002   6.551   4.872   0.934 -0.5627 -0.0736  0.1616
 4196TIP3    H134003   6.592   4.932   0.872  0.6059 -0.8652  0.1257
 4196TIP3    H234004   6.592   4.892   1.018  0.9612 -1.7321 -0.1045
 4197TIP3   OH234005   5.869   2.847  14.394 -0.4554  0.2524 -0.5874
 4197TIP3    H134006   5.932   2.784  14.429  0.7875  1.7655 -0.0324
 4197TIP3    H234007   5.789   2.831  14.444 -0.1648 -0.8757 -0.4619
 4198TIP3   OH234008   6.532   4.023  16.822  0.0372 -0.3329  0.5362
 4198TIP3    H134009   6.446   4.064  16.820  0.5088  0.6708 -0.9729
 4198TIP3    H234010   6.555   4.010  16.730  2.0916  0.7525  0.8360
 4199TIP3   OH234011   1.779   3.067  13.996 -0.7141  0.2566  0.2448
 4199TIP3    H134012   1.868   3.038  14.015 -0.1585  3.0006  2.5439
 4199TIP3    H234013   1.724   2.991  14.017  0.5951  0.4902  6.1223
 4200TIP3   OH234014   0.236   0.751  12.610  0.1656 -0.2124  0.4428
 4200TIP3    H134015   0.314   0.720  12.657  0.3466 -0.2682  0.1037
 4200TIP3    H234016   0.247   0.846  12.604 -1.0478  0.1614  2.7147
 4201TIP3   OH234017   0.764   4.528  16.897  0.0729 -0.1596  0.1901
 4201TIP3    H134018   0.852   4.549  16.927  0.1074 -0.5390  0.3633
 4201TIP3    H234019   0.760   4.432  16.898 -0.4623 -0.1414  0.5432
 4202TIP3   OH234020   4.635   6.406   5.489 -0.0808  0.4431 -0.3503
 4202TIP3    H134021   4.562   6.452   5.448 -1.2277 -0.1761  0.8966
 4202TIP3    H234022   4.668   6.468   5.555 -0.0723  0.3808 -0.2961
 4203TIP3   OH234023   5.953   0.431  11.001 -0.1692  0.0813  0.1424
 4203TIP3    H134024   5.953   0.523  11.027  0.6454  0.2399 -0.3844
 4203TIP3    H234025   5.897   0.427  10.924 -1.3806 -0.1276  1.0188
 4204TIP3   OH234026   4.218   5.747   4.959 -0.1228 -0.1303 -0.6435
 4204TIP3    H134027   4.307   5.738   4.994  0.4050  0.5866 -1.7559
 4204TIP3    H234028   4.172   5.800   5.024  1.0746  1.8696 -1.3569
 4205TIP3   OH234029   3.126   5.643  14.411  0.1237 -0.1321 -0.1940
 4205TIP3    H134030   3.131   5.648  14.506 -0.2882 -0.7781 -0.1316
 4205TIP3    H234031   3.184   5.570  14.387  0.5605  0.3024 -0.4758
 4206TIP3   OH234032   5.467   4.827   3.207 -0.1012  0.0831  0.3328
 4206TIP3    H134033   5.447   4.745   3.162 -1.4934  0.2803  0.5466
 4206TIP3    H234034   5.501   4.800   3.293  0.2364 -0.2603  0.0973
 4207TIP3   OH234035   3.350   3.568  12.425  0.3352  0.7350  0.0755
 4207TIP3    H134036   3.343   3.479  12.390 -0.0150  1.4102 -1.6394
 4207TIP3    H234037   3.396   3.557  12.509 -0.6873 -1.1776  0.4537
 4208TIP3   OH234038   5.034   0.068   6.141 -0.5335  0.0126  0.2445
 4208TIP3    H134039   5.047   0.043   6.049 -1.4250  0.7235 -0.0905
 4208TIP3    H234040   5.075  -0.003   6.191 -0.2226 -0.4942 -0.6969
 4209TIP3   OH234041   5.295   6.400   2.200  0.0356  0.0636  0.2869
 4209TIP3    H134042   5.204   6.389   2.171  0.2220  1.4819 -0.9953
 4209TIP3    H234043   5.306   6.494   2.208  1.2075 -0.1275  1.1061
 4210TIP3   OH234044   6.337   6.143   6.442  0.2566  0.6531 -0.0821
 4210TIP3    H134045   6.377   6.202   6.505  1.6078 -1.2935  0.9985
 4210TIP3    H234046   6.245   6.138   6.469  0.5835  0.6821  1.0779
 4211TIP3   OH234047   0.495   6.079  15.223 -0.0667  0.2131 -0.0982
 4211TIP3    H134048   0.550   6.100  15.148 -0.5046 -0.3318 -0.5776
 4211TIP3    H234049   0.541   6.116  15.298  0.1136  1.2356 -0.6985
 4212TIP3   OH234050   2.897   5.132  12.779 -0.4222 -0.6886  0.2857
 4212TIP3    H134051   2.974   5.078  12.757 -0.0840 -0.6544  1.3319
 4212TIP3    H234052   2.927   5.186  12.852 -1.5553 -0.9261  0.9418
 4213TIP3   OH234053   1.484   0.158  12.470 -0.2737 -0.4064 -0.0435
 4213TIP3    H134054   1.413   0.123  12.416 -0.4551 -0.6187  0.3273
 4213TIP3    H234055   1.443   0.226  12.523 -0.2146 -0.5738  0.2184
 4214TIP3   OH234056   4.138   3.880   5.223  0.7368 -0.3638 -0.0050
 4214TIP3    H134057   4.049   3.846   5.221  0.4275  0.4172  0.3589
 4214TIP3    H234058   4.129   3.973   5.242  1.5826 -0.0755 -0.9094
 4215TIP3   OH234059   0.966   2.412  17.422 -0.4874  0.1649 -0.0641
 4215TIP3    H134060   0.893   2.384  17.367  0.0416 -2.1442  0.2719
 4215TIP3    H234061   1.040   2.360  17.391  0.4877  0.8735  1.0052
 4216TIP3   OH234062   1.036   3.257  13.431 -0.1686  0.3421 -0.2464
 4216TIP3    H134063   0.990   3.197  13.490 -0.8295  1.4487  0.3837
 4216TIP3    H234064   0.981   3.261  13.353  0.4843 -0.7796 -0.7900
 4217TIP3   OH234065   4.207   6.454   2.682  0.1137  0.1906 -0.5148
 4217TIP3    H134066   4.154   6.376   2.696 -1.1377  1.0635 -0.2535
 4217TIP3    H234067   4.181   6.486   2.595  0.7085  0.2482 -0.6765
 4218TIP3   OH234068   6.376   4.778  16.556 -0.1735  0.2081 -0.3986
 4218TIP3    H134069   6.455   4.825  16.583 -0.2731 -0.1361  0.5558
 4218TIP3    H234070   6.330   4.761  16.638 -0.9138 -0.1749 -0.8835
 4219TIP3   OH234071   4.885   5.449  17.093 -0.3667  0.0947 -0.0753
 4219TIP3    H134072   4.831   5.493  17.158 -0.7284 -1.5296  0.7708
 4219TIP3    H234073   4.837   5.459  17.011 -0.6394  0.8927  0.1737
 4220TIP3   OH234074   0.043   4.241   3.137 -0.4010  0.3795 -0.4723
 4220TIP3    H134075   0.069   4.329   3.110 -0.5835  0.4354 -0.4715
 4220TIP3    H234076  -0.046   4.230   3.102 -0.0140 -0.1838 -1.3259
 4221TIP3   OH234077   5.407   4.778  11.731  0.2153  0.0260 -0.1391
 4221TIP3    H134078   5.484   4.738  11.690  1.0979  0.0900  1.3448
 4221TIP3    H234079   5.441   4.855  11.776 -0.4085 -0.7056  1.7168
 4222TIP3   OH234080   6.141   1.356  14.228 -0.5194 -0.2173 -0.2265
 4222TIP3    H134081   6.070   1.303  14.265 -1.4760 -0.2222 -1.9536
 4222TIP3    H234082   6.208   1.292  14.204 -0.2305 -0.2902  0.7453
 4223TIP3   OH234083   2.621   5.685   1.210  0.2342 -0.0243  0.0847
 4223TIP3    H134084   2.684   5.712   1.144 -0.7441 -0.8827 -1.2393
 4223TIP3    H234085   2.547   5.744   1.200 -0.2447 -0.6509 -0.1232
 4224TIP3   OH234086   0.922   6.466   6.337 -0.0982  0.4575  0.2405
 4224TIP3    H134087   0.917   6.553   6.296 -0.7458  0.8788  1.1824
 4224TIP3    H234088   1.016   6.449   6.345  0.0436  1.2464  0.3940
 4225TIP3   OH234089   2.424   4.527  15.803 -1.0354 -0.4402 -0.1494
 4225TIP3    H134090   2.422   4.461  15.872  1.1657 -1.4724 -0.9864
 4225TIP3    H234091   2.349   4.504  15.747 -1.1511 -1.3429  0.3458
 4226TIP3   OH234092   6.446   4.549   5.266 -0.4622 -0.3843  0.2734
 4226TIP3    H134093   6.538   4.573   5.278 -0.4635 -0.6376  0.8419
 4226TIP3    H234094   6.398   4.631   5.280 -0.3426 -0.3158  0.2809
 4227TIP3   OH234095   6.365   6.591   2.851  0.0984 -0.0271 -0.3110
 4227TIP3    H134096   6.350   6.619   2.941 -1.6587  0.4108 -0.6883
 4227TIP3    H234097   6.368   6.496   2.855  0.4295  0.0073  0.2667
 4228TIP3   OH234098   1.627   3.141  13.170 -0.0464 -0.6668 -0.6770
 4228TIP3    H134099   1.574   3.105  13.099  1.8649 -2.5044 -1.2779
 4228TIP3    H234100   1.706   3.175  13.127  0.4669 -0.4097  0.4194
 4229TIP3   OH234101   3.620   1.664  15.272  0.0159  0.1488 -0.0515
 4229TIP3    H134102   3.667   1.742  15.301  1.7489 -0.4733 -1.0529
 4229TIP3    H234103   3.538   1.698  15.236  0.3430  1.4119  0.3364
 4230TIP3   OH234104   0.724   0.053   5.910  0.2460 -0.5492 -0.3378
 4230TIP3    H134105   0.729   0.147   5.928 -3.1078 -0.1331 -0.9404
 4230TIP3    H234106   0.813   0.029   5.886  1.4883  2.1858  0.9929
 4231TIP3   OH234107   5.156   4.891   3.719  0.2411 -0.3300  0.2284
 4231TIP3    H134108   5.221   4.952   3.686  2.5295 -2.1020  1.1913
 4231TIP3    H234109   5.107   4.863   3.642 -2.3273  4.0516 -0.0596
 4232TIP3   OH234110   6.020   0.852   5.277 -0.2687  0.0279  0.1533
 4232TIP3    H134111   6.060   0.798   5.345 -1.8950  0.0390  1.1649
 4232TIP3    H234112   5.964   0.791   5.228  0.9907 -0.0157 -1.3156
 4233TIP3   OH234113   0.058   1.308  15.083 -0.0751 -0.0506 -0.3912
 4233TIP3    H134114   0.060   1.218  15.118  1.1023 -0.1648 -0.7390
 4233TIP3    H234115  -0.016   1.307  15.021 -1.1732 -0.2826  0.8699
 4234TIP3   OH234116   0.885   0.802   6.488 -0.4292  0.0934 -0.6699
 4234TIP3    H134117   0.793   0.822   6.473 -1.0000 -1.5045  0.4735
 4234TIP3    H234118   0.901   0.829   6.578  0.0897 -0.0962 -0.7016
 4235TIP3   OH234119   3.311   6.080   2.960 -0.0265 -0.5588  0.0133
 4235TIP3    H134120   3.398   6.041   2.947 -0.8829 -2.2321 -1.0028
 4235TIP3    H234121   3.292   6.065   3.053  0.6785 -0.3326  0.2039
 4236TIP3   OH234122   1.974   1.359  12.849  0.1892  0.5902 -0.4749
 4236TIP3    H134123   1.893   1.312  12.870 -0.8104  2.3357 -0.1978
 4236TIP3    H234124   1.977   1.363  12.754 -1.4841  2.7111 -0.5239
 4237TIP3   OH234125   1.413   6.359   1.080  0.5090  0.0848  0.0654
 4237TIP3    H134126   1.438   6.451   1.066  2.0597 -0.5502 -1.7277
 4237TIP3    H234127   1.464   6.310   1.016 -1.1102 -1.9578  0.2352
 4238TIP3   OH234128   2.998   3.196   2.813 -0.0124  0.1661  0.3704
 4238TIP3    H134129   3.051   3.116   2.811 -0.7740 -0.3376 -0.4341
 4238TIP3    H234130   2.958   3.196   2.900 -0.1080 -0.3908  0.3281
 4239TIP3   OH234131   4.259   2.279  12.432 -0.4214 -0.5399  0.7885
 4239TIP3    H134132   4.321   2.265  12.360  0.5425 -1.7104  1.8019
 4239TIP3    H234133   4.238   2.372  12.428 -0.4587 -0.6020 -1.0535
 4240TIP3   OH234134   4.935   6.356   6.991 -0.0371  0.8267  0.2549
 4240TIP3    H134135   4.942   6.336   6.898  0.6387  1.3046  0.1912
 4240TIP3    H234136   4.962   6.276   7.036  0.0432  0.7296  0.0320
 4241TIP3   OH234137   6.728   0.397  13.322 -0.2328  0.2426  0.2094
 4241TIP3    H134138   6.664   0.326  13.325  1.8286 -1.8367 -1.8443
 4241TIP3    H234139   6.747   0.409  13.229 -0.3597  3.4561  0.4686
 4242TIP3   OH234140   0.273   3.625   3.074  0.4896 -0.2768 -0.0445
 4242TIP3    H134141   0.272   3.560   3.004  0.7541  0.5858 -0.8805
 4242TIP3    H234142   0.249   3.577   3.153  0.6328 -1.3641 -0.6507
 4243TIP3   OH234143   6.592   2.482   3.822 -0.2314  0.1452 -0.0735
 4243TIP3    H134144   6.509   2.526   3.801 -0.0364  0.5424 -0.0296
 4243TIP3    H234145   6.657   2.529   3.769  0.1413  0.6040  0.7865
 4244TIP3   OH234146   0.898   3.007   5.923 -0.3433 -0.2949  0.2380
 4244TIP3    H134147   0.979   2.958   5.911 -0.5968 -0.2069 -2.3216
 4244TIP3    H234148   0.844   2.950   5.978  1.8335  0.2043  3.1103
 4245TIP3   OH234149   5.118   5.956   6.020 -0.0361 -0.5247 -0.0562
 4245TIP3    H134150   5.162   6.018   6.079 -2.5395  1.7939 -0.4739
 4245TIP3    H234151   5.083   5.889   6.079  0.4924 -0.1558  0.6973
 4246TIP3   OH234152   0.727   5.089   0.870 -0.3503 -0.2240 -0.5575
 4246TIP3    H134153   0.651   5.040   0.899  0.1204 -1.2735 -1.0515
 4246TIP3    H234154   0.727   5.169   0.923 -0.1151 -1.5615  1.5409
 4247TIP3   OH234155   3.272   2.751  16.934  0.4935 -0.3817 -0.6546
 4247TIP3    H134156   3.362   2.781  16.928  0.7160 -1.0778 -0.7986
 4247TIP3    H234157   3.220   2.832  16.938  1.1447  0.0198 -0.1660
 4248TIP3   OH234158   5.433   6.067   4.412 -0.2380 -0.2937 -0.5814
 4248TIP3    H134159   5.386   6.016   4.346  0.1135 -1.2914 -0.0749
 4248TIP3    H234160   5.508   6.013   4.435 -1.0924 -0.6257  1.6584
 4249TIP3   OH234161   0.216   1.794   4.211  0.2074  0.4048 -0.5681
 4249TIP3    H134162   0.127   1.826   4.223  0.4223  0.8655 -0.1959
 4249TIP3    H234163   0.206   1.698   4.208 -0.3122  0.4580 -0.6540
 4250TIP3   OH234164   1.235   1.212  13.519  0.9838  0.0767  0.1241
 4250TIP3    H134165   1.236   1.179  13.430 -1.9795 -0.4599  0.1771
 4250TIP3    H234166   1.326   1.211  13.547  1.8713 -0.6141 -2.5569
 4251TIP3   OH234167   4.650   3.422   2.358  0.0104  0.4863  0.0619
 4251TIP3    H134168   4.596   3.343   2.352  0.4365  0.0215  1.7382
 4251TIP3    H234169   4.603   3.478   2.420  0.3105  1.0314 -0.2013
 4252TIP3   OH234170   3.663   5.576   1.047 -0.2202  0.2488 -0.0972
 4252TIP3    H134171   3.655   5.567   0.953  1.0506 -0.0623 -0.1951
 4252TIP3    H234172   3.609   5.506   1.084  2.7828 -2.6569 -0.7013
 4253TIP3   OH234173   0.872   0.514  15.607 -1.0556 -0.1504  0.1494
 4253TIP3    H134174   0.785   0.486  15.636 -1.7730  0.7928 -0.9858
 4253TIP3    H234175   0.883   0.601  15.644 -0.5153 -0.3388  0.4375
 4254TIP3   OH234176   0.878   4.571  14.184 -0.1447  0.2548 -0.1005
 4254TIP3    H134177   0.850   4.490  14.226  2.1911 -0.3621  0.3690
 4254TIP3    H234178   0.867   4.638  14.251 -0.1763 -0.0171  0.1661
 4255TIP3   OH234179   1.462   5.379   3.076 -0.7506 -0.0059 -0.2893
 4255TIP3    H134180   1.381   5.373   3.127 -2.7053  3.1439 -2.6638
 4255TIP3    H234181   1.497   5.290   3.075 -3.5326 -1.2587  1.7870
 4256TIP3   OH234182   5.529   6.293  11.415  0.3020  0.2040  0.2120
 4256TIP3    H134183   5.584   6.222  11.449  1.2103  0.2205 -1.1018
 4256TIP3    H234184   5.454   6.248  11.376  1.7920 -0.3162 -2.3600
 4257TIP3   OH234185   0.899   4.654  13.619  0.4790  0.1843  0.0574
 4257TIP3    H134186   0.892   4.578  13.562 -0.5723 -1.1172  1.8376
 4257TIP3    H234187   0.888   4.620  13.707  0.3928  2.3512  0.9593
 4258TIP3   OH234188   0.902   1.406  14.012 -0.2142  0.1521 -0.8288
 4258TIP3    H134189   0.896   1.338  13.945  1.1562  0.3306 -1.1664
 4258TIP3    H234190   0.980   1.383  14.063 -0.6095  0.6239  0.0136
 4259TIP3   OH234191   3.551   3.609  14.789  0.2680  0.1217 -0.3974
 4259TIP3    H134192   3.600   3.651  14.860  0.9425 -0.0128 -0.7784
 4259TIP3    H234193   3.499   3.679  14.750  0.1051  0.2519  0.0469
 4260TIP3   OH234194   1.404   4.027  13.174  0.8964 -0.2212  0.6306
 4260TIP3    H134195   1.351   3.955  13.208  0.6787  0.0854  0.9538
 4260TIP3    H234196   1.371   4.104  13.220  2.1012 -0.1226  1.3463
 4261TIP3   OH234197   1.911   0.026   3.015  0.3466  0.1190 -0.2989
 4261TIP3    H134198   1.954  -0.045   3.062  1.1903 -0.4798 -1.9289
 4261TIP3    H234199   1.840  -0.016   2.966 -2.0185  1.0443  2.0840
 4262TIP3   OH234200   3.256   3.208  12.108 -0.3982  0.1353 -0.4270
 4262TIP3    H134201   3.179   3.151  12.104 -1.2868  1.3291 -1.1915
 4262TIP3    H234202   3.261   3.247  12.021  0.0833  1.3395  0.1235
 4263TIP3   OH234203   3.834   5.834  16.203 -0.4529 -0.0177 -0.5796
 4263TIP3    H134204   3.805   5.884  16.127 -1.4895 -1.6812 -1.3553
 4263TIP3    H234205   3.919   5.797  16.177 -0.5450 -0.1311 -0.7213
 4264TIP3   OH234206   0.395   3.839   2.973  0.6124  0.7263 -0.3284
 4264TIP3    H134207   0.332   3.905   3.003 -0.7024  0.6692 -2.6507
 4264TIP3    H234208   0.355   3.755   2.995  1.1005  0.6833  0.4205
 4265TIP3   OH234209   5.058   5.307   0.726 -0.0094  0.3140 -0.0024
 4265TIP3    H134210   5.080   5.283   0.816  0.8846  0.8954 -0.0550
 4265TIP3    H234211   5.104   5.242   0.673  0.3121  0.5896 -0.0653
 4266TIP3   OH234212   4.159   2.523  11.668 -0.0112  0.7884  0.1802
 4266TIP3    H134213   4.098   2.533  11.595  0.7545  0.0295 -0.5891
 4266TIP3    H234214   4.107   2.541  11.746 -0.9103  1.3634 -0.5350
 4267TIP3   OH234215   5.389   0.879  15.301  0.2426  0.4100  0.1992
 4267TIP3    H134216   5.360   0.865  15.391  1.3470 -1.2201  0.3456
 4267TIP3    H234217   5.307   0.884  15.251 -0.3761  0.6831  1.1912
 4268TIP3   OH234218   3.367   6.001  12.521  0.1709 -0.0507 -0.2473
 4268TIP3    H134219   3.301   6.067  12.498  0.1335 -0.4518 -1.2978
 4268TIP3    H234220   3.399   6.029  12.607 -0.1775  1.0848 -0.4699
 4269TIP3   OH234221   6.413   2.339  14.428 -0.5496  0.3083 -0.2655
 4269TIP3    H134222   6.341   2.379  14.476  0.2515  0.4191  0.8949
 4269TIP3    H234223   6.383   2.335  14.337 -2.3221 -0.3869  0.3125
 4270TIP3   OH234224   2.594   2.251   5.354 -0.7858  0.3338  0.6378
 4270TIP3    H134225   2.616   2.171   5.401 -2.1551 -2.1543 -2.5108
 4270TIP3    H234226   2.505   2.272   5.382 -1.9821 -1.7123 -1.2860
 4271TIP3   OH234227   6.199   0.299  12.099 -0.0144  0.4108 -0.3899
 4271TIP3    H134228   6.107   0.275  12.099 -0.1160  0.7874 -0.2715
 4271TIP3    H234229   6.233   0.266  12.183 -0.1193  0.5474 -0.2921
 4272TIP3   OH234230   0.371   1.974   2.537  0.5347 -0.2663 -0.0429
 4272TIP3    H134231   0.429   2.016   2.601  0.0565  0.5637 -0.1391
 4272TIP3    H234232   0.414   1.989   2.453 -0.9322  2.4194 -0.3945
 4273TIP3   OH234233   1.684   6.411   4.257 -0.1541 -0.1084  1.1195
 4273TIP3    H134234   1.635   6.476   4.207  1.0526  1.3152  1.7173
 4273TIP3    H234235   1.776   6.436   4.245  0.4042 -2.2262  0.6826
 4274TIP3   OH234236   4.989   2.837   6.781  0.0749 -0.0593  0.4686
 4274TIP3    H134237   5.027   2.779   6.846  2.1268 -0.9693 -1.3989
 4274TIP3    H234238   5.056   2.903   6.764 -1.0869  1.1627  0.4638
 4275TIP3   OH234239   4.301   1.610  13.573 -0.7618  0.0168 -0.2673
 4275TIP3    H134240   4.270   1.639  13.487 -2.6399 -1.0039  0.0091
 4275TIP3    H234241   4.236   1.645  13.635  1.1678  1.7294  0.9263
 4276TIP3   OH234242   4.293   5.794   3.977 -0.1066 -0.4929  0.4676
 4276TIP3    H134243   4.206   5.832   3.962 -0.0924 -0.3895  0.6414
 4276TIP3    H234244   4.313   5.816   4.068  0.9834  1.3081 -0.1554
 4277TIP3   OH234245   2.537   1.270  15.920  0.2829  0.0890  0.3343
 4277TIP3    H134246   2.496   1.204  15.864 -1.2820  1.1871  0.1476
 4277TIP3    H234247   2.606   1.222  15.967  1.3633 -0.9806 -2.1503
 4278TIP3   OH234248   1.673   4.976  17.113  0.6768  0.3267  0.1145
 4278TIP3    H134249   1.605   4.954  17.178  0.2119  0.4014 -0.3383
 4278TIP3    H234250   1.633   5.044  17.059  0.8186 -0.1911 -0.6500
 4279TIP3   OH234251   3.064   3.238  12.933 -0.2763 -0.3683 -0.5992
 4279TIP3    H134252   3.094   3.328  12.925 -0.5553 -0.0625  1.4222
 4279TIP3    H234253   2.992   3.231  12.869 -0.6762  1.0197 -0.3269
 4280TIP3   OH234254   0.698   1.173   3.065 -0.0972  0.6109 -0.0324
 4280TIP3    H134255   0.663   1.114   2.999  1.3661 -0.2768 -0.0825
 4280TIP3    H234256   0.669   1.136   3.149  3.4640 -2.3368  0.1881
 4281TIP3   OH234257   2.319   5.369  13.702  0.1854  0.2048 -0.6413
 4281TIP3    H134258   2.236   5.416  13.693 -0.5819 -0.0566  3.2085
 4281TIP3    H234259   2.301   5.280  13.673 -0.7228  0.3099 -0.4163
 4282TIP3   OH234260   5.739   2.336  12.847  0.2869  0.0456 -0.0429
 4282TIP3    H134261   5.796   2.385  12.905  3.7514 -0.9874 -2.3140
 4282TIP3    H234262   5.712   2.398  12.780  0.1653  0.0966  0.0510
 4283TIP3   OH234263   5.960   6.012  11.880  0.3448 -0.2739 -0.2511
 4283TIP3    H134264   5.996   5.928  11.850 -0.7852 -0.7532 -0.3255
 4283TIP3    H234265   5.979   6.014  11.974  0.7880 -0.3895 -0.3347
 4284TIP3   OH234266   3.654   6.724   3.604 -0.2364 -0.2483 -0.1040
 4284TIP3    H134267   3.584   6.671   3.565 -0.6285 -0.2844  0.6334
 4284TIP3    H234268   3.611   6.775   3.673  0.4636 -0.2990  0.3882
 4285TIP3   OH234269   3.542   4.163  17.115 -0.3553 -0.4685 -0.1137
 4285TIP3    H134270   3.561   4.120  17.198 -0.2187 -2.1779 -0.9917
 4285TIP3    H234271   3.596   4.242  17.116 -0.9239 -0.0529  1.7235
 4286TIP3   OH234272   0.811   2.293   3.868  0.8100  0.4612  0.0066
 4286TIP3    H134273   0.721   2.317   3.890  0.9342  1.6004 -0.6431
 4286TIP3    H234274   0.824   2.208   3.910 -1.1619 -0.6155 -1.3550
 4287TIP3   OH234275   1.151   5.035   0.631 -1.1974 -0.1379 -0.1303
 4287TIP3    H134276   1.141   4.955   0.579  1.3933 -1.3711  1.1126
 4287TIP3    H234277   1.245   5.043   0.644 -1.6070  1.3405  2.4846
 4288TIP3   OH234278   4.050   6.324   6.739  0.3644 -0.5057  0.2546
 4288TIP3    H134279   4.087   6.410   6.762 -1.7329  0.1081  1.6404
 4288TIP3    H234280   4.073   6.268   6.813  0.6709 -0.8212 -0.0743
 4289TIP3   OH234281   5.899   1.635  12.177  0.0727  0.0652  0.0264
 4289TIP3    H134282   5.814   1.649  12.134 -0.1000 -0.9810 -0.0093
 4289TIP3    H234283   5.911   1.540  12.174  1.1743  0.1944  0.1807
 4290TIP3   OH234284   2.949   5.831  15.273 -0.0640  0.1692 -0.0370
 4290TIP3    H134285   2.994   5.899  15.324  2.4086 -0.6581 -0.9395
 4290TIP3    H234286   2.910   5.774  15.339 -0.1515  1.1582  0.7960
 4291TIP3   OH234287   2.429   2.785   4.786  0.5275 -0.0500 -0.6444
 4291TIP3    H134288   2.409   2.757   4.697  0.2178  0.7352 -0.8283
 4291TIP3    H234289   2.408   2.709   4.840  1.7839 -0.9144 -1.3391
 4292TIP3   OH234290   2.174   0.641   5.022 -0.2157 -0.4454  0.3487
 4292TIP3    H134291   2.188   0.559   5.068  1.4261 -0.5345 -0.2341
 4292TIP3    H234292   2.230   0.635   4.945 -0.0764  1.2039  0.2863
 4293TIP3   OH234293   2.734   6.570  15.844 -0.1993  0.3113 -0.2801
 4293TIP3    H134294   2.679   6.647  15.829  1.3605  1.1813 -1.9999
 4293TIP3    H234295   2.809   6.582  15.785  0.5908 -2.0508  0.1193
 4294TIP3   OH234296   2.548   1.548   1.885  0.2291  0.3142 -0.3162
 4294TIP3    H134297   2.520   1.469   1.838  0.4483  0.5483 -0.8438
 4294TIP3    H234298   2.600   1.597   1.821  2.5818 -0.4991  0.8927
 4295TIP3   OH234299   0.716   0.498  10.921  0.2432 -0.5300 -0.2015
 4295TIP3    H134300   0.720   0.424  10.861 -0.2146 -0.1913 -0.6550
 4295TIP3    H234301   0.737   0.461  11.006 -0.2851 -1.2376 -0.3771
 4296TIP3   OH234302   0.113   1.023  13.759 -0.3382 -0.1260  0.3135
 4296TIP3    H134303   0.182   1.064  13.707 -1.4289 -1.0484 -2.0095
 4296TIP3    H234304   0.039   1.084  13.752 -0.0338  0.5213  2.2028
 4297TIP3   OH234305   1.881   5.678   2.362  0.0355 -0.5479 -0.7152
 4297TIP3    H134306   1.858   5.729   2.284 -1.3923  0.5023  0.3247
 4297TIP3    H234307   1.873   5.741   2.434  0.7047 -1.6487  0.3539
 4298TIP3   OH234308   3.968   1.194   3.763 -0.0187  0.4889 -0.3682
 4298TIP3    H134309   3.989   1.111   3.719 -0.1140  0.2736 -0.0151
 4298TIP3    H234310   4.046   1.248   3.750 -0.2396  0.6119 -1.2242
 4299TIP3   OH234311   1.634   6.201   0.102 -0.0044  0.2558 -0.8581
 4299TIP3    H134312   1.631   6.120   0.052  1.7851 -0.2839 -0.1608
 4299TIP3    H234313   1.600   6.177   0.188  1.7052 -0.1152 -0.2496
 4300TIP3   OH234314   6.072   2.367  16.794 -0.8154  0.0949  0.7600
 4300TIP3    H134315   5.980   2.342  16.791 -1.0334  0.4136  2.9711
 4300TIP3    H234316   6.083   2.427  16.719 -2.6297  0.7451  0.9651
 4301TIP3   OH234317   3.739   4.647  14.783 -0.1197  0.2339  0.2653
 4301TIP3    H134318   3.648   4.657  14.809 -0.0900  1.7208 -0.1245
 4301TIP3    H234319   3.784   4.721  14.823  0.7229  0.1168 -0.4311
 4302TIP3   OH234320   2.354   3.078  17.445 -0.2525 -0.4883  0.2463
 4302TIP3    H134321   2.266   3.064  17.481 -0.2320  1.2458  1.0583
 4302TIP3    H234322   2.345   3.155  17.389  1.1539  1.1097  2.0966
 4303TIP3   OH234323   0.712   2.942  14.891 -0.0622  0.2781  0.1479
 4303TIP3    H134324   0.723   2.950  14.985 -0.7782  0.6271  0.2110
 4303TIP3    H234325   0.748   2.855  14.870 -2.3868 -1.0347  1.1781
 4304TIP3   OH234326   5.786   5.258  16.059  0.3069 -0.7523  0.0913
 4304TIP3    H134327   5.866   5.245  16.007  0.7345  0.3570  0.4511
 4304TIP3    H234328   5.715   5.249  15.995  0.8840  3.2385 -1.3820
 4305TIP3   OH234329   1.171   6.614  13.016  0.5010 -0.4922 -0.3866
 4305TIP3    H134330   1.227   6.659  12.954  1.1418  1.5787  1.5765
 4305TIP3    H234331   1.105   6.679  13.041 -1.0771 -1.9743 -0.5112
 4306TIP3   OH234332   6.160   3.304  15.313 -0.6010 -0.2277 -0.6428
 4306TIP3    H134333   6.110   3.376  15.353 -0.4808 -0.2779 -0.3961
 4306TIP3    H234334   6.113   3.283  15.233  0.0226  0.9111 -1.3287
 4307TIP3   OH234335   2.327   3.672   2.444 -0.1916 -0.6889 -0.3039
 4307TIP3    H134336   2.283   3.751   2.477  0.9261 -0.4264  0.6089
 4307TIP3    H234337   2.279   3.650   2.364  0.0948  1.5003 -1.1375
 4308TIP3   OH234338   2.186   6.165   4.340 -0.0550 -0.5941  0.1452
 4308TIP3    H134339   2.212   6.081   4.302 -0.1681 -0.2358 -0.7563
 4308TIP3    H234340   2.230   6.231   4.286  0.1628 -0.0718  0.9421
 4309TIP3   OH234341   0.779   1.197   3.749  0.1633 -0.1998 -0.0407
 4309TIP3    H134342   0.834   1.121   3.764 -0.8914 -0.3670  4.0304
 4309TIP3    H234343   0.694   1.161   3.722  0.6923 -0.1630 -1.9003
 4310TIP3   OH234344   5.682   0.436  16.178 -0.5199 -0.2264 -0.5165
 4310TIP3    H134345   5.614   0.489  16.137 -2.8106 -1.8198  0.9644
 4310TIP3    H234346   5.708   0.374  16.110 -2.0245 -0.8545 -0.5652
 4311TIP3   OH234347   5.057   5.287  13.556  0.6674 -0.1908 -0.4076
 4311TIP3    H134348   5.041   5.201  13.516  2.6128 -0.2496 -1.1254
 4311TIP3    H234349   5.108   5.267  13.635  0.6339  0.2797 -0.2659
 4312TIP3   OH234350   2.469   0.489   2.329  0.5828 -0.7902  0.4158
 4312TIP3    H134351   2.426   0.502   2.245 -0.5228  0.8960  1.1856
 4312TIP3    H234352   2.549   0.541   2.323  0.7304 -1.0319  0.2609
 4313TIP3   OH234353   3.530   1.004  17.380 -0.0871 -0.0978  0.0063
 4313TIP3    H134354   3.548   0.911  17.385 -1.3299 -0.3101  2.2684
 4313TIP3    H234355   3.438   1.012  17.405  0.0213  1.7262  0.0080
 4314TIP3   OH234356   2.512   3.132  15.042 -0.1917 -0.2827 -0.1916
 4314TIP3    H134357   2.436   3.082  15.071 -0.6223  1.5423  2.1927
 4314TIP3    H234358   2.583   3.104  15.100  0.0812  0.3249 -0.2173
 4315TIP3   OH234359   4.591   0.111   2.926 -0.7016 -1.1526 -0.1309
 4315TIP3    H134360   4.504   0.150   2.930  0.2690  1.0999  0.4330
 4315TIP3    H234361   4.636   0.142   3.005  1.2692 -0.4812 -1.4253
 4316TIP3   OH234362   5.325   3.853   2.322  0.9290  0.4157  0.0006
 4316TIP3    H134363   5.301   3.924   2.382  2.2706  2.8642 -2.1567
 4316TIP3    H234364   5.404   3.815   2.360 -1.5193 -2.3580  2.9152
 4317TIP3   OH234365   2.283   0.925  16.781  0.1740 -0.5477 -0.5488
 4317TIP3    H134366   2.349   0.984  16.744 -1.6528  1.0226 -1.4678
 4317TIP3    H234367   2.288   0.846  16.728  0.7866 -0.1422 -1.1032
 4318TIP3   OH234368   4.761   0.764   3.735 -0.2668  0.1282 -0.3436
 4318TIP3    H134369   4.681   0.763   3.683  0.2019  0.2728 -1.0983
 4318TIP3    H234370   4.779   0.672   3.753 -1.3277  0.1636  1.0135
 4319TIP3   OH234371   1.031   6.288  14.717 -0.5654 -0.5351  0.3284
 4319TIP3    H134372   1.047   6.234  14.794 -1.6900  0.3850  1.2505
 4319TIP3    H234373   1.077   6.370  14.734  1.8185 -1.3852 -1.4229
 4320TIP3   OH234374   4.659   2.429  16.840  0.2274 -0.4587  0.1507
 4320TIP3    H134375   4.593   2.483  16.882  0.8493  0.4472 -0.0091
 4320TIP3    H234376   4.668   2.353  16.897  0.2195  0.1923  1.0291
 4321TIP3   OH234377   3.383   2.337   3.085 -0.1030 -0.0962 -0.6723
 4321TIP3    H134378   3.416   2.427   3.093 -0.3305 -0.0708  0.0975
 4321TIP3    H234379   3.345   2.318   3.171  2.8504 -2.1110  0.3487
 4322TIP3   OH234380   0.155   0.152  12.934 -1.3663  0.2546  0.3290
 4322TIP3    H134381   0.132   0.060  12.940 -2.4399  0.5099  0.3473
 4322TIP3    H234382   0.188   0.163  12.844 -2.0322  0.0206  0.0503
 4323TIP3   OH234383   1.059   3.547   5.680  0.2536  0.2229 -0.4177
 4323TIP3    H134384   0.990   3.571   5.742  0.6279 -0.0247  0.0987
 4323TIP3    H234385   1.027   3.468   5.637  0.2733  0.0310 -0.0820
 4324TIP3   OH234386   2.482   1.581  13.397 -0.6130  0.2341  0.0188
 4324TIP3    H134387   2.518   1.536  13.473 -2.0268 -0.7849  0.1382
 4324TIP3    H234388   2.519   1.669  13.401  0.0801 -0.0864  1.3378
 4325TIP3   OH234389   4.477   3.228  15.186 -0.2311  0.2897 -0.7541
 4325TIP3    H134390   4.446   3.138  15.178  1.9744 -0.6946  0.7208
 4325TIP3    H234391   4.498   3.254  15.096  0.5939 -1.2848 -1.0615
 4326TIP3   OH234392   6.090   1.800   6.346 -0.0397 -0.0024  0.3893
 4326TIP3    H134393   6.031   1.813   6.419  0.7526 -1.7208  1.4010
 4326TIP3    H234394   6.108   1.888   6.312 -3.0523  0.5883  0.0771
 4327TIP3   OH234395   3.775   3.195  14.345  0.5095  0.2723  0.2279
 4327TIP3    H134396   3.688   3.161  14.323  0.6509  1.4220 -2.4763
 4327TIP3    H234397   3.759   3.281  14.383  0.4455  0.1553  0.4676
 4328TIP3   OH234398   1.820   1.786   2.021 -0.1089 -0.1916  0.0346
 4328TIP3    H134399   1.782   1.762   1.936 -1.5769 -0.1586  0.6461
 4328TIP3    H234400   1.901   1.832   1.999  0.2426 -1.3547 -1.2970
 4329TIP3   OH234401   5.911   2.279  14.341 -0.6405  0.1325 -0.3592
 4329TIP3    H134402   5.858   2.214  14.294 -3.3640 -0.3513  2.9676
 4329TIP3    H234403   5.880   2.363  14.307 -0.3945 -0.2119 -1.4789
 4330TIP3   OH234404   6.632   3.294  11.569 -1.1073  0.4429 -0.1034
 4330TIP3    H134405   6.630   3.291  11.473 -2.5194  0.3828 -0.0918
 4330TIP3    H234406   6.724   3.279  11.591 -0.4281  2.1410 -1.4913
 4331TIP3   OH234407   6.081   0.779  15.933 -0.2283 -0.4805 -0.4534
 4331TIP3    H134408   5.990   0.776  15.965  0.0319 -0.1931  0.3276
 4331TIP3    H234409   6.128   0.830  15.998  0.4168 -0.2607 -1.0756
 4332TIP3   OH234410   5.496   2.901  12.296 -0.2579 -0.0788 -0.2555
 4332TIP3    H134411   5.576   2.942  12.262 -0.6604 -0.0743 -1.2198
 4332TIP3    H234412   5.439   2.974  12.318 -0.3691 -0.0878 -0.5021
 4333TIP3   OH234413   4.992   0.298   0.367 -0.8225 -0.2609  0.1603
 4333TIP3    H134414   4.987   0.295   0.463  0.4563  0.6442  0.2845
 4333TIP3    H234415   4.950   0.381   0.343  1.6688  1.1236  0.2432
 4334TIP3   OH234416   5.583   0.721   1.110  0.3368  0.0897  0.3726
 4334TIP3    H134417   5.494   0.693   1.088  1.1653 -1.9585 -0.7100
 4334TIP3    H234418   5.605   0.671   1.189  1.3941 -1.5402 -0.8677
 4335TIP3   OH234419   2.450   6.567   6.470 -0.3183 -0.0330 -0.7344
 4335TIP3    H134420   2.453   6.479   6.432 -0.2533 -0.5902  0.5108
 4335TIP3    H234421   2.541   6.586   6.494 -0.6572 -0.6655  1.2248
 4336TIP3   OH234422   2.132   2.827   3.141 -0.6915 -0.4131  0.8690
 4336TIP3    H134423   2.117   2.908   3.190  0.9743 -0.1109  0.9100
 4336TIP3    H234424   2.201   2.781   3.189  0.5775 -0.3858 -0.8378
 4337TIP3   OH234425   4.598   2.790  10.634 -0.7769 -0.4946 -0.1098
 4337TIP3    H134426   4.520   2.829  10.595 -0.0332 -0.2754 -1.4514
 4337TIP3    H234427   4.594   2.816  10.726 -1.0645  1.5521 -0.6367
 4338TIP3   OH234428   1.708   4.166   2.672  0.5985 -0.0312  0.0042
 4338TIP3    H134429   1.690   4.211   2.589  0.8364 -2.1517 -1.2766
 4338TIP3    H234430   1.729   4.237   2.733  2.7591  1.5337 -2.3199
 4339TIP3   OH234431   3.481   1.987  11.418  0.3469  0.1021 -0.5840
 4339TIP3    H134432   3.552   1.927  11.394 -0.3554 -0.8848 -0.2652
 4339TIP3    H234433   3.440   2.010  11.335 -2.5365 -3.8651 -0.5303
 4340TIP3   OH234434   4.011   4.990  14.183  0.0573 -0.4454 -0.3613
 4340TIP3    H134435   4.020   4.921  14.248  0.3261  0.7976  0.9711
 4340TIP3    H234436   3.967   4.949  14.109 -3.7013 -1.0450  1.9888
 4341TIP3   OH234437   1.738   4.640  13.543  0.4685  0.0667  0.3340
 4341TIP3    H134438   1.745   4.718  13.488 -1.7084  1.3684  1.7653
 4341TIP3    H234439   1.688   4.669  13.620 -0.3996 -2.7344  0.9345
 4342TIP3   OH234440   2.423   2.431  15.566  0.0237  0.1349  0.2120
 4342TIP3    H134441   2.473   2.510  15.588  0.0345  0.1682  0.0697
 4342TIP3    H234442   2.344   2.437  15.619 -1.4314  1.7731 -1.9955
 4343TIP3   OH234443   0.769   4.521   1.388  0.0289  0.5118 -0.3087
 4343TIP3    H134444   0.697   4.566   1.431 -1.3987  1.1665 -3.1406
 4343TIP3    H234445   0.839   4.587   1.383  0.1756  0.4582  0.8158
 4344TIP3   OH234446   0.458   2.192   5.091 -0.4603  0.3908 -0.0848
 4344TIP3    H134447   0.545   2.224   5.064 -0.0446 -0.9153 -0.3555
 4344TIP3    H234448   0.416   2.269   5.130  0.7240  1.1136 -0.1644
 4345TIP3   OH234449   4.262   1.627  16.305  0.5075 -0.2381 -0.2971
 4345TIP3    H134450   4.173   1.636  16.339  0.8012 -0.9014  0.7011
 4345TIP3    H234451   4.259   1.667  16.218  0.2066  3.5529  1.2618
 4346TIP3   OH234452   1.216   0.087   0.423 -0.8639 -0.0810 -0.5099
 4346TIP3    H134453   1.178   0.039   0.496  0.3441 -0.4862 -0.1331
 4346TIP3    H234454   1.294   0.037   0.398  0.3052  1.5243 -0.2573
 4347TIP3   OH234455   4.019   5.358   4.392  0.4079  0.4680  0.4513
 4347TIP3    H134456   3.956   5.427   4.411  1.0408  0.7836  1.5110
 4347TIP3    H234457   3.988   5.282   4.441  1.0599  0.7532  1.3433
 4348TIP3   OH234458   1.186   0.893   0.292 -0.5216 -0.1725  0.1911
 4348TIP3    H134459   1.121   0.906   0.222 -1.8562  0.0678  1.4220
 4348TIP3    H234460   1.157   0.813   0.336 -1.4391  1.2007  2.2332
 4349TIP3   OH234461   0.500   5.318  16.606  0.0064 -0.4671  0.2107
 4349TIP3    H134462   0.473   5.269  16.528 -0.7146  0.7944 -0.3515
 4349TIP3    H234463   0.540   5.398  16.572 -1.1341  0.5208  1.1388
 4350TIP3   OH234464   4.742   2.815  15.690  0.2899  0.4515  0.3552
 4350TIP3    H134465   4.666   2.803  15.634 -0.0646  0.1006  0.8983
 4350TIP3    H234466   4.723   2.762  15.768  0.2640  1.8120  1.3118
 4351TIP3   OH234467   0.792   4.027  13.381  0.6785  0.4183 -0.1665
 4351TIP3    H134468   0.793   3.952  13.440 -1.0465  1.4701  1.3256
 4351TIP3    H234469   0.877   4.069  13.394  0.9158 -0.2306  0.4131
 4352TIP3   OH234470   0.735   1.617   2.484  0.0232 -0.1748  0.2516
 4352TIP3    H134471   0.686   1.535   2.486  1.4331 -1.0589  1.9671
 4352TIP3    H234472   0.822   1.592   2.455  0.6159  0.6035  1.2830
 4353TIP3   OH234473   6.056   0.011   1.888 -0.3970  0.5171  0.0567
 4353TIP3    H134474   6.105   0.012   1.970 -0.4261  0.0293  0.0820
 4353TIP3    H234475   6.121   0.029   1.820 -0.6211  2.4868  0.3002
 4354TIP3   OH234476   0.046   6.046   3.033 -0.5435 -0.0508 -0.5227
 4354TIP3    H134477  -0.000   6.122   2.997 -0.5180 -0.1957 -0.8652
 4354TIP3    H234478   0.012   6.037   3.122 -0.8365  0.1232 -0.6154
 4355TIP3   OH234479   6.010   4.855  14.345  0.3759  0.7453  0.4111
 4355TIP3    H134480   5.931   4.858  14.291  0.9122  0.9088 -0.3842
 4355TIP3    H234481   5.992   4.916  14.417 -0.7088 -0.1665  0.9409
 4356TIP3   OH234482   3.682   2.868   5.098 -0.1717  0.5550  0.1693
 4356TIP3    H134483   3.633   2.936   5.051  0.1116  1.4594  1.1339
 4356TIP3    H234484   3.660   2.883   5.190 -2.3171 -2.4409  0.2896
 4357TIP3   OH234485   1.800   1.259  10.840 -0.0731  0.0387 -0.4914
 4357TIP3    H134486   1.843   1.330  10.792  0.0604  1.3015  1.4056
 4357TIP3    H234487   1.862   1.235  10.908 -0.2586 -1.7201 -0.8961
 4358TIP3   OH234488   3.023   3.348  15.766  0.0440  0.0797  0.3293
 4358TIP3    H134489   3.092   3.365  15.830  0.8680  1.6451 -0.9122
 4358TIP3    H234490   2.947   3.395  15.800  0.4915  0.9458  0.1537
 4359TIP3   OH234491   3.467   4.045  14.652 -0.4297  0.0856  0.2333
 4359TIP3    H134492   3.547   4.026  14.604 -0.1158  1.3717  0.2195
 4359TIP3    H234493   3.408   4.084  14.587 -1.0787 -0.8211  0.2480
 4360TIP3   OH234494   6.057   3.551  13.787  0.4217  0.4722  0.1463
 4360TIP3    H134495   6.012   3.475  13.824 -1.0695  1.2202 -0.0859
 4360TIP3    H234496   6.071   3.528  13.695 -0.9013  0.8373 -0.1678
 4361TIP3   OH234497   5.166   0.086  12.083  0.1472 -0.0617 -0.0083
 4361TIP3    H134498   5.113   0.104  12.160 -1.9614 -0.3687 -1.2895
 4361TIP3    H234499   5.198  -0.003  12.095 -0.9727 -0.4637  0.1056
 4362TIP3   OH234500   3.366   3.910  12.566  0.0427  1.1930 -0.4330
 4362TIP3    H134501   3.377   3.969  12.491  1.3151  0.2749 -1.0102
 4362TIP3    H234502   3.273   3.886  12.564  0.0510  1.1643 -1.7418
 4363TIP3   OH234503   3.751   1.088   2.294  0.3674 -0.4177 -0.0606
 4363TIP3    H134504   3.722   1.179   2.285 -0.2858 -0.6649 -0.5173
 4363TIP3    H234505   3.738   1.067   2.386 -2.8493 -1.1413 -0.5733
 4364TIP3   OH234506   5.477   3.982  16.330  0.1180 -0.1603 -0.7599
 4364TIP3    H134507   5.430   3.900  16.344  1.0500 -0.8152 -1.3112
 4364TIP3    H234508   5.512   4.005  16.416 -3.9459  2.1978  0.5282
 4365TIP3   OH234509   1.121   3.597  12.902  0.1012 -0.1168 -0.0658
 4365TIP3    H134510   1.106   3.511  12.941 -0.2160  0.2253  0.5832
 4365TIP3    H234511   1.170   3.646  12.969 -2.4714  1.2695  0.9673
 4366TIP3   OH234512   4.650   3.060   6.472  0.2002  0.1095 -0.1767
 4366TIP3    H134513   4.743   3.064   6.492  0.1248 -2.7255  1.2645
 4366TIP3    H234514   4.610   3.127   6.527  1.1160 -0.7605  1.6358
 4367TIP3   OH234515   0.195   3.946  15.789  0.0811  0.0811 -0.3005
 4367TIP3    H134516   0.122   4.007  15.798  0.8358  1.0378 -0.5162
 4367TIP3    H234517   0.262   3.979  15.849 -0.6546 -2.4063  2.1114
 4368TIP3   OH234518   5.947   5.394  17.216  0.0898 -0.3620 -0.3537
 4368TIP3    H134519   5.881   5.448  17.260 -0.7316 -1.3445 -0.3487
 4368TIP3    H234520   6.030   5.429  17.245 -0.4348 -0.2241  1.0393
 4369TIP3   OH234521   0.387   0.880   0.196 -0.1150  0.3210 -0.4845
 4369TIP3    H134522   0.442   0.958   0.198 -0.1866  0.3608  0.6112
 4369TIP3    H234523   0.316   0.900   0.258 -0.4108 -0.4143 -0.5826
 4370TIP3   OH234524   5.572   2.632  14.913  0.6151 -0.5696 -0.0687
 4370TIP3    H134525   5.540   2.617  15.002  2.5976  0.0269  0.8051
 4370TIP3    H234526   5.654   2.583  14.910  1.9118  1.5132 -0.6453
 4371TIP3   OH234527   2.080   2.232  16.132  0.0503 -0.1253  0.2193
 4371TIP3    H134528   2.109   2.230  16.041 -0.0235 -1.4756  0.2002
 4371TIP3    H234529   2.157   2.202  16.182 -0.4020 -0.9614  0.4337
 4372TIP3   OH234530   6.167   6.386  12.459  0.0528  0.4133 -0.0161
 4372TIP3    H134531   6.188   6.294  12.469 -0.7620  0.3842  1.8001
 4372TIP3    H234532   6.075   6.387  12.432  0.6510  0.6746 -2.2220
 4373TIP3   OH234533   4.810   6.306  16.340  0.1358 -0.7630  0.8652
 4373TIP3    H134534   4.852   6.365  16.277 -1.0833 -1.1502 -0.3763
 4373TIP3    H234535   4.839   6.337  16.426  0.0212  1.2415  0.2308
 4374TIP3   OH234536   1.463   5.770   4.257 -0.2614 -0.0938  0.5150
 4374TIP3    H134537   1.503   5.804   4.337 -0.1622 -0.0798  0.4589
 4374TIP3    H234538   1.472   5.840   4.193  1.1348 -0.6980  0.0083
 4375TIP3   OH234539   0.432   2.466  13.954 -0.1887 -0.0152 -0.0042
 4375TIP3    H134540   0.385   2.530  14.007  0.7118 -0.7732  1.7883
 4375TIP3    H234541   0.509   2.443  14.006  0.3666 -1.3486 -1.3291
 4376TIP3   OH234542   2.136   4.027   5.054  0.1635 -0.7750  0.0448
 4376TIP3    H134543   2.188   3.994   5.127  0.0577  0.5088  0.7255
 4376TIP3    H234544   2.197   4.029   4.980  1.1701  0.9008  0.8801
 4377TIP3   OH234545   5.021   6.226  11.363 -0.1710 -0.4325 -0.8220
 4377TIP3    H134546   4.931   6.239  11.393 -0.6970  0.8689 -2.8126
 4377TIP3    H234547   5.013   6.200  11.272  1.4711 -0.2169 -1.0652
 4378TIP3   OH234548   1.782   3.338   3.078 -0.2024 -0.1757 -0.0399
 4378TIP3    H134549   1.742   3.365   3.161 -2.8281  1.9745 -1.8695
 4378TIP3    H234550   1.832   3.415   3.049 -0.0173 -0.5962 -0.8639
 4379TIP3   OH234551   0.459   3.434   0.520 -0.7576  0.2824  0.7072
 4379TIP3    H134552   0.537   3.462   0.569 -0.7910  0.4151  0.6860
 4379TIP3    H234553   0.494   3.386   0.445 -0.7186 -0.2308  1.0540
 4380TIP3   OH234554   4.239   4.600   6.167 -0.1176 -0.1035 -0.5736
 4380TIP3    H134555   4.325   4.603   6.209 -0.6234 -1.8785  0.6793
 4380TIP3    H234556   4.198   4.683   6.192  0.4900 -0.1069  0.5340
 4381TIP3   OH234557   0.010   0.974  14.508  0.1938 -0.0087  0.5721
 4381TIP3    H134558   0.098   0.937  14.515 -0.9869 -3.0383  0.9992
 4381TIP3    H234559  -0.034   0.920  14.443 -1.2106  1.8724 -0.1519
 4382TIP3   OH234560   2.412   6.726  11.663 -0.4802  0.0508 -0.3392
 4382TIP3    H134561   2.423   6.820  11.677 -1.9281  0.0901  0.7219
 4382TIP3    H234562   2.380   6.693  11.746  2.1537 -1.8184  0.0564
 4383TIP3   OH234563   0.064   0.194  16.568  0.0345  0.1431  0.3801
 4383TIP3    H134564   0.068   0.254  16.643  0.5132  0.1978  0.3141
 4383TIP3    H234565  -0.008   0.135  16.589 -0.5215  0.8060  0.3958
 4384TIP3   OH234566   3.055   0.179   3.950  0.0373 -0.2530 -0.2337
 4384TIP3    H134567   2.995   0.197   4.022  1.4156  1.3988  0.5733
 4384TIP3    H234568   3.095   0.264   3.931  1.2614 -1.0790 -1.5322
 4385TIP3   OH234569   6.544   3.690  11.740 -0.3880  0.1432  0.5393
 4385TIP3    H134570   6.613   3.634  11.775 -0.0584  1.2859  1.7623
 4385TIP3    H234571   6.469   3.631  11.728  0.1734 -0.7024  1.0968
 4386TIP3   OH234572   1.730   0.991   4.608 -0.6551 -0.5920 -0.1419
 4386TIP3    H134573   1.758   0.958   4.694  0.3168 -0.2470 -0.3172
 4386TIP3    H234574   1.653   0.939   4.587 -1.3883 -0.1699  1.2927
 4387TIP3   OH234575   3.270   6.409  12.431  0.4264 -0.9114  0.4583
 4387TIP3    H134576   3.235   6.351  12.362  2.0632 -1.4235  0.0108
 4387TIP3    H234577   3.262   6.497  12.394  0.3903 -1.0938  0.0189
 4388TIP3   OH234578   4.235   2.742   4.900  0.2168  0.2319  0.2477
 4388TIP3    H134579   4.206   2.781   4.818 -1.4564 -0.6010  0.4089
 4388TIP3    H234580   4.192   2.657   4.903  2.4594 -0.9540  0.6983
 4389TIP3   OH234581   0.656   3.656   1.162  0.3195  0.1349  0.3472
 4389TIP3    H134582   0.734   3.674   1.213  0.3417 -0.9269  0.6961
 4389TIP3    H234583   0.644   3.735   1.108  2.3556 -0.1950 -0.6721
 4390TIP3   OH234584   6.205   1.437   4.795  0.0349  0.0706 -0.3238
 4390TIP3    H134585   6.219   1.528   4.768 -2.3239  0.6727  0.2024
 4390TIP3    H234586   6.292   1.406   4.820  1.0225  1.9446 -1.1635
 4391TIP3   OH234587   5.993   6.469  16.756 -0.1411 -0.3509 -0.4077
 4391TIP3    H134588   6.039   6.390  16.727 -2.2515 -1.5930 -0.6236
 4391TIP3    H234589   5.969   6.450  16.847 -0.1648  0.2926 -0.2778
 4392TIP3   OH234590   0.277   2.036   3.965 -0.0355  0.2008 -0.6635
 4392TIP3    H134591   0.358   2.013   3.919  0.8736  2.0402 -0.0680
 4392TIP3    H234592   0.302   2.041   4.057 -0.8258  0.7746 -0.4708
 4393TIP3   OH234593   5.786   5.720  14.179  0.4683  0.0025 -0.1074
 4393TIP3    H134594   5.806   5.697  14.088 -0.4230  0.2929 -0.3828
 4393TIP3    H234595   5.837   5.657  14.230 -1.0120 -1.8950 -0.8305
 4394TIP3   OH234596   5.176   4.425   5.506  0.0462 -0.2298  0.0825
 4394TIP3    H134597   5.116   4.401   5.577 -0.5498  1.2487  0.1390
 4394TIP3    H234598   5.229   4.496   5.543  0.8449 -0.5466 -0.4413
 4395TIP3   OH234599   1.537   0.657  13.020 -0.4507 -0.1366 -0.0190
 4395TIP3    H134600   1.607   0.617  12.968 -0.8359 -0.0512 -0.6046
 4395TIP3    H234601   1.582   0.721  13.075 -0.0584 -0.1226 -0.3503
 4396TIP3   OH234602   4.356   0.992  16.505 -0.5090 -0.5028 -0.8833
 4396TIP3    H134603   4.333   0.945  16.424 -0.9813  0.1930 -1.1570
 4396TIP3    H234604   4.357   0.924  16.572 -1.7961 -0.8131 -1.1617
 4397TIP3   OH234605   6.440   2.859  15.680  0.0260  0.0513  0.0798
 4397TIP3    H134606   6.372   2.795  15.699 -1.0890  1.1311 -0.1671
 4397TIP3    H234607   6.479   2.878  15.766 -0.6051  0.1078  0.3591
 4398TIP3   OH234608   6.713   4.650   5.330 -0.0185  0.4687 -0.2019
 4398TIP3    H134609   6.712   4.664   5.424 -0.6469  0.1052 -0.1500
 4398TIP3    H234610   6.749   4.731   5.294  0.0426  0.6813  0.3359
 4399TIP3   OH234611   4.438   6.569   0.646  0.2575 -0.1630 -0.3069
 4399TIP3    H134612   4.384   6.511   0.593 -0.8608 -0.5411  1.1929
 4399TIP3    H234613   4.390   6.580   0.727  3.1228 -1.7908  1.7957
 4400TIP3   OH234614   5.984   5.881  17.069 -0.6505  0.4911 -0.2689
 4400TIP3    H134615   5.897   5.849  17.043 -0.3305 -0.5487 -0.1035
 4400TIP3    H234616   6.038   5.803  17.072 -0.4404  0.6499  2.6722
 4401TIP3   OH234617   3.232   5.817   5.880 -0.0635 -0.0902  0.0705
 4401TIP3    H134618   3.166   5.855   5.821  0.2493  0.2288 -0.0753
 4401TIP3    H234619   3.297   5.780   5.821  0.8143  1.1865  0.1912
 4402TIP3   OH234620   5.687   2.172  12.182 -0.3187 -0.1403  0.1219
 4402TIP3    H134621   5.595   2.184  12.158 -0.7468 -0.0196  1.7201
 4402TIP3    H234622   5.687   2.099  12.243  0.7148 -0.4097 -0.1828
 4403TIP3   OH234623   6.138   5.305  13.312  0.3627 -0.5334 -0.5424
 4403TIP3    H134624   6.187   5.350  13.244  2.1769 -0.0014  1.0040
 4403TIP3    H234625   6.110   5.374  13.372  1.4400 -1.1988  0.8021
 4404TIP3   OH234626   5.057   3.958   0.203 -0.0400 -0.1222  0.2614
 4404TIP3    H134627   5.007   3.991   0.129  0.5239  1.7604  0.6838
 4404TIP3    H234628   5.017   3.998   0.280  0.5948 -0.5231  0.8123
 4405TIP3   OH234629   0.647   1.732  15.989  0.0023 -0.3576  0.2648
 4405TIP3    H134630   0.679   1.732  15.899 -0.3700 -0.3512  0.1307
 4405TIP3    H234631   0.584   1.804  15.993  0.4813  0.0398  0.7004
 4406TIP3   OH234632   4.673   4.093  12.277 -0.1408  0.2165 -0.3640
 4406TIP3    H134633   4.656   4.162  12.213 -1.3072 -0.4203 -0.7655
 4406TIP3    H234634   4.765   4.071  12.264 -0.2926  0.2740 -1.6698
 4407TIP3   OH234635   2.983   5.445  11.863 -0.5833 -0.1350  0.1070
 4407TIP3    H134636   3.012   5.359  11.892 -0.2136  0.0417  0.2611
 4407TIP3    H234637   2.986   5.500  11.941 -0.6111  0.0725 -0.0358
 4408TIP3   OH234638   0.677   2.375  14.089 -0.0290 -0.0205  0.0941
 4408TIP3    H134639   0.636   2.301  14.135  0.0763 -0.2765 -0.2168
 4408TIP3    H234640   0.767   2.375  14.121 -0.3565  0.7942  1.0845
 4409TIP3   OH234641   1.679   3.699   0.665  0.1654  0.0551  0.2166
 4409TIP3    H134642   1.700   3.649   0.585 -0.1318 -0.0036  0.1770
 4409TIP3    H234643   1.626   3.772   0.634  2.2975  1.5949 -0.0222
 4410TIP3   OH234644   6.491   6.720   5.808 -0.1303 -1.3231 -0.2606
 4410TIP3    H134645   6.467   6.683   5.893 -0.4572  1.3282  0.9036
 4410TIP3    H234646   6.586   6.714   5.806 -0.1194 -1.4362  0.2937
 4411TIP3   OH234647   2.265   1.275   6.015 -0.2216 -0.3174  0.5854
 4411TIP3    H134648   2.243   1.364   5.988 -1.9011 -1.2490 -1.4769
 4411TIP3    H234649   2.241   1.272   6.107  0.7767  1.5903  0.9642
 4412TIP3   OH234650   2.463   0.297  15.349 -0.3072  0.1346  0.0077
 4412TIP3    H134651   2.409   0.305  15.270 -1.9933 -1.4115  0.9397
 4412TIP3    H234652   2.536   0.358  15.334 -0.7007  0.0752 -2.6154
 4413TIP3   OH234653   3.636   1.320   2.714 -0.1737  0.4827  0.4007
 4413TIP3    H134654   3.681   1.236   2.706  0.0954  0.7033 -0.5547
 4413TIP3    H234655   3.552   1.299   2.753 -0.5804 -0.4040 -0.8884
 4414TIP3   OH234656   4.488   6.414  14.812  0.0243  0.0573 -0.3575
 4414TIP3    H134657   4.496   6.441  14.903  1.3565 -1.8132  0.1381
 4414TIP3    H234658   4.524   6.487  14.762 -1.4204  1.4331  0.5115
 4415TIP3   OH234659   2.396   2.127   3.248 -0.1622  0.2367  0.3174
 4415TIP3    H134660   2.487   2.113   3.271  0.2640  3.2728  0.8673
 4415TIP3    H234661   2.347   2.102   3.326  0.1580 -1.1532  0.1077
 4416TIP3   OH234662   0.911   4.561   1.020  0.0711 -0.3119  0.1660
 4416TIP3    H134663   1.003   4.548   0.999 -0.2092 -0.2140 -1.2160
 4416TIP3    H234664   0.895   4.654   1.001 -0.4420 -0.4656 -0.1638
 4417TIP3   OH234665   0.148   4.332   6.300 -0.5579 -0.1262  0.0635
 4417TIP3    H134666   0.184   4.248   6.270 -1.9481 -0.8210  0.2620
 4417TIP3    H234667   0.073   4.308   6.354 -0.2763  1.2310  1.1016
 4418TIP3   OH234668   3.616   2.718   6.774  0.5027  0.0682 -0.3447
 4418TIP3    H134669   3.573   2.713   6.859  2.5166  1.3192  0.8339
 4418TIP3    H234670   3.661   2.634   6.764  1.8007  0.5991  0.7582
 4419TIP3   OH234671   6.245   0.190  13.315  0.0582  0.1511 -0.2281
 4419TIP3    H134672   6.309   0.169  13.383 -1.2029 -1.9225  0.3999
 4419TIP3    H234673   6.169   0.224  13.364 -0.9027 -1.4635 -0.5383
 4420TIP3   OH234674   5.391   2.198  12.458  0.1151 -0.8681  0.1588
 4420TIP3    H134675   5.470   2.162  12.500 -0.1289 -2.7013 -0.8245
 4420TIP3    H234676   5.388   2.155  12.372 -0.3947  1.3887 -1.0291
 4421TIP3   OH234677   1.851   2.588   3.539  0.0347  0.2128  0.0371
 4421TIP3    H134678   1.774   2.618   3.490 -1.0753 -1.6099  0.5937
 4421TIP3    H234679   1.851   2.642   3.618  0.8168  1.9421 -1.0735
 4422TIP3   OH234680   5.791   0.946   3.211 -0.2458 -0.2513 -0.3014
 4422TIP3    H134681   5.699   0.941   3.238  0.4448  0.3293  2.4337
 4422TIP3    H234682   5.838   0.896   3.278  1.6393  1.2185 -0.4748
 4423TIP3   OH234683   4.365   2.039   5.997  0.4764  0.3419 -0.4505
 4423TIP3    H134684   4.376   1.971   5.930 -1.5543 -1.5364  0.9994
 4423TIP3    H234685   4.355   1.990   6.078  1.4195  2.5250  1.0550
 4424TIP3   OH234686   0.810   3.868  12.589  0.2826 -0.4391  0.0152
 4424TIP3    H134687   0.827   3.961  12.571  1.7479 -0.9245 -1.4018
 4424TIP3    H234688   0.822   3.860  12.683 -0.9137  0.9927  0.3279
 4425TIP3   OH234689   6.164   6.541  17.169  0.6188 -0.0228  0.1065
 4425TIP3    H134690   6.259   6.542  17.154  0.4749 -1.1375 -1.1454
 4425TIP3    H234691   6.145   6.626  17.208  2.3604 -0.4474  2.0211
 4426TIP3   OH234692   0.842   6.383  14.074  0.1144 -0.1068  0.1488
 4426TIP3    H134693   0.901   6.443  14.119  0.3814 -1.3795  1.5512
 4426TIP3    H234694   0.867   6.390  13.982 -0.7338  2.8840  0.0215
 4427TIP3   OH234695   2.908   3.063   3.471 -0.4712  0.4522  0.3365
 4427TIP3    H134696   2.883   2.981   3.428 -0.7354  1.0222 -0.6271
 4427TIP3    H234697   2.894   3.046   3.565 -2.7993  0.1456 -0.0157
 4428TIP3   OH234698   3.092   5.315  16.723  0.5590  0.0952  0.2588
 4428TIP3    H134699   3.120   5.331  16.633 -0.4102 -0.1995 -0.1099
 4428TIP3    H234700   3.148   5.245  16.754  1.8356  1.1268  0.3703
 4429TIP3   OH234701   5.243   1.435  12.114  0.2810 -0.3536 -0.2467
 4429TIP3    H134702   5.174   1.389  12.161 -0.3169 -1.6125 -2.2013
 4429TIP3    H234703   5.284   1.491  12.179 -3.2070  1.2230  0.8659
 4430TIP3   OH234704   1.930   4.957   1.394 -1.2345  0.6540  0.4513
 4430TIP3    H134705   2.025   4.966   1.388 -1.3310  0.7640 -1.6808
 4430TIP3    H234706   1.914   4.927   1.483  0.8739 -0.1619  0.6086
 4431TIP3   OH234707   1.704   4.325   3.643  0.5517  0.4528 -0.0096
 4431TIP3    H134708   1.687   4.407   3.689  0.5045  0.4136  0.0436
 4431TIP3    H234709   1.619   4.281   3.641  0.1998  1.1316 -1.4922
 4432TIP3   OH234710   4.433   5.585  15.232  0.0939  0.2426  0.0528
 4432TIP3    H134711   4.446   5.598  15.326 -1.6390  0.2027  0.3374
 4432TIP3    H234712   4.364   5.518  15.227 -1.6326  2.0231 -1.1869
 4433TIP3   OH234713   4.075   2.587   0.600  0.3241  0.5796 -0.4681
 4433TIP3    H134714   4.090   2.493   0.615  0.9815  0.7402 -0.1071
 4433TIP3    H234715   4.041   2.591   0.511  0.8817  0.0495 -0.7167
 4434TIP3   OH234716   0.189   5.879  16.548 -0.5502 -0.1485  0.2040
 4434TIP3    H134717   0.206   5.921  16.632  1.5772 -1.0083  0.2742
 4434TIP3    H234718   0.248   5.803  16.547 -0.4634 -0.1305 -2.0681
 4435TIP3   OH234719   6.155   0.080   2.176 -0.4512  0.4360  0.0764
 4435TIP3    H134720   6.111   0.155   2.216  0.3491  2.1028 -2.0127
 4435TIP3    H234721   6.218   0.051   2.243 -1.1254  1.2923  1.1122
 4436TIP3   OH234722   6.641   1.885  15.668 -0.0382 -0.6651  0.0404
 4436TIP3    H134723   6.568   1.823  15.666 -2.4387  1.7934  2.7696
 4436TIP3    H234724   6.633   1.935  15.586 -2.7164  0.7976  1.1023
 4437TIP3   OH234725   5.269   2.007  13.341 -0.1067  0.3013  0.4357
 4437TIP3    H134726   5.346   2.011  13.283 -1.1666  3.4785 -0.9829
 4437TIP3    H234727   5.296   2.053  13.420 -0.5026  1.5775 -0.1332
 4438TIP3   OH234728   0.405   3.470   3.828  0.2610 -0.3982  0.5804
 4438TIP3    H134729   0.499   3.478   3.816  0.2510 -1.1436 -0.0358
 4438TIP3    H234730   0.368   3.540   3.774  0.4865  0.5856  1.6577
 4439TIP3   OH234731   1.686   3.817  13.475  0.2451 -0.3584  0.3228
 4439TIP3    H134732   1.729   3.810  13.560 -1.3290 -1.7594  1.0497
 4439TIP3    H234733   1.646   3.904  13.474 -1.3153 -1.0160  1.8333
 4440TIP3   OH234734   3.490   4.828  16.051 -0.3388  0.7047 -0.2941
 4440TIP3    H134735   3.521   4.764  15.988 -0.5773  1.1381 -0.8560
 4440TIP3    H234736   3.558   4.895  16.053 -0.3332  0.6937 -0.0920
 4441TIP3   OH234737   1.648   1.411   0.963 -0.6363  0.2084 -0.2638
 4441TIP3    H134738   1.733   1.443   0.934 -0.2180 -0.3191  0.3783
 4441TIP3    H234739   1.593   1.415   0.884  0.0708  0.2157 -0.7583
 4442TIP3   OH234740   6.079   2.991  17.436 -0.0003 -0.0498 -0.1354
 4442TIP3    H134741   6.069   3.085  17.421  2.5971  0.2208 -0.7738
 4442TIP3    H234742   6.140   2.984  17.510 -0.1589 -1.2344 -0.0851
 4443TIP3   OH234743   4.113   0.748   4.579  0.1445  0.1270  0.0309
 4443TIP3    H134744   4.149   0.690   4.646 -0.0335 -0.1906 -0.1435
 4443TIP3    H234745   4.100   0.832   4.623  2.0045  0.5491 -0.1463
 4444TIP3   OH234746   1.249   5.429  15.876  0.0091  0.1184 -0.1217
 4444TIP3    H134747   1.210   5.355  15.830 -1.1420  1.9420 -2.3070
 4444TIP3    H234748   1.290   5.481  15.807  0.0660  1.9195  1.1982
 4445TIP3   OH234749   6.515   5.857  11.452 -0.3809  0.1119 -0.1635
 4445TIP3    H134750   6.550   5.797  11.387  0.8886  1.4924 -0.8126
 4445TIP3    H234751   6.572   5.847  11.528 -0.6317 -0.0347  0.0095
 4446TIP3   OH234752   6.116   2.784   1.062  0.5440  0.5690  0.1056
 4446TIP3    H134753   6.111   2.798   1.156  0.4322  0.5883  0.0973
 4446TIP3    H234754   6.120   2.873   1.025  1.2366  0.5507  0.1258
 4447TIP3   OH234755   5.630   4.895   1.914 -0.1714 -0.4231 -0.0949
 4447TIP3    H134756   5.668   4.844   1.986 -0.3575 -0.3703  0.0416
 4447TIP3    H234757   5.654   4.985   1.932  2.8290 -0.7038 -1.9472
 4448TIP3   OH234758   3.337   3.849  16.050  0.0184 -0.5728  0.0470
 4448TIP3    H134759   3.334   3.846  15.954 -0.8791 -2.0520  0.0942
 4448TIP3    H234760   3.247   3.866  16.076  0.2330 -0.3360  0.6377
 4449TIP3   OH234761   5.606   6.244  14.922 -0.4333 -0.0862  0.1370
 4449TIP3    H134762   5.530   6.243  14.980 -0.2692  1.4021  0.4160
 4449TIP3    H234763   5.610   6.155  14.886 -2.5313 -0.1165 -0.1737
 4450TIP3   OH234764   2.284   6.000   3.407  0.1919  0.7744 -0.1619
 4450TIP3    H134765   2.273   6.045   3.323 -0.3948  1.7489  0.4142
 4450TIP3    H234766   2.374   5.968   3.405  0.3032  1.1000 -1.0143
 4451TIP3   OH234767   3.864   4.759   2.067  0.3792 -0.2683  0.1539
 4451TIP3    H134768   3.856   4.836   2.010  1.8616 -0.3562 -0.2027
 4451TIP3    H234769   3.824   4.787   2.149 -0.4357  0.3732 -0.4340
 4452TIP3   OH234770   3.587   0.917   4.157  0.4093  0.2330 -0.2012
 4452TIP3    H134771   3.677   0.912   4.191 -0.1551  1.7164  1.6676
 4452TIP3    H234772   3.570   1.010   4.148 -0.9046 -0.0408 -0.7160
 4453TIP3   OH234773   2.917   3.614  15.995 -0.2002 -0.3143 -0.0353
 4453TIP3    H134774   2.861   3.621  16.073  0.8454 -1.3182  0.8240
 4453TIP3    H234775   2.958   3.701  15.988 -1.3926  0.2462 -0.3386
 4454TIP3   OH234776   2.321   1.876  14.464  0.3566 -0.0378  0.7484
 4454TIP3    H134777   2.302   1.797  14.414  0.6001  0.2548  0.1891
 4454TIP3    H234778   2.329   1.846  14.554 -0.9815 -0.4488  0.7545
 4455TIP3   OH234779   0.546   0.673  14.685  0.7251  0.5679  0.2768
 4455TIP3    H134780   0.556   0.717  14.601 -1.8127  1.3563  0.3209
 4455TIP3    H234781   0.516   0.741  14.745 -2.8059 -0.9517  0.4873
 4456TIP3   OH234782   2.583   6.097   0.460  0.4242  0.0443 -0.1090
 4456TIP3    H134783   2.605   6.089   0.367  1.0471  0.2702  0.0073
 4456TIP3    H234784   2.575   6.007   0.491  3.1427 -0.1823  0.2568
 4457TIP3   OH234785   4.871   2.167   0.718 -0.7174 -0.5483  0.3422
 4457TIP3    H134786   4.815   2.236   0.683  0.2845 -0.2581 -0.7571
 4457TIP3    H234787   4.836   2.086   0.682 -0.6793 -0.4062 -0.0168
 4458TIP3   OH234788   2.802   3.502   1.491 -0.1407  0.0225 -0.2529
 4458TIP3    H134789   2.858   3.425   1.481  0.6272  0.6571 -0.8806
 4458TIP3    H234790   2.793   3.513   1.585 -0.0007 -0.6459 -0.1554
 4459TIP3   OH234791   6.225   0.326   0.043  0.1863  0.7215 -0.3368
 4459TIP3    H134792   6.285   0.295  -0.026 -0.5757 -1.4021 -0.1401
 4459TIP3    H234793   6.244   0.269   0.118  0.6818  2.6979  1.1130
 4460TIP3   OH234794   4.150   5.127   2.871 -0.1567  0.3523 -0.5598
 4460TIP3    H134795   4.123   5.105   2.961  1.9257  1.0531  0.3002
 4460TIP3    H234796   4.138   5.221   2.865  0.8727  0.4889 -0.5758
 4461TIP3   OH234797   1.075   5.484  14.348  0.5831 -0.0593  0.1564
 4461TIP3    H134798   1.003   5.477  14.285 -1.0500 -0.2295  1.9442
 4461TIP3    H234799   1.122   5.563  14.321  0.2507 -0.3883 -1.5341
 4462TIP3   OH234800   3.963   4.542  14.608 -0.0325  0.2535 -0.0230
 4462TIP3    H134801   4.009   4.464  14.638  1.3724  1.1603  0.2498
 4462TIP3    H234802   3.893   4.555  14.673 -1.6945 -1.9473 -1.2245
 4463TIP3   OH234803   6.497   2.949   2.174  0.4893  0.0923 -0.2098
 4463TIP3    H134804   6.581   2.975   2.210  1.0459 -1.3416 -0.3962
 4463TIP3    H234805   6.488   2.856   2.198 -0.9792  0.1876 -0.2913
 4464TIP3   OH234806   0.121   6.157   5.022 -0.1226  0.6191 -0.3562
 4464TIP3    H134807   0.079   6.098   5.084  0.6562  0.9304  0.4929
 4464TIP3    H234808   0.171   6.218   5.077  1.4942  0.2133 -1.3011
 4465TIP3   OH234809   6.312   3.371   0.558  0.5119 -0.2133  0.0329
 4465TIP3    H134810   6.360   3.416   0.627  0.6946 -1.0910  0.4970
 4465TIP3    H234811   6.225   3.356   0.594  1.0785 -2.0852  0.7241
 4466TIP3   OH234812   1.955   0.789   6.048  0.2404  0.2291 -0.4447
 4466TIP3    H134813   1.931   0.698   6.068 -0.1831  0.5909  0.7514
 4466TIP3    H234814   2.050   0.788   6.043  0.2063 -0.7284 -2.7984
 4467TIP3   OH234815   5.714   5.734   1.569 -0.3905  0.0067  0.1856
 4467TIP3    H134816   5.735   5.704   1.480 -1.0762  1.7618 -0.6011
 4467TIP3    H234817   5.755   5.668   1.626  0.1566 -1.1028 -1.4067
 4468TIP3   OH234818   5.242   5.652  12.891  0.1833  0.4756 -0.8901
 4468TIP3    H134819   5.204   5.716  12.831  0.4315  1.3632 -0.1323
 4468TIP3    H234820   5.203   5.672  12.976  1.2951  0.5277 -0.3668
 4469TIP3   OH234821   5.964   2.368   3.874 -0.1721 -0.0946 -0.0791
 4469TIP3    H134822   5.994   2.309   3.805 -2.2507 -0.8232 -0.4395
 4469TIP3    H234823   5.999   2.453   3.851  2.2344 -0.9697  0.0054
 4470TIP3   OH234824   0.982   0.415  12.870  0.3758  0.2984 -0.8941
 4470TIP3    H134825   1.036   0.419  12.949  0.6671 -0.9096 -1.0120
 4470TIP3    H234826   1.008   0.333  12.828 -2.9736 -1.4254  0.0974
 4471TIP3   OH234827   5.093   2.918   1.888 -0.0225 -0.2699  0.6271
 4471TIP3    H134828   5.019   2.928   1.948  0.3341 -0.2594  1.0713
 4471TIP3    H234829   5.077   2.982   1.819 -0.7711 -0.7232  0.3633
 4472TIP3   OH234830   3.560   1.739   1.795 -0.2180  0.4595 -0.0784
 4472TIP3    H134831   3.505   1.754   1.872 -0.4775  2.1532 -0.5574
 4472TIP3    H234832   3.520   1.665   1.751 -1.3181  0.7978  0.3127
 4473TIP3   OH234833   1.857   1.605   0.739  0.4313 -0.3749  0.3340
 4473TIP3    H134834   1.799   1.619   0.665  1.0565  0.4867 -0.0052
 4473TIP3    H234835   1.906   1.526   0.716 -0.1087 -0.7130  0.3176
 4474TIP3   OH234836   6.687   0.589  14.190  0.1998  0.0779  0.3091
 4474TIP3    H134837   6.666   0.559  14.102  1.3847 -1.0564  0.3889
 4474TIP3    H234838   6.669   0.513  14.246 -0.0631  0.6279  0.9946
 4475TIP3   OH234839   3.583   1.461  16.488  0.1832 -0.4925 -0.5968
 4475TIP3    H134840   3.640   1.469  16.565  2.0749 -3.3323 -1.5549
 4475TIP3    H234841   3.547   1.373  16.495 -3.6523  0.8949 -0.4746
 4476TIP3   OH234842   3.421   3.823   2.487 -0.1250  0.0433  0.5812
 4476TIP3    H134843   3.449   3.912   2.510  3.4495 -0.7764  0.0090
 4476TIP3    H234844   3.456   3.809   2.399 -2.4215 -1.3025 -0.2122
 4477TIP3   OH234845   0.991   0.027  13.735 -0.5570  0.2890  0.0361
 4477TIP3    H134846   1.009   0.117  13.761  1.1229  0.1779 -0.6187
 4477TIP3    H234847   0.940   0.036  13.654 -1.7954  0.6240  0.8308
 4478TIP3   OH234848   4.241   1.305  16.905  0.2151  0.0310  0.2878
 4478TIP3    H134849   4.300   1.361  16.954  1.2080  0.4486 -1.3090
 4478TIP3    H234850   4.297   1.235  16.871 -0.5606 -0.6096  0.3030
 4479TIP3   OH234851   2.242   0.175   1.235 -0.1439 -0.2441  0.3987
 4479TIP3    H134852   2.314   0.141   1.182 -1.7291 -0.7393 -1.5581
 4479TIP3    H234853   2.213   0.100   1.286 -1.3744 -1.0081 -1.3184
 4480TIP3   OH234854   4.025   4.737   5.222 -0.1705 -0.2472  0.0498
 4480TIP3    H134855   4.093   4.687   5.177 -1.9210 -1.0684 -1.8184
 4480TIP3    H234856   4.063   4.825   5.233  0.8769 -0.4366 -1.7334
 4481TIP3   OH234857   2.444   5.059  15.542 -0.0648 -0.4630  0.4222
 4481TIP3    H134858   2.407   5.016  15.465  1.6681  2.2737 -2.1558
 4481TIP3    H234859   2.384   5.131  15.561 -0.6721 -1.3313  1.9528
 4482TIP3   OH234860   1.167   6.359   6.375 -0.3493 -0.4909 -0.2350
 4482TIP3    H134861   1.216   6.439   6.389 -1.4407  0.6340 -2.3237
 4482TIP3    H234862   1.218   6.310   6.310 -1.1905 -0.0019 -1.2987
 4483TIP3   OH234863   3.567   5.810   4.598 -0.4036  0.1680  0.2438
 4483TIP3    H134864   3.657   5.780   4.613 -0.6491 -0.8388 -0.1858
 4483TIP3    H234865   3.573   5.905   4.595  0.4724  0.1685  1.3723
 4484TIP3   OH234866   2.517   0.335  12.769  0.3481 -0.1712 -0.2571
 4484TIP3    H134867   2.578   0.264  12.790  1.3570  0.6762 -0.2553
 4484TIP3    H234868   2.536   0.356  12.677  1.6221  1.5437  0.3410
 4485TIP3   OH234869   0.288   3.071   3.603 -0.1879 -0.3354  0.1594
 4485TIP3    H134870   0.227   2.998   3.603 -0.1203 -0.4090 -1.0534
 4485TIP3    H234871   0.266   3.121   3.682 -1.1581 -0.8980  0.2569
 4486TIP3   OH234872   2.259   2.072   0.801  0.3768  0.0974 -0.3810
 4486TIP3    H134873   2.246   2.098   0.892  0.1561 -0.2241 -0.3194
 4486TIP3    H234874   2.348   2.037   0.799  0.9281  1.4714 -0.6121
 4487TIP3   OH234875   2.085   3.909   3.402 -0.2121  0.1881 -0.2479
 4487TIP3    H134876   2.005   3.960   3.410  0.5136  1.1100  2.3914
 4487TIP3    H234877   2.153   3.974   3.384  0.1729 -0.3894 -0.9433
 4488TIP3   OH234878   3.697   5.279  13.487 -0.4114  0.3010  0.0567
 4488TIP3    H134879   3.609   5.315  13.471 -0.4748 -0.4396 -1.4048
 4488TIP3    H234880   3.684   5.212  13.553 -0.7968  0.8071  0.5029
 4489TIP3   OH234881   0.301   4.102   6.216 -0.9621 -0.8786 -0.2132
 4489TIP3    H134882   0.299   4.009   6.197  0.4281 -0.8566 -0.6298
 4489TIP3    H234883   0.368   4.112   6.283 -1.5589 -0.2503  0.3028
 4490TIP3   OH234884   1.572   2.265   1.226 -0.4601  0.0025 -0.1126
 4490TIP3    H134885   1.487   2.250   1.185  0.4246  0.0707 -2.1262
 4490TIP3    H234886   1.635   2.229   1.163  0.9202 -3.3458  2.8557
 4491TIP3   OH234887   5.925   5.736  12.931  0.6820  0.1493  0.3132
 4491TIP3    H134888   5.935   5.736  13.026  1.1087  1.7483  0.2992
 4491TIP3    H234889   5.843   5.690  12.915  0.1620  0.6221  1.5208
 4492TIP3   OH234890   6.111   2.914  17.108  0.6500 -0.0382 -0.4381
 4492TIP3    H134891   6.027   2.960  17.117  0.9446  0.3727  0.3100
 4492TIP3    H234892   6.102   2.836  17.164  0.4398 -0.4774 -1.0781
 4493TIP3   OH234893   3.667   2.317  13.129  0.2074 -0.3639  0.0241
 4493TIP3    H134894   3.641   2.287  13.042  2.8067 -0.3356 -0.8353
 4493TIP3    H234895   3.645   2.410  13.129 -1.7555 -0.7803  0.2475
 4494TIP3   OH234896   4.669   1.748  16.080  0.0078  0.6175 -0.1053
 4494TIP3    H134897   4.753   1.740  16.124  0.8879  0.0990 -1.8471
 4494TIP3    H234898   4.667   1.839  16.048 -0.8725  1.1713  1.3808
 4495TIP3   OH234899   2.387   5.872   6.879  0.4129 -0.1745 -0.6393
 4495TIP3    H134900   2.364   5.955   6.839 -0.2248  0.3512  0.7436
 4495TIP3    H234901   2.482   5.864   6.867  0.7714  1.5969  0.7001
 4496TIP3   OH234902   0.703   1.569   1.986 -0.1877 -0.2965  0.6241
 4496TIP3    H134903   0.613   1.554   1.954  0.3892 -0.1095 -1.2295
 4496TIP3    H234904   0.726   1.487   2.031 -1.5690 -0.0194  1.9233
 4497TIP3   OH234905   6.024   1.957   1.842 -0.0059 -0.3690 -0.3826
 4497TIP3    H134906   5.969   1.950   1.920 -1.4953 -0.0595 -1.3795
 4497TIP3    H234907   6.043   2.051   1.834  0.2195 -0.4109 -0.3418
 4498TIP3   OH234908   4.980   3.639   4.087  1.0324  0.5860 -0.5158
 4498TIP3    H134909   5.045   3.686   4.034  2.7416 -2.2882 -1.2090
 4498TIP3    H234910   5.033   3.589   4.150 -0.8188  1.5111  1.9270
 4499TIP3   OH234911   3.975   5.127   5.717 -0.1071  0.2942 -0.0245
 4499TIP3    H134912   3.945   5.068   5.785  0.4550  0.4422  0.3595
 4499TIP3    H234913   3.950   5.214   5.748  2.1961  0.6052  1.1563
 4500TIP3   OH234914   4.407   3.722  13.645  0.1324  0.1411 -0.5554
 4500TIP3    H134915   4.353   3.789  13.687 -0.4030 -0.4185 -0.3354
 4500TIP3    H234916   4.430   3.663  13.716 -1.7787 -1.4874 -1.2038
 4501TIP3   OH234917   5.786   5.329  15.666 -0.3982  0.4635 -0.3719
 4501TIP3    H134918   5.788   5.415  15.708  1.1473 -0.4006  1.4430
 4501TIP3    H234919   5.716   5.282  15.711  0.4310 -0.0444  0.4200
 4502TIP3   OH234920   2.712   5.244  12.629  0.1915  0.7440 -0.3857
 4502TIP3    H134921   2.753   5.207  12.551  0.4876  0.6295 -0.1738
 4502TIP3    H234922   2.756   5.202  12.702 -0.9107 -0.0597 -0.1513
 4503TIP3   OH234923   0.130   2.563   3.218 -0.2383  0.2206  0.7679
 4503TIP3    H134924   0.095   2.519   3.296 -0.9138 -0.1126  0.2914
 4503TIP3    H234925   0.149   2.492   3.157  1.4549  0.3837  1.0610
 4504TIP3   OH234926   3.602   1.026  14.644 -0.4365  0.3577  0.0813
 4504TIP3    H134927   3.599   1.121  14.658  0.5639  0.2896  0.9144
 4504TIP3    H234928   3.511   0.999  14.640 -0.7523  1.4626 -0.9923
 4505TIP3   OH234929   0.249   1.615  14.577 -0.1769 -0.4275 -0.2249
 4505TIP3    H134930   0.329   1.668  14.579 -1.0783  1.1166 -1.7008
 4505TIP3    H234931   0.236   1.588  14.668 -0.3743  3.1193  0.9680
 4506TIP3   OH234932   6.178   2.191  14.715  0.1542  0.5232  0.5215
 4506TIP3    H134933   6.136   2.145  14.642 -0.6090  1.0753  0.5964
 4506TIP3    H234934   6.263   2.149  14.724  0.1648  0.2842 -0.5315
 4507TIP3   OH234935   2.306   2.632  10.488  0.3569 -0.3469 -0.0397
 4507TIP3    H134936   2.324   2.561  10.550  0.3796  0.4222  0.8449
 4507TIP3    H234937   2.214   2.621  10.466  0.2431 -0.3926  0.4420
 4508TIP3   OH234938   3.522   5.035  13.595 -0.1839  0.0617  0.1915
 4508TIP3    H134939   3.524   4.991  13.681  1.4979  0.3234  0.3193
 4508TIP3    H234940   3.526   4.963  13.532  1.4130 -0.0515  0.3866
 4509TIP3   OH234941   3.034   0.816  13.403  0.3148  0.2981  0.3600
 4509TIP3    H134942   2.949   0.860  13.405  0.4459  0.5771  2.5175
 4509TIP3    H234943   3.095   0.881  13.440  1.1586 -0.4558  0.3263
 4510TIP3   OH234944   3.159   0.557   6.010  0.3177  0.2501 -0.0208
 4510TIP3    H134945   3.241   0.592   6.046  0.5862  1.3389 -1.5617
 4510TIP3    H234946   3.181   0.532   5.920 -1.0359  0.5549 -0.4630
 4511TIP3   OH234947   1.992   6.507   5.149  0.4395 -0.0618  0.2046
 4511TIP3    H134948   1.962   6.584   5.198 -2.0795  1.2934 -3.0542
 4511TIP3    H234949   1.923   6.442   5.163  1.0108 -0.6157  0.4841
 4512TIP3   OH234950   0.170   4.384   4.147  0.4450  0.2943 -0.1237
 4512TIP3    H134951   0.247   4.437   4.166  0.9006 -0.7587  1.1288
 4512TIP3    H234952   0.188   4.299   4.188 -1.4064  0.0481  0.2854
 4513TIP3   OH234953   5.576   2.419   4.056 -0.3508 -0.5243  0.2884
 4513TIP3    H134954   5.562   2.513   4.067  0.8716 -0.3184  0.2978
 4513TIP3    H234955   5.644   2.397   4.121 -0.3515 -1.3347  0.0317
 4514TIP3   OH234956   3.660   0.998  12.193 -0.2404 -0.2987 -0.0176
 4514TIP3    H134957   3.709   0.919  12.217 -0.5007 -0.2843  0.5941
 4514TIP3    H234958   3.704   1.068  12.242  0.2875  0.0219 -0.9276
 4515TIP3   OH234959   4.950   6.344   1.706  0.0562  0.0198  0.1903
 4515TIP3    H134960   4.995   6.413   1.755 -1.1998  0.5095  0.6938
 4515TIP3    H234961   4.940   6.273   1.770 -1.8867  0.7889  0.8010
 4516TIP3   OH234962   4.408   4.382  16.103  0.6921  0.1614  0.2663
 4516TIP3    H134963   4.413   4.468  16.062  0.4233 -0.1027 -0.3333
 4516TIP3    H234964   4.498   4.353  16.110  0.7197  0.0559 -0.4762
 4517TIP3   OH234965   5.070   2.380   4.541 -0.2752 -0.4694  0.1382
 4517TIP3    H134966   5.068   2.292   4.504 -1.7543 -1.4056  2.2808
 4517TIP3    H234967   5.000   2.426   4.495  1.0668 -0.0458 -1.6245
 4518TIP3   OH234968   6.348   2.061  11.906  0.2920 -0.1092  0.4782
 4518TIP3    H134969   6.299   2.033  11.829  0.7149 -0.5821  0.3782
 4518TIP3    H234970   6.287   2.047  11.979 -0.2743  0.7789  0.1894
 4519TIP3   OH234971   3.809   4.995   4.990 -0.2161  0.3049 -0.4803
 4519TIP3    H134972   3.808   5.048   5.070  1.5546 -0.3429  0.0195
 4519TIP3    H234973   3.801   5.060   4.919 -0.3391  1.0283  0.1787
 4520TIP3   OH234974   4.712   6.408  13.753 -0.3072  0.2155  0.0046
 4520TIP3    H134975   4.631   6.390  13.799 -0.6146  1.4321 -0.0276
 4520TIP3    H234976   4.707   6.501  13.731  0.4922 -0.0043 -1.1828
 4521TIP3   OH234977   6.521   5.091   2.116  0.4825  0.2788  0.0105
 4521TIP3    H134978   6.477   5.135   2.189 -0.1538  0.5657 -0.5358
 4521TIP3    H234979   6.538   5.002   2.148 -3.4546 -0.9780 -0.8000
 4522TIP3   OH234980   1.436   0.738  11.434  0.1079 -0.5434  0.1731
 4522TIP3    H134981   1.408   0.647  11.428  2.8198 -1.4263 -0.6571
 4522TIP3    H234982   1.425   0.773  11.345  0.5379 -0.5564  0.1120
 4523TIP3   OH234983   0.834   2.715   5.848 -0.0267 -0.1396 -0.1715
 4523TIP3    H134984   0.839   2.746   5.938 -1.1959  0.0084 -0.1541
 4523TIP3    H234985   0.836   2.620   5.855 -1.8513 -0.1799  0.1471
 4524TIP3   OH234986   5.725   6.367  14.146 -0.0442 -0.1170 -0.4903
 4524TIP3    H134987   5.678   6.287  14.168  0.1904  0.4688  2.4806
 4524TIP3    H234988   5.806   6.363  14.197  1.3787  0.7129 -2.5236
 4525TIP3   OH234989   4.688   3.825   0.293  0.3640 -0.3038 -0.1215
 4525TIP3    H134990   4.714   3.878   0.218  0.2417 -0.7707 -0.4975
 4525TIP3    H234991   4.669   3.889   0.362 -1.4470  0.2666 -1.0758
 4526TIP3   OH234992   6.467   4.568  11.569  0.4732  0.1962 -0.2676
 4526TIP3    H134993   6.537   4.616  11.524  1.4707 -1.1362 -0.2185
 4526TIP3    H234994   6.412   4.636  11.607  2.6842  1.3354  1.1158
 4527TIP3   OH234995   1.060   3.385  13.059 -0.8489  0.2871 -0.7145
 4527TIP3    H134996   0.985   3.356  13.111 -0.4647 -0.6061 -0.6307
 4527TIP3    H234997   1.134   3.335  13.094 -0.7520 -1.1033 -2.7448
 4528TIP3   OH234998   1.381   2.701   0.476  0.2710  0.1680  0.7628
 4528TIP3    H134999   1.470   2.723   0.446 -0.2097 -1.5103 -2.3428
 4528TIP3    H235000   1.324   2.731   0.405 -1.4056 -0.7966  1.6503
 4529TIP3   OH235001   1.457   0.120   4.061 -0.1860  0.1326  0.0664
 4529TIP3    H135002   1.383   0.130   4.001  0.4739  0.0772 -0.7729
 4529TIP3    H235003   1.526   0.175   4.024  0.1067  0.4334  1.0091
 4530TIP3   OH235004   3.853   2.985   5.642 -0.1726 -0.2680  0.4349
 4530TIP3    H135005   3.946   3.003   5.653 -0.1026 -0.3179 -0.0647
 4530TIP3    H235006   3.810   3.044   5.704 -0.0727  3.3241 -2.5431
 4531TIP3   OH235007   2.684   4.735  11.954  0.1018  0.0972  0.1282
 4531TIP3    H135008   2.730   4.720  12.037  0.7277 -0.6521 -0.3418
 4531TIP3    H235009   2.735   4.804  11.911  2.2145 -2.2314 -1.3839
 4532TIP3   OH235010   2.227   4.249  14.293  0.1900 -0.4465  0.9162
 4532TIP3    H135011   2.165   4.191  14.249  0.0423  0.4329 -0.0975
 4532TIP3    H235012   2.204   4.245  14.385 -0.8483 -0.7527  0.6524
 4533TIP3   OH235013   4.442   5.466   2.101  0.3572 -0.5780 -0.0875
 4533TIP3    H135014   4.378   5.395   2.107 -1.5344  1.0968  0.8922
 4533TIP3    H235015   4.390   5.543   2.079  2.1381  0.7745  0.1937
 4534TIP3   OH235016   5.099   3.134   1.179 -0.5243 -0.9077  0.0666
 4534TIP3    H135017   5.090   3.086   1.097 -2.1693 -0.0202 -0.3013
 4534TIP3    H235018   5.039   3.090   1.240 -1.9229  0.5177 -0.2275
 4535TIP3   OH235019   3.908   1.699  14.675  0.2320 -0.5463 -0.1625
 4535TIP3    H135020   3.959   1.774  14.704  1.2682 -0.9150 -0.9594
 4535TIP3    H235021   3.973   1.640  14.636 -0.4930 -2.0462  0.8282
 4536TIP3   OH235022   1.881   2.613  15.785 -0.2270  0.1862  0.2173
 4536TIP3    H135023   1.791   2.589  15.808 -0.6671  0.5810 -1.0270
 4536TIP3    H235024   1.925   2.623  15.870 -0.8495 -1.8147  0.8239
 4537TIP3   OH235025   5.761   1.091  15.746  0.2417 -0.3707 -0.3181
 4537TIP3    H135026   5.804   1.160  15.695  0.7801  0.1728  0.8397
 4537TIP3    H235027   5.821   1.073  15.818 -0.4850 -1.1531  0.1142
 4538TIP3   OH235028   6.510   0.522   1.285 -0.0006  0.0929  0.7994
 4538TIP3    H135029   6.468   0.538   1.200 -0.1063  1.0400  1.0245
 4538TIP3    H235030   6.440   0.490   1.341 -0.0724  0.1252  0.7281
 4539TIP3   OH235031   2.200   3.071   6.447  0.3821  0.0377  0.0873
 4539TIP3    H135032   2.154   2.987   6.457  1.8183 -0.9593 -1.1642
 4539TIP3    H235033   2.134   3.137   6.466 -1.0867 -1.3645  0.0850
 4540TIP3   OH235034   1.576   2.880  11.475  0.2505 -0.3110  0.2855
 4540TIP3    H135035   1.548   2.961  11.433 -0.7701 -0.5441  0.4858
 4540TIP3    H235036   1.640   2.907  11.540 -0.2202  0.3703  0.4759
 4541TIP3   OH235037   2.954   6.196  16.473 -0.0587  0.2539 -0.8162
 4541TIP3    H135038   2.870   6.155  16.456  0.1271 -0.1987 -0.6455
 4541TIP3    H235039   2.989   6.217  16.386  0.4325 -1.1299 -0.9662
 4542TIP3   OH235040   1.608   2.995   4.360 -0.2845  0.3757 -0.1485
 4542TIP3    H135041   1.703   3.007   4.359  0.0070 -1.6278 -1.2979
 4542TIP3    H235042   1.573   3.080   4.332  1.1349  1.2100  0.5132
 4543TIP3   OH235043   4.195   3.305   1.395  0.3516 -0.3128 -0.1697
 4543TIP3    H135044   4.220   3.218   1.362 -0.2168  0.3510 -2.5471
 4543TIP3    H235045   4.101   3.312   1.375  0.4124  0.8873 -0.0903
 4544TIP3   OH235046   1.277   0.469  16.615 -0.1709  0.4149 -0.2602
 4544TIP3    H135047   1.317   0.556  16.614 -0.6114  0.6620  1.3749
 4544TIP3    H235048   1.190   0.483  16.652 -0.7782 -0.5281 -1.2803
 4545TIP3   OH235049   0.245   1.913  14.829  0.3660 -0.4466 -0.2462
 4545TIP3    H135050   0.201   1.830  14.847  1.8256 -1.7381 -2.3075
 4545TIP3    H235051   0.211   1.941  14.744 -0.2188  1.2063  0.4774
 4546TIP3   OH235052   6.508   3.812  13.812  0.3826 -0.3338 -0.7032
 4546TIP3    H135053   6.460   3.732  13.831  1.2636 -0.6696  0.2013
 4546TIP3    H235054   6.463   3.850  13.736 -0.9635 -0.9029 -0.2221
 4547TIP3   OH235055   3.219   5.870  16.579 -0.1863 -0.0355 -0.1021
 4547TIP3    H135056   3.245   5.924  16.654  0.5924  1.1503 -1.1965
 4547TIP3    H235057   3.263   5.786  16.594 -0.8156 -0.1602  1.2392
 4548TIP3   OH235058   2.193   3.078  15.806 -0.2649  0.2451  0.2607
 4548TIP3    H135059   2.197   3.088  15.711  1.0402 -1.8803  0.0135
 4548TIP3    H235060   2.104   3.049  15.823 -0.5939  0.9261 -0.2852
 4549TIP3   OH235061   0.026   1.427  16.566 -0.0615 -0.3832 -0.9460
 4549TIP3    H135062   0.085   1.486  16.612  0.7897 -0.3481 -2.0377
 4549TIP3    H235063   0.077   1.396  16.491 -1.3465 -0.5168 -1.7970
 4550TIP3   OH235064   5.671   4.252  14.236 -0.0268  0.1688  0.3890
 4550TIP3    H135065   5.749   4.229  14.287 -0.4673 -1.0866  0.5286
 4550TIP3    H235066   5.664   4.347  14.244  0.3600  0.0883  2.0400
 4551TIP3   OH235067   4.401   5.459  12.567 -0.1053 -0.0851 -0.4109
 4551TIP3    H135068   4.460   5.506  12.626  0.3572 -1.1322 -0.0241
 4551TIP3    H235069   4.319   5.452  12.615  0.4154 -1.3641  0.3428
 4552TIP3   OH235070   5.447   3.526   1.442 -0.5736 -0.5517 -0.4502
 4552TIP3    H135071   5.353   3.514   1.430 -0.5454 -1.2984  0.0295
 4552TIP3    H235072   5.487   3.451   1.397 -0.3227 -1.5277  1.3115
 4553TIP3   OH235073   5.968   0.432  13.704  0.0041 -0.3585 -0.0905
 4553TIP3    H135074   6.057   0.403  13.687  0.9163  1.6093  0.9332
 4553TIP3    H235075   5.946   0.396  13.790  0.2784  0.0738  0.1685
 4554TIP3   OH235076   3.851   6.564   3.692  0.6064  0.1691 -0.6658
 4554TIP3    H135077   3.826   6.640   3.640 -0.7979 -0.1393 -0.4680
 4554TIP3    H235078   3.793   6.567   3.769  0.9747 -0.7404 -0.3386
 4555TIP3   OH235079   4.790   6.101  15.759  0.6773  0.0466 -0.5071
 4555TIP3    H135080   4.845   6.105  15.837 -0.4538  0.4018  0.3054
 4555TIP3    H235081   4.822   6.172  15.703  1.6425 -0.3505 -0.4800
 4556TIP3   OH235082   2.307   1.489  15.553 -0.1971  0.3055 -0.8242
 4556TIP3    H135083   2.304   1.492  15.648 -2.9721  0.5836 -0.8278
 4556TIP3    H235084   2.381   1.432  15.533 -0.0852 -0.4883  1.5143
 4557TIP3   OH235085   4.149   0.351   0.212  0.3037  0.3862  0.4152
 4557TIP3    H135086   4.135   0.267   0.168  0.7350 -0.5782  2.0258
 4557TIP3    H235087   4.061   0.381   0.233  0.0856  0.8752 -1.0593
 4558TIP3   OH235088   4.095   2.721  16.629 -0.2067 -0.0280  0.0306
 4558TIP3    H135089   4.007   2.744  16.598 -1.1010  1.0219  3.0131
 4558TIP3    H235090   4.109   2.775  16.706  2.6353 -1.0015  0.3394
 4559TIP3   OH235091   0.490   2.984   6.540  0.5349 -0.6384  0.0332
 4559TIP3    H135092   0.519   2.894   6.556  1.4727 -0.2210  0.8461
 4559TIP3    H235093   0.570   3.037   6.548  0.0506  0.2448 -0.6933
 4560TIP3   OH235094   0.351   2.022  12.557 -0.1005 -0.8648  0.6293
 4560TIP3    H135095   0.446   2.034  12.559  0.0762 -1.8021 -0.7803
 4560TIP3    H235096   0.317   2.109  12.536  0.5538 -0.8275 -0.3497
 4561TIP3   OH235097   3.011   4.382  15.163  0.2120  0.6408 -0.4521
 4561TIP3    H135098   3.039   4.422  15.245  1.5756  0.8850 -1.0098
 4561TIP3    H235099   3.035   4.445  15.095  1.5598 -0.6781 -1.2699
 4562TIP3   OH235100   6.086   1.507   4.470 -0.1157  0.1134  0.2049
 4562TIP3    H135101   6.160   1.556   4.504  2.5823 -1.5673 -2.6256
 4562TIP3    H235102   6.108   1.415   4.487 -1.7834 -0.4292 -0.3128
 4563TIP3   OH235103   3.844   3.844  11.836  0.0305 -0.3549 -0.3814
 4563TIP3    H135104   3.779   3.855  11.767  0.4558  2.0919 -0.4788
 4563TIP3    H235105   3.792   3.818  11.913 -0.8630  0.0146 -0.8399
 4564TIP3   OH235106   4.662   6.264   2.628  0.0129 -0.2852  0.0987
 4564TIP3    H135107   4.701   6.295   2.710 -1.0059  0.2154  0.4008
 4564TIP3    H235108   4.589   6.323   2.612  0.7744  0.2283 -1.6852
 4565TIP3   OH235109   4.445   1.148  17.391  0.3594  0.5529 -0.6531
 4565TIP3    H135110   4.419   1.159  17.482  1.5567 -0.2521 -0.1918
 4565TIP3    H235111   4.540   1.165  17.391  0.1818  1.6936 -1.9513
 4566TIP3   OH235112   3.364   5.662   5.721  0.0127  1.0696 -0.1953
 4566TIP3    H135113   3.310   5.603   5.774 -0.3612  0.1714 -1.5226
 4566TIP3    H235114   3.413   5.604   5.663  1.1028  1.9804 -0.2107
 4567TIP3   OH235115   4.834   1.906  13.460  0.4386  0.3029  0.0248
 4567TIP3    H135116   4.804   1.994  13.440 -0.2008  0.1137  0.1456
 4567TIP3    H235117   4.844   1.905  13.555  2.6072  0.9228 -0.1330
 4568TIP3   OH235118   0.669   3.055   4.565  0.2144  0.3240 -0.5820
 4568TIP3    H135119   0.647   2.993   4.635 -1.0264 -1.5064 -2.4688
 4568TIP3    H235120   0.700   3.133   4.611  0.9149 -1.3191  1.9518
 4569TIP3   OH235121   4.844   0.694  11.957  0.0386  0.2057 -0.2143
 4569TIP3    H135122   4.787   0.765  11.988 -2.1892 -1.9606  1.0063
 4569TIP3    H235123   4.887   0.662  12.037  0.6653 -0.1559 -0.6870
 4570TIP3   OH235124   0.318   2.304   3.566  0.1844  0.2455 -0.0314
 4570TIP3    H135125   0.274   2.297   3.651  0.1070 -1.2110 -0.1774
 4570TIP3    H235126   0.409   2.325   3.587  0.0957  0.1935  0.3998
 4571TIP3   OH235127   1.997   4.852   4.431  0.1685  0.3912  0.4801
 4571TIP3    H135128   2.076   4.847   4.377  0.3300  1.0415  0.6453
 4571TIP3    H235129   1.929   4.880   4.371 -0.4615 -2.2763 -0.1690
 4572TIP3   OH235130   4.314   1.760  17.202 -0.6189 -0.0049 -0.1635
 4572TIP3    H135131   4.344   1.845  17.234 -2.4603  0.8728 -0.6419
 4572TIP3    H235132   4.274   1.719  17.278  0.8643 -0.7696  0.2364
 4573TIP3   OH235133   5.777   2.240   0.798 -0.2180  0.3216  0.0670
 4573TIP3    H135134   5.798   2.282   0.881  1.4758 -1.1247  0.4368
 4573TIP3    H235135   5.742   2.310   0.743  0.2913  1.6743  1.4134
 4574TIP3   OH235136   2.050   3.729  11.597 -0.5274 -0.2734 -0.0406
 4574TIP3    H135137   2.129   3.753  11.646 -0.3646  0.9856 -0.9059
 4574TIP3    H235138   2.080   3.664  11.534 -0.3330 -0.3564  0.1347
 4575TIP3   OH235139   2.544   2.528   2.623  0.1698 -0.1534  0.5448
 4575TIP3    H135140   2.606   2.585   2.578  0.7002 -1.4170 -0.3978
 4575TIP3    H235141   2.555   2.549   2.715  2.1546 -0.4359  0.4327
 4576TIP3   OH235142   1.239   3.134   1.557 -0.0545  0.1006 -0.5896
 4576TIP3    H135143   1.173   3.131   1.487  0.1496  0.4147 -0.7977
 4576TIP3    H235144   1.316   3.172   1.516  0.1015  0.1874 -0.2216
 4577TIP3   OH235145   2.151   1.666  13.761  0.1520  0.4053  0.0949
 4577TIP3    H135146   2.194   1.700  13.683 -0.3619  0.2719 -0.2512
 4577TIP3    H235147   2.222   1.633  13.816  0.6366  1.6571  0.2639
 4578TIP3   OH235148   3.644   0.760   3.822 -0.7933  0.2913 -0.0962
 4578TIP3    H135149   3.663   0.811   3.743 -2.0948 -1.3039 -1.5401
 4578TIP3    H235150   3.556   0.786   3.847 -1.0692 -0.4762 -0.2437
 4579TIP3   OH235151   5.438   4.185   4.992 -0.0305 -0.1287 -0.2346
 4579TIP3    H135152   5.349   4.150   5.002  0.6390 -1.8456  0.0476
 4579TIP3    H235153   5.467   4.154   4.906  0.5410 -0.1669 -0.0329
 4580TIP3   OH235154   4.489   1.726  16.453  0.1883  0.1338 -0.1293
 4580TIP3    H135155   4.486   1.821  16.441 -0.0964  0.0414 -0.8662
 4580TIP3    H235156   4.416   1.693  16.399  1.3511 -0.6331 -1.2928
 4581TIP3   OH235157   1.296   2.939  11.657 -0.0264 -0.0303  0.4935
 4581TIP3    H135158   1.344   2.899  11.730 -1.2501 -2.4067  0.0897
 4581TIP3    H235159   1.322   3.031  11.660  3.0678 -0.7835  1.4406
 4582TIP3   OH235160   0.095   1.354  12.624 -0.8557 -0.3936 -0.6060
 4582TIP3    H135161   0.059   1.384  12.541  0.4866  0.6765 -0.8282
 4582TIP3    H235162   0.181   1.319  12.602 -0.8638 -0.9667  0.2173
 4583TIP3   OH235163   2.034   0.825   3.662 -0.2385  0.0262  0.2394
 4583TIP3    H135164   2.093   0.848   3.734  0.1372  0.0859 -0.0866
 4583TIP3    H235165   1.948   0.856   3.691  0.1322  1.2102  0.1140
 4584TIP3   OH235166   5.228   4.447   5.768  0.4807 -0.2761 -0.5884
 4584TIP3    H135167   5.296   4.505   5.802 -0.5740  0.5340  0.2117
 4584TIP3    H235168   5.259   4.359   5.789  0.2935  0.1432  1.8421
 4585TIP3   OH235169   2.851   4.405   1.428 -0.0829 -0.5431  0.4979
 4585TIP3    H135170   2.777   4.347   1.411  0.6242 -1.1956 -0.4620
 4585TIP3    H235171   2.812   4.492   1.436 -0.7966 -0.4984 -2.2569
 4586TIP3   OH235172   2.697   3.576   1.749 -0.3093 -0.4342 -0.5422
 4586TIP3    H135173   2.754   3.525   1.807 -1.5119 -0.5209  0.6258
 4586TIP3    H235174   2.611   3.534   1.758 -0.8212  0.4301 -1.3096
 4587TIP3   OH235175   5.818   3.216  12.621 -0.2089  0.0427  0.5529
 4587TIP3    H135176   5.860   3.267  12.552 -1.8761 -0.4058 -0.8397
 4587TIP3    H235177   5.869   3.135  12.626  0.5702  0.5303  0.6187
 4588TIP3   OH235178   2.702   5.913  16.659 -0.4473 -0.3179 -0.4669
 4588TIP3    H135179   2.782   5.897  16.610 -0.5213 -2.5625  0.0014
 4588TIP3    H235180   2.632   5.883  16.601 -0.8062  0.0244 -0.2176
 4589TIP3   OH235181   5.844   5.183  14.340  0.0510  0.2659 -0.1389
 4589TIP3    H135182   5.769   5.125  14.348 -0.0264  0.4346  0.4177
 4589TIP3    H235183   5.834   5.246  14.412  0.9042  0.0838  0.1577
 4590TIP3   OH235184   5.157   5.390  13.323 -0.2386 -0.2651  0.0532
 4590TIP3    H135185   5.239   5.342  13.330 -0.3257 -0.2452  1.4916
 4590TIP3    H235186   5.132   5.408  13.414 -2.7188 -1.7690 -0.2589
 4591TIP3   OH235187   0.910   5.927  14.838 -0.0416  0.5396 -0.5763
 4591TIP3    H135188   1.002   5.948  14.854  0.9003 -2.5825 -1.2483
 4591TIP3    H235189   0.872   5.919  14.926  0.6964  0.3817 -0.2688
 4592TIP3   OH235190   5.044   0.403   1.418 -0.3272 -0.1220  0.0950
 4592TIP3    H135191   5.008   0.402   1.329  0.0606  0.6408 -0.0799
 4592TIP3    H235192   5.011   0.323   1.458 -1.1186 -0.1065 -0.4945
 4593TIP3   OH235193   5.023   3.259  14.438 -0.2883  0.0182 -0.2263
 4593TIP3    H135194   5.060   3.217  14.360 -0.4902 -0.2406 -0.1841
 4593TIP3    H235195   5.097   3.306  14.477 -0.1299 -0.0520 -0.4400
 4594TIP3   OH235196   1.048   4.498   2.620  0.0839  0.3185  0.0024
 4594TIP3    H135197   0.996   4.577   2.603 -0.3588  0.0021 -0.1157
 4594TIP3    H235198   1.128   4.531   2.662 -0.8927  0.6802  1.6707
 4595TIP3   OH235199   0.005   1.672   5.517  0.1206  0.0728 -0.3424
 4595TIP3    H135200   0.099   1.673   5.532 -0.0857 -0.8061  1.2235
 4595TIP3    H235201  -0.023   1.585   5.544 -0.8397 -0.5513 -3.0152
 4596TIP3   OH235202   2.014   4.629  15.847  0.1806 -0.2280 -0.1870
 4596TIP3    H135203   2.009   4.707  15.792  0.5212 -0.9289 -1.2340
 4596TIP3    H235204   2.056   4.563  15.792  0.4041 -0.9958  0.8686
 4597TIP3   OH235205   0.730   1.954   0.146 -0.9621 -0.6969  0.2069
 4597TIP3    H135206   0.761   1.993   0.228 -2.9229  1.8426 -0.1381
 4597TIP3    H235207   0.664   1.890   0.174 -3.0269  1.5008  0.6891
 4598TIP3   OH235208   4.171   4.191   0.014 -0.1023 -0.5819 -0.0180
 4598TIP3    H135209   4.253   4.216  -0.030 -0.3736 -0.4530 -0.4580
 4598TIP3    H235210   4.122   4.143  -0.052 -0.4132 -0.5998  0.2239
 4599TIP3   OH235211   1.159   4.611  16.659  0.5803  0.0771 -0.1540
 4599TIP3    H135212   1.076   4.657  16.643  0.8508  0.8788  0.6107
 4599TIP3    H235213   1.160   4.599  16.754  0.3820 -1.8319 -0.3693
 4600TIP3   OH235214   2.065   1.632  12.886 -0.6560 -0.4978  0.2680
 4600TIP3    H135215   2.161   1.636  12.892 -0.5126 -1.8329 -0.6167
 4600TIP3    H235216   2.047   1.541  12.865 -1.9920  0.1437 -1.6109
 4601TIP3   OH235217   3.843   4.935   5.917 -0.0228 -0.2072  0.1105
 4601TIP3    H135218   3.788   4.875   5.968  0.5780 -0.0617  0.9569
 4601TIP3    H235219   3.929   4.895   5.919  0.6151  1.1282  1.5128
 4602TIP3   OH235220   2.196   0.047   5.798 -0.3641 -0.3173  0.0787
 4602TIP3    H135221   2.188  -0.033   5.746  0.8186 -1.2611  1.2686
 4602TIP3    H235222   2.171   0.021   5.886  1.3210  0.2553  0.7637
 4603TIP3   OH235223   6.521   6.235  17.224  0.8765  0.4253 -0.4234
 4603TIP3    H135224   6.547   6.178  17.152  1.0073 -0.8956  0.6213
 4603TIP3    H235225   6.602   6.249  17.274  0.1173 -2.1916  1.8101
 4604TIP3   OH235226   4.618   2.029  15.806  0.0631  0.2447 -0.2330
 4604TIP3    H135227   4.572   1.945  15.796 -0.3998 -0.0439  3.0206
 4604TIP3    H235228   4.668   2.040  15.725 -2.1550 -1.6948 -1.9898
 4605TIP3   OH235229   4.080   2.254  14.791 -0.1859 -0.0236 -0.0622
 4605TIP3    H135230   4.035   2.285  14.712  1.0740 -0.5671 -1.0376
 4605TIP3    H235231   4.010   2.241  14.855 -0.9358  3.3555 -0.0328
 4606TIP3   OH235232   1.586   1.865   1.605 -0.1044  0.4482 -0.1218
 4606TIP3    H135233   1.652   1.925   1.640  0.6866 -0.1913 -0.4748
 4606TIP3    H235234   1.537   1.918   1.541 -0.8058  1.2925  1.0670
 4607TIP3   OH235235   2.198   1.622  13.443  0.1079  0.0425  0.0416
 4607TIP3    H135236   2.289   1.593  13.448  0.1550  0.3337  1.0306
 4607TIP3    H235237   2.147   1.542  13.457  0.2233  0.0981  0.7866
 4608TIP3   OH235238   0.875   0.427  14.961 -0.1182 -0.5651  0.6275
 4608TIP3    H135239   0.929   0.351  14.943 -0.5848 -0.8667  0.4924
 4608TIP3    H235240   0.809   0.427  14.891  0.1372  0.2092  0.3673
 4609TIP3   OH235241   4.603   4.258   1.186  0.6225 -0.3194 -0.2338
 4609TIP3    H135242   4.621   4.176   1.139 -0.3071  0.4437 -2.0157
 4609TIP3    H235243   4.656   4.324   1.141  0.8441  0.1922  0.7492
 4610TIP3   OH235244   6.364   2.025  14.784 -0.0700  0.3997  0.6835
 4610TIP3    H135245   6.403   1.938  14.778  1.4297  1.1544 -1.3771
 4610TIP3    H235246   6.331   2.030  14.874  1.5543 -1.5466  1.4577
 4611TIP3   OH235247   0.280   4.348   0.475 -0.3824 -0.4837  0.0017
 4611TIP3    H135248   0.271   4.317   0.384 -1.3378  1.2959 -0.5708
 4611TIP3    H235249   0.246   4.438   0.472  0.3116 -0.1220  1.9763
 4612TIP3   OH235250   2.480   3.860  16.470 -0.1530  0.2367  0.6602
 4612TIP3    H135251   2.534   3.921  16.421 -1.7031  0.2531 -1.1286
 4612TIP3    H235252   2.501   3.878  16.562  2.6621  0.3671  0.0712
 4613TIP3   OH235253   4.437   2.109   1.006 -0.0996  0.0749  0.0355
 4613TIP3    H135254   4.527   2.088   1.033 -0.3130 -0.1805  0.5731
 4613TIP3    H235255   4.442   2.197   0.971  0.5627 -0.3415 -0.9395
 4614TIP3   OH235256   2.493   4.512   1.648 -0.6219  0.4557  0.4100
 4614TIP3    H135257   2.432   4.569   1.602  0.5286  2.1965  0.9252
 4614TIP3    H235258   2.437   4.454   1.701 -1.8336  0.8164 -0.4431
 4615TIP3   OH235259   0.198   6.376  14.545  0.2882 -0.2756 -0.1286
 4615TIP3    H135260   0.137   6.358  14.616 -0.7717 -0.8002 -1.1373
 4615TIP3    H235261   0.275   6.322  14.565  0.5669  0.6031  1.2921
 4616TIP3   OH235262   3.988   3.246  14.814  0.0655  0.3490 -0.0911
 4616TIP3    H135263   3.931   3.312  14.774  1.0276 -0.0738 -2.3135
 4616TIP3    H235264   3.935   3.166  14.815  0.1220  0.2945 -0.8388
 4617TIP3   OH235265   1.717   1.154   0.201 -0.7740  0.0765 -0.3537
 4617TIP3    H135266   1.792   1.168   0.144 -0.6951  1.7325  0.1112
 4617TIP3    H235267   1.641   1.174   0.147 -0.6820  2.0327  0.1791
 4618TIP3   OH235268   0.043   3.803   3.063 -0.5004 -0.7210 -0.5683
 4618TIP3    H135269   0.075   3.864   3.129 -0.2083 -1.8340  0.3629
 4618TIP3    H235270   0.100   3.726   3.072 -1.6802 -1.6611 -0.7818
 4619TIP3   OH235271   6.313   2.849   1.797  0.0133  0.1438  0.2838
 4619TIP3    H135272   6.322   2.944   1.802  0.9596  0.0759  0.0486
 4619TIP3    H235273   6.397   2.818   1.762 -0.1583 -0.8061  0.6727
 4620TIP3   OH235274   6.713   2.514  11.035  0.4305 -0.5652  0.4378
 4620TIP3    H135275   6.793   2.489  10.989 -0.2056 -4.3302  1.0885
 4620TIP3    H235276   6.646   2.516  10.967  0.5238 -0.4317  0.3502
 4621TIP3   OH235277   5.937   5.369  12.641 -0.3635 -0.3519  0.3722
 4621TIP3    H135278   5.962   5.396  12.729 -1.0989 -2.5721  1.3160
 4621TIP3    H235279   5.851   5.329  12.651 -1.4080  1.1743 -1.7304
 4622TIP3   OH235280   2.069   0.753  13.369  0.6107 -0.9473 -0.0875
 4622TIP3    H135281   2.036   0.817  13.306  1.4680 -2.2489 -1.9380
 4622TIP3    H235282   2.005   0.754  13.440 -0.5526  0.3620 -1.1056
 4623TIP3   OH235283   3.480   1.732  16.305 -0.3976  0.1662  0.3309
 4623TIP3    H135284   3.449   1.650  16.345  1.5982 -0.7346  0.1147
 4623TIP3    H235285   3.511   1.707  16.219  0.3452  1.1453  0.2972
 4624TIP3   OH235286   3.243   2.971   0.165  0.6198 -0.0482  0.8147
 4624TIP3    H135287   3.278   2.935   0.084 -1.8875  1.4076 -1.0727
 4624TIP3    H235288   3.289   3.055   0.175 -0.9187  1.0717 -0.7379
 4625TIP3   OH235289   4.567   0.413  14.113 -0.4566 -0.0382  0.4739
 4625TIP3    H135290   4.591   0.480  14.177 -0.8835  1.0867 -0.5092
 4625TIP3    H235291   4.640   0.412  14.050 -1.0449  0.4357 -0.2298
 4626TIP3   OH235292   5.078   2.497  12.647  0.1696 -0.2332 -0.4232
 4626TIP3    H135293   5.135   2.574  12.638  1.1255 -0.8118  0.3538
 4626TIP3    H235294   5.020   2.519  12.720  1.9544 -1.0638  1.3632
 4627TIP3   OH235295   6.724   0.000  13.595  0.0135 -0.0431 -0.1662
 4627TIP3    H135296   6.762  -0.069  13.541 -0.4632  1.1249 -2.0689
 4627TIP3    H235297   6.781   0.076  13.582 -1.3959  0.9421 -0.9605
 4628TIP3   OH235298   3.728   4.267  14.187  0.0050  0.3123  0.1302
 4628TIP3    H135299   3.776   4.300  14.111 -0.1136  1.1363  0.4128
 4628TIP3    H235300   3.778   4.189  14.213 -0.4537 -0.5064 -1.3164
 4629TIP3   OH235301   6.566   4.123  11.730  0.1604  0.0162 -0.2504
 4629TIP3    H135302   6.654   4.088  11.717 -0.6804 -2.2633 -0.2848
 4629TIP3    H235303   6.519   4.102  11.650 -0.7204  0.1995  0.1941
 4630TIP3   OH235304   6.150   5.612  16.710  0.0519  0.5642 -1.0971
 4630TIP3    H135305   6.078   5.558  16.675 -1.0301  0.9412  0.4237
 4630TIP3    H235306   6.228   5.560  16.696 -0.9040 -1.2458 -0.1258
 4631TIP3   OH235307   0.352   6.300  16.500 -0.3688 -0.3811 -0.1690
 4631TIP3    H135308   0.275   6.312  16.555 -0.3787  0.2070 -0.3002
 4631TIP3    H235309   0.329   6.230  16.439 -0.7707 -0.2642 -0.1516
 4632TIP3   OH235310   0.930   0.371   4.871  0.2862  0.3410  0.5949
 4632TIP3    H135311   0.885   0.449   4.837 -0.2219 -0.4443 -0.6206
 4632TIP3    H235312   0.880   0.298   4.835  0.7137 -0.5594  1.7712
 4633TIP3   OH235313   3.249   4.768  10.954  0.3795  0.0120 -0.4771
 4633TIP3    H135314   3.342   4.769  10.933  0.2135 -1.4802 -1.4111
 4633TIP3    H235315   3.215   4.689  10.911 -0.8520 -0.7900  1.7521
 4634TIP3   OH235316   4.403   0.221  13.649  0.4533  0.0154 -0.4676
 4634TIP3    H135317   4.494   0.248  13.651  0.5000 -0.1830  1.4940
 4634TIP3    H235318   4.366   0.252  13.731 -1.9647  2.3670 -2.2708
 4635TIP3   OH235319   4.983   0.892  11.138  0.2067 -0.0957 -0.1332
 4635TIP3    H135320   5.014   0.816  11.187  1.2064 -0.6096 -1.5010
 4635TIP3    H235321   5.058   0.920  11.087 -0.2635  1.6010  0.0525
 4636TIP3   OH235322   6.178   2.982  12.450 -0.1113 -1.1406 -0.0641
 4636TIP3    H135323   6.239   2.943  12.387 -1.6429 -1.4505 -1.4182
 4636TIP3    H235324   6.134   2.907  12.491  0.7707 -0.9382  1.3257
 4637TIP3   OH235325   3.886   6.524  16.667 -0.5870 -0.2974  0.0281
 4637TIP3    H135326   3.974   6.498  16.639 -1.1537 -1.6177 -0.6660
 4637TIP3    H235327   3.882   6.618  16.649  1.1605  0.0946  1.4644
 4638TIP3   OH235328   4.263   5.826  10.756 -0.0097  0.6406 -0.8166
 4638TIP3    H135329   4.254   5.754  10.819  2.4176 -0.8653 -2.0312
 4638TIP3    H235330   4.184   5.879  10.768 -1.2987 -1.5270  0.9973
 4639TIP3   OH235331   5.879   3.808   2.821 -0.2489 -0.0385  0.1208
 4639TIP3    H135332   5.854   3.783   2.732  0.8751 -0.7400 -0.0296
 4639TIP3    H235333   5.819   3.759   2.877 -1.5523  1.1023 -0.2460
 4640TIP3   OH235334   5.439   5.405  13.756 -0.0361 -0.3963  0.2902
 4640TIP3    H135335   5.414   5.423  13.847  0.9859  1.4031  0.2590
 4640TIP3    H235336   5.428   5.489  13.712  0.0571 -1.1122 -1.1370
 4641TIP3   OH235337   6.147   4.782  17.087  0.4364 -0.0061 -0.5416
 4641TIP3    H135338   6.229   4.774  17.136 -0.0972 -0.6314  0.2689
 4641TIP3    H235339   6.134   4.695  17.048 -1.8909 -1.3087  2.6922
 4642TIP3   OH235340   3.447   3.913   3.455  0.4822 -0.3853 -0.0419
 4642TIP3    H135341   3.356   3.932   3.436  0.5650  1.0092  0.8218
 4642TIP3    H235342   3.464   3.956   3.539  2.0422 -0.2771 -0.3814
 4643TIP3   OH235343   5.852   3.167   3.256  0.2936  0.4726 -0.4268
 4643TIP3    H135344   5.859   3.176   3.161  0.4693 -2.6105 -0.7877
 4643TIP3    H235345   5.926   3.218   3.290  0.6195  1.0830 -1.9567
 4644TIP3   OH235346   5.103   4.394  15.943 -0.1101  0.4271 -0.1718
 4644TIP3    H135347   5.045   4.380  16.018 -0.2995  0.0831 -0.3765
 4644TIP3    H235348   5.046   4.429  15.875  0.3877  2.3952  0.3752
 4645TIP3   OH235349   5.318   5.468   2.179  0.6551 -0.0768  0.4560
 4645TIP3    H135350   5.281   5.380   2.184  0.0119  0.1447 -0.2910
 4645TIP3    H235351   5.266   5.519   2.242 -0.8147  0.3931 -1.0741
 4646TIP3   OH235352   4.760   4.434   0.356  0.1793 -0.0124  0.5130
 4646TIP3    H135353   4.844   4.462   0.393  0.5678  0.6544 -0.8117
 4646TIP3    H235354   4.769   4.449   0.261 -1.5139  0.2679  0.3616
 4647TIP3   OH235355   3.026   5.258   1.116 -0.8153  0.0646  0.1325
 4647TIP3    H135356   2.966   5.270   1.043 -0.6120 -2.0099 -0.4085
 4647TIP3    H235357   2.977   5.292   1.192 -1.5630  0.9457 -0.7063
 4648TIP3   OH235358   5.360   3.821   5.470 -0.7553  0.2698  0.3869
 4648TIP3    H135359   5.403   3.876   5.536 -0.5208 -0.4726  0.8654
 4648TIP3    H235360   5.320   3.750   5.521 -0.9292 -0.0777 -0.2333
 4649TIP3   OH235361   0.692   2.256  11.927  1.2222  0.6625  0.0955
 4649TIP3    H135362   0.621   2.317  11.945 -0.2182 -1.0070  0.4119
 4649TIP3    H235363   0.692   2.245  11.832 -1.0824 -1.6150  0.2529
 4650TIP3   OH235364   6.549   5.550   2.025  0.7907  0.3388  0.7458
 4650TIP3    H135365   6.467   5.556   1.976  1.2827  0.2860 -0.0953
 4650TIP3    H235366   6.554   5.633   2.073 -0.0169  0.1154  1.2301
 4651TIP3   OH235367   6.477   2.729   4.033 -0.0007 -0.9868  0.0480
 4651TIP3    H135368   6.528   2.767   3.962 -1.2263 -0.0805 -0.3817
 4651TIP3    H235369   6.450   2.803   4.087 -0.6919 -1.4514  0.3685
 4652TIP3   OH235370   2.304   0.090   0.405 -0.2176  0.1547 -0.1851
 4652TIP3    H135371   2.261   0.124   0.326  0.6792 -0.4836 -0.9706
 4652TIP3    H235372   2.242   0.109   0.476 -0.7340  1.3651 -0.9248
 4653TIP3   OH235373   1.801   0.279   1.788  0.0367  0.5357  0.0864
 4653TIP3    H135374   1.786   0.326   1.706 -1.3963 -0.9598 -0.5811
 4653TIP3    H235375   1.800   0.186   1.762 -0.5100  0.0282  1.8004
 4654TIP3   OH235376   6.695   1.503  11.869 -0.5817  0.2887  0.4995
 4654TIP3    H135377   6.720   1.557  11.944  0.4500  1.1881 -0.4510
 4654TIP3    H235378   6.609   1.535  11.844 -1.2448 -0.4882  1.6957
 4655TIP3   OH235379   1.678   4.616  14.085  0.2840 -0.4328 -0.2292
 4655TIP3    H135380   1.728   4.636  14.006 -0.0968  0.1354 -0.3285
 4655TIP3    H235381   1.744   4.587  14.148  0.5877 -0.9202 -0.7576
 4656TIP3   OH235382   6.719   2.258  15.586  0.2784 -0.3947 -0.4044
 4656TIP3    H135383   6.630   2.287  15.567 -0.0573 -1.4085 -0.4375
 4656TIP3    H235384   6.772   2.337  15.578 -0.5233  0.0982 -1.0197
 4657TIP3   OH235385   2.273   0.231  13.861  0.2529 -0.3825 -0.2311
 4657TIP3    H135386   2.207   0.172  13.825 -0.0760  0.4853 -1.0762
 4657TIP3    H235387   2.318   0.266  13.785 -0.5622  1.6144  0.1528
 4658TIP3   OH235388   1.331   5.060   6.127  0.4777 -0.4077 -0.1262
 4658TIP3    H135389   1.253   5.056   6.183  0.2523 -0.8474 -0.4682
 4658TIP3    H235390   1.401   5.086   6.186  0.1613 -0.4656  0.2811
 4659TIP3   OH235391   1.199   5.588  12.705 -0.2802  0.3581  0.1471
 4659TIP3    H135392   1.147   5.643  12.646 -0.2109 -0.2733 -0.5223
 4659TIP3    H235393   1.135   5.530  12.746 -0.1274 -0.3354 -0.5829
 4660TIP3   OH235394   2.636   1.674  17.370 -0.3316 -0.2688 -0.1100
 4660TIP3    H135395   2.667   1.758  17.339 -0.9195  0.0400  0.1286
 4660TIP3    H235396   2.667   1.611  17.305  0.9126  0.0012  0.1848
 4661TIP3   OH235397   4.933   2.388  10.877 -0.3906  0.1838  0.1231
 4661TIP3    H135398   5.021   2.365  10.907 -1.2165 -2.3155  0.9162
 4661TIP3    H235399   4.901   2.309  10.834 -2.9764  0.2450  1.6817
 4662TIP3   OH235400   1.009   4.378   4.295  0.1349 -0.3499  0.1315
 4662TIP3    H135401   0.980   4.433   4.368  0.1232  0.4445 -0.4526
 4662TIP3    H235402   0.967   4.417   4.218 -0.0996 -1.3579 -0.2677
 4663TIP3   OH235403   2.694   3.325  16.953  0.4944  0.1432  0.6638
 4663TIP3    H135404   2.634   3.362  17.017  1.1007 -0.1304  1.3996
 4663TIP3    H235405   2.639   3.268  16.898 -0.0619  0.5445  0.7943
 4664TIP3   OH235406   1.103   1.543   5.544  0.1024  0.1248 -0.0101
 4664TIP3    H135407   1.108   1.638   5.550  1.9335  0.3529 -3.0513
 4664TIP3    H235408   1.053   1.526   5.464  1.1513 -1.4073 -0.3892
 4665TIP3   OH235409   2.241   1.489   3.347  0.2694 -0.0470 -0.1818
 4665TIP3    H135410   2.242   1.465   3.440  0.0111 -1.5531 -0.5422
 4665TIP3    H235411   2.315   1.441   3.310  0.9709  1.3115 -0.5968
 4666TIP3   OH235412   5.177   5.011  14.219  0.5768 -0.0066  0.4087
 4666TIP3    H135413   5.138   4.994  14.305  0.7848 -0.5296  0.4040
 4666TIP3    H235414   5.272   5.007  14.234  0.6291  0.7250  0.3159
 4667TIP3   OH235415   4.500   5.653  15.493 -0.8006 -0.2659  0.3812
 4667TIP3    H135416   4.486   5.721  15.559 -1.1413  1.8318 -1.7059
 4667TIP3    H235417   4.591   5.626  15.505 -0.1455  1.7688  0.2726
 4668TIP3   OH235418   1.673   1.545  12.296  0.0606 -0.8412 -0.3092
 4668TIP3    H135419   1.645   1.470  12.348  0.7170 -1.2641 -0.5494
 4668TIP3    H235420   1.628   1.534  12.212  0.1546 -0.9668 -0.3429
 4669TIP3   OH235421   3.357   5.964   1.540  0.2205 -0.6010 -0.0726
 4669TIP3    H135422   3.279   5.909   1.542 -0.1448 -0.0775  1.6290
 4669TIP3    H235423   3.328   6.049   1.574  0.9705  0.4256 -1.8119
 4670TIP3   OH235424   3.208   0.823   2.854  0.5239 -0.1270 -0.0663
 4670TIP3    H135425   3.219   0.765   2.930  1.5222  0.6965  0.4349
 4670TIP3    H235426   3.142   0.779   2.800 -0.6381 -0.4691  1.5366
 4671TIP3   OH235427   1.397   1.475  12.952 -0.4199  0.5666 -0.0752
 4671TIP3    H135428   1.463   1.498  13.017 -1.1943  0.2974  0.8242
 4671TIP3    H235429   1.428   1.517  12.871  1.1897 -0.1129  0.1513
 4672TIP3   OH235430   6.356   2.924  13.868  0.0755 -0.6207 -0.5521
 4672TIP3    H135431   6.446   2.933  13.837 -0.8711 -0.7859 -3.6129
 4672TIP3    H235432   6.346   2.830  13.886  0.6082 -0.5367  0.2425
 4673TIP3   OH235433   6.547   2.632  15.221 -0.0108  0.6221  0.1101
 4673TIP3    H135434   6.624   2.665  15.175  2.1361 -0.3554  2.7906
 4673TIP3    H235435   6.482   2.620  15.151  2.7523 -0.0791 -2.5631
 4674TIP3   OH235436   2.252   2.408  12.409 -0.1436 -0.0892 -0.7179
 4674TIP3    H135437   2.206   2.491  12.406 -0.0115 -0.0138 -0.6567
 4674TIP3    H235438   2.262   2.382  12.318 -1.9281 -0.9987 -0.6943
 4675TIP3   OH235439   3.580   5.264  13.182 -0.1952  0.4019 -0.2981
 4675TIP3    H135440   3.534   5.255  13.099 -1.0794 -0.7573  0.2892
 4675TIP3    H235441   3.545   5.344  13.220  0.5437  1.1856 -1.2203
 4676TIP3   OH235442   6.326   2.015  15.563 -0.2555  0.4255 -0.3596
 4676TIP3    H135443   6.346   2.044  15.652  0.3056 -2.7820  0.6884
 4676TIP3    H235444   6.411   2.009  15.520 -0.3660  0.4663 -0.5850
 4677TIP3   OH235445   5.657   3.525  11.426 -0.0154  0.1192  0.2899
 4677TIP3    H135446   5.683   3.577  11.350  0.8614 -0.2146  0.3459
 4677TIP3    H235447   5.579   3.478  11.397  1.0959 -1.0692 -0.8980
 4678TIP3   OH235448   2.536   1.457  12.433  0.1273 -0.0595  0.4390
 4678TIP3    H135449   2.520   1.374  12.476 -0.6501  0.1434  0.5637
 4678TIP3    H235450   2.576   1.434  12.350 -0.8491 -0.6179  0.1052
 4679TIP3   OH235451   5.269   4.430  15.250 -0.4967 -0.3630  0.2196
 4679TIP3    H135452   5.270   4.368  15.177  0.2504 -0.1813  0.0685
 4679TIP3    H235453   5.311   4.509  15.215 -0.1556 -0.2695  0.8369
 4680TIP3   OH235454   6.327   5.070  15.399 -0.5017 -0.3196  0.3515
 4680TIP3    H135455   6.279   5.139  15.447 -0.2993  1.0657 -1.3449
 4680TIP3    H235456   6.259   5.026  15.348 -0.3897 -0.2624  0.1537
 4681TIP3   OH235457   3.772   2.670   0.714  0.2142  1.1218  0.6595
 4681TIP3    H135458   3.706   2.616   0.756  0.8338  1.6619  2.3940
 4681TIP3    H235459   3.807   2.615   0.644 -2.0549  0.8296 -0.3402
 4682TIP3   OH235460   1.480   3.977   0.802  0.0534  0.5520 -0.6052
 4682TIP3    H135461   1.410   4.021   0.755  0.6743  2.0135 -0.2164
 4682TIP3    H235462   1.561   4.015   0.767  0.6813 -1.0065 -0.9611
 4683TIP3   OH235463   3.204   1.994   2.725  0.3515 -0.6330 -0.1480
 4683TIP3    H135464   3.203   2.067   2.663 -1.8162  1.0975  1.7970
 4683TIP3    H235465   3.255   2.026   2.799  1.4255 -2.0532 -0.2215
 4684TIP3   OH235466   4.217   3.037   1.256  0.0451  0.5015 -0.3762
 4684TIP3    H135467   4.240   3.065   1.167 -0.1139  1.6003 -0.0846
 4684TIP3    H235468   4.165   2.958   1.243  0.5421  0.3003 -1.2297
 4685TIP3   OH235469   5.083   5.337  12.594  0.2276 -0.5408 -0.0556
 4685TIP3    H135470   4.995   5.340  12.631  0.8835  0.6064  1.5426
 4685TIP3    H235471   5.110   5.429  12.589  1.8110 -0.9329  0.7141
 4686TIP3   OH235472   4.969   1.824  13.842  0.2794  0.3275 -0.1639
 4686TIP3    H135473   4.904   1.786  13.902 -0.3525  1.9946  0.2632
 4686TIP3    H235474   4.924   1.899  13.802  1.3711  0.4618 -1.2151
 4687TIP3   OH235475   2.628   4.866   6.927 -0.3558  0.0203  0.1007
 4687TIP3    H135476   2.589   4.870   6.839  0.1215 -1.5920 -0.2131
 4687TIP3    H235477   2.659   4.955   6.943 -1.1679  0.5371 -1.0240
 4688TIP3   OH235478   5.353   2.665   1.803  0.1161  0.0519  0.8124
 4688TIP3    H135479   5.427   2.624   1.848 -1.2357 -1.1198  2.1195
 4688TIP3    H235480   5.357   2.631   1.713  0.1521 -1.4957  1.3590
 4689TIP3   OH235481   1.666   3.684   0.937  0.0430 -0.2230  0.1137
 4689TIP3    H135482   1.668   3.595   0.971  0.2616 -0.0600  0.5346
 4689TIP3    H235483   1.627   3.676   0.850 -0.5904 -0.6377  0.4272
 4690TIP3   OH235484   3.416   2.402   0.579  0.4648  0.0308  0.0310
 4690TIP3    H135485   3.334   2.435   0.543  0.3864 -0.6907 -0.4886
 4690TIP3    H235486   3.453   2.347   0.510  0.2649 -1.4811  1.0519
 4691TIP3   OH235487   1.893   2.392  12.105 -0.3962  0.4458  0.5564
 4691TIP3    H135488   1.810   2.418  12.066 -1.3089 -0.8341  1.5919
 4691TIP3    H235489   1.898   2.298  12.091  0.4910  0.3758  1.2371
 4692TIP3   OH235490   1.287   3.827   3.728 -0.2012 -0.0395 -0.1550
 4692TIP3    H135491   1.336   3.906   3.751 -1.2533  0.5151  0.2078
 4692TIP3    H235492   1.355   3.761   3.711  0.6820  0.9058 -0.3744
 4693TIP3   OH235493   6.425   4.834   3.211 -0.2389  0.3292 -0.4860
 4693TIP3    H135494   6.386   4.894   3.275  0.7020 -0.0665  0.4801
 4693TIP3    H235495   6.404   4.873   3.126 -1.0050  1.1730  0.0719
 4694TIP3   OH235496   1.832   3.054   3.188 -0.2384  0.6187 -0.2404
 4694TIP3    H135497   1.765   3.117   3.161  1.7059  2.7293 -0.4809
 4694TIP3    H235498   1.897   3.107   3.235  1.5625 -1.1982 -0.5404
 4695TIP3   OH235499   1.372   2.361   2.581  0.3923 -0.3257  0.6633
 4695TIP3    H135500   1.388   2.267   2.577 -1.6679 -0.7189  1.0193
 4695TIP3    H235501   1.296   2.371   2.637  0.8600  1.6136  1.0298
 4696TIP3   OH235502   1.520   4.435   2.128  0.0223 -0.2862  0.2740
 4696TIP3    H135503   1.564   4.517   2.151 -0.3290 -0.0736  0.1787
 4696TIP3    H235504   1.592   4.374   2.113  0.3087  0.2662 -0.6627
 4697TIP3   OH235505   1.791   1.957   6.154 -0.4296  0.5069  0.1754
 4697TIP3    H135506   1.875   1.961   6.200 -0.8400 -0.4197  1.0583
 4697TIP3    H235507   1.795   1.875   6.105  0.3203  1.8513 -2.1717
 4698TIP3   OH235508   1.563   1.890  13.435  0.6973  0.0701 -0.2001
 4698TIP3    H135509   1.548   1.908  13.527  0.1595  1.5791 -0.5568
 4698TIP3    H235510   1.651   1.851  13.432  0.7301  0.0314  0.9257
 4699TIP3   OH235511   4.139   3.011   6.717  0.1378  0.2332 -0.0059
 4699TIP3    H135512   4.132   3.077   6.648  0.8054  1.1998  0.8174
 4699TIP3    H235513   4.061   3.023   6.770  0.3200  0.4529  0.2152
 4700TIP3   OH235514   6.058   1.360  12.717 -0.1829 -0.3376 -0.4564
 4700TIP3    H135515   6.052   1.448  12.681 -2.4289 -0.7226 -1.1568
 4700TIP3    H235516   6.073   1.304  12.641  0.1713 -0.6667 -0.1460
 4701TIP3   OH235517   0.790   6.341   3.608 -0.0604  0.0530 -0.0076
 4701TIP3    H135518   0.800   6.307   3.697 -0.5984 -0.6093 -0.1845
 4701TIP3    H235519   0.747   6.270   3.560  2.5066 -0.6348 -1.4705
 4702TIP3   OH235520   6.293   6.126   1.651 -0.5267  0.1080 -0.0461
 4702TIP3    H135521   6.280   6.209   1.605 -2.1233 -0.5806 -0.9102
 4702TIP3    H235522   6.295   6.150   1.744 -1.2899  1.0773 -0.2679
 4703TIP3   OH235523   1.401   3.081  14.513  0.1173 -0.4780 -0.5866
 4703TIP3    H135524   1.348   3.049  14.586  0.1674 -1.8151 -1.1106
 4703TIP3    H235525   1.490   3.083  14.547 -0.3568  5.0268  1.4694
 4704TIP3   OH235526   4.812   4.917   0.507 -0.3959 -0.1585  0.1380
 4704TIP3    H135527   4.722   4.892   0.486  0.3305 -1.7313 -1.2287
 4704TIP3    H235528   4.830   4.993   0.452 -1.0277  0.5148  0.8219
 4705TIP3   OH235529   5.065   6.241   0.311 -0.3657 -0.7336 -0.3206
 4705TIP3    H135530   4.987   6.247   0.256 -0.0650  2.4523 -0.5788
 4705TIP3    H235531   5.034   6.200   0.392 -2.1944 -0.0987 -0.6471
 4706TIP3   OH235532   1.506   2.820  16.759  0.0624  0.0134  0.0761
 4706TIP3    H135533   1.499   2.726  16.779 -0.4801 -0.0731 -0.4712
 4706TIP3    H235534   1.599   2.835  16.745  0.1014 -0.5576 -0.3209
 4707TIP3   OH235535   3.077   3.528  16.379  0.2659  0.0464  0.3470
 4707TIP3    H135536   3.124   3.564  16.454  0.7028 -1.8350  1.0191
 4707TIP3    H235537   3.143   3.480  16.330  0.3518  2.5279 -2.1984
 4708TIP3   OH235538   1.664   4.523  10.774  0.5517  0.0399 -0.3860
 4708TIP3    H135539   1.702   4.444  10.813 -0.4006 -1.7004 -2.7338
 4708TIP3    H235540   1.738   4.567  10.732  0.6545 -1.3441 -1.7493
 4709TIP3   OH235541   5.792   3.756  15.528 -0.6099 -0.1077  0.2341
 4709TIP3    H135542   5.742   3.812  15.467  0.3818 -0.8101 -1.2905
 4709TIP3    H235543   5.748   3.671  15.524  0.2864 -0.5454 -0.6097
 4710TIP3   OH235544   4.157   4.475   6.812  0.1882 -0.2692  0.0098
 4710TIP3    H135545   4.222   4.537   6.778 -0.4732 -0.0196 -0.8255
 4710TIP3    H235546   4.153   4.406   6.746  1.0750 -1.3351  1.0387
 4711TIP3   OH235547   1.925   6.197   0.147  0.1476 -0.3665 -0.5749
 4711TIP3    H135548   1.841   6.242   0.135  0.4307  0.8527  1.5463
 4711TIP3    H235549   1.989   6.268   0.144  0.8605 -0.9697  0.3023
 4712TIP3   OH235550   0.940   5.685   0.842 -1.1221  0.3858 -0.3220
 4712TIP3    H135551   0.858   5.714   0.883 -1.9907 -0.0017 -1.7375
 4712TIP3    H235552   0.915   5.610   0.788  0.4399 -0.6690  0.3472
 4713TIP3   OH235553   2.750   3.958   2.203 -0.0385  0.2142 -0.5244
 4713TIP3    H135554   2.758   4.037   2.150  1.7532  0.0607 -0.5516
 4713TIP3    H235555   2.741   3.887   2.139 -0.8645  0.3168 -0.5241
 4714TIP3   OH235556   5.664   1.270   3.928  0.1836 -0.0722 -0.0027
 4714TIP3    H135557   5.649   1.278   3.834  0.6149  0.8884 -0.0049
 4714TIP3    H235558   5.577   1.268   3.967 -0.0372 -2.1437 -0.5294
 4715TIP3   OH235559   1.207   6.409  11.891  0.5826  0.3086 -0.4485
 4715TIP3    H135560   1.249   6.364  11.964  1.9151 -0.3664 -1.5904
 4715TIP3    H235561   1.113   6.405  11.911  0.9368  0.4063  1.3500
 4716TIP3   OH235562   0.540   5.141   5.000 -0.2634  0.2200 -0.1609
 4716TIP3    H135563   0.448   5.118   4.989 -0.5564  1.4818 -0.4962
 4716TIP3    H235564   0.556   5.133   5.094 -1.3108  2.0211  0.2127
 4717TIP3   OH235565   2.705   4.314   6.559  0.7403  0.0676 -0.1431
 4717TIP3    H135566   2.746   4.395   6.590  0.1412 -0.3168  1.8171
 4717TIP3    H235567   2.755   4.244   6.601 -0.3186 -0.4770  0.2572
 4718TIP3   OH235568   6.721   2.667  16.898  0.4451  0.0062 -0.4824
 4718TIP3    H135569   6.769   2.745  16.871 -1.3139  1.2078 -0.2963
 4718TIP3    H235570   6.767   2.594  16.856  2.7112  1.0290  0.1348
 4719TIP3   OH235571   3.582   5.115   4.083  0.4222 -0.1860  0.1558
 4719TIP3    H135572   3.493   5.137   4.109 -0.5542 -1.7243 -1.6123
 4719TIP3    H235573   3.597   5.027   4.119  1.8774  0.6947  1.8211
 4720TIP3   OH235574   4.500   6.490   2.617 -0.4472 -0.2780 -0.1638
 4720TIP3    H135575   4.414   6.451   2.599 -0.7554  0.4152 -0.2179
 4720TIP3    H235576   4.480   6.570   2.665  0.1553  0.0499 -0.4564
 4721TIP3   OH235577   1.004   1.063  11.643 -0.8114  0.0473  0.0002
 4721TIP3    H135578   0.940   1.116  11.596 -1.2186  0.5773  1.1254
 4721TIP3    H235579   1.015   0.985  11.589 -1.1516  0.7048 -1.0430
 4722TIP3   OH235580   6.154   4.098  11.227 -0.5301 -0.1064 -0.0133
 4722TIP3    H135581   6.078   4.112  11.283  0.8040  0.6996  1.6549
 4722TIP3    H235582   6.228   4.134  11.275  0.9428 -0.8205 -1.6010
 4723TIP3   OH235583   5.115   6.409   4.836  0.1161  0.0222  0.0642
 4723TIP3    H135584   5.117   6.349   4.911 -0.2160  0.4937  0.4549
 4723TIP3    H235585   5.167   6.484   4.864  1.0793 -0.3484 -0.6668
 4724TIP3   OH235586   1.682   6.174   4.098  0.2058 -0.1488  0.5158
 4724TIP3    H135587   1.674   6.266   4.126 -0.3471 -0.1363  0.3219
 4724TIP3    H235588   1.595   6.137   4.113 -0.1088 -0.1605 -1.1362
 4725TIP3   OH235589   3.211   4.414   4.895  0.1385 -0.0548 -0.8423
 4725TIP3    H135590   3.152   4.352   4.937  0.4101  0.8815  1.0070
 4725TIP3    H235591   3.287   4.361   4.869  0.1558 -0.5955  0.2772
 4726TIP3   OH235592   4.241   0.961  12.168 -0.4024 -0.2927 -0.1254
 4726TIP3    H135593   4.173   0.956  12.101  0.7840  0.1301 -1.4096
 4726TIP3    H235594   4.316   1.000  12.123  0.4448 -0.0175  1.4519
 4727TIP3   OH235595   6.441   3.145   2.788  0.0610 -0.6248  0.2847
 4727TIP3    H135596   6.412   3.193   2.711  0.9063 -0.7612 -0.1373
 4727TIP3    H235597   6.534   3.168   2.796  1.0308 -3.6382 -1.0767
 4728TIP3   OH235598   2.835   4.522  11.404  0.0503  0.0311  0.3541
 4728TIP3    H135599   2.818   4.435  11.369  0.3962  0.2406 -0.3510
 4728TIP3    H235600   2.751   4.553  11.437  0.2410 -1.2600  2.2253
 4729TIP3   OH235601   2.056   4.382   3.358  0.1599  0.0380 -0.1075
 4729TIP3    H135602   2.149   4.364   3.370  0.5706 -0.0146 -2.6313
 4729TIP3    H235603   2.055   4.452   3.291 -1.6045 -0.0134 -0.1642
 4730TIP3   OH235604   2.447   2.247   3.574  0.1752 -0.2006  0.2083
 4730TIP3    H135605   2.442   2.156   3.601  2.0639 -0.0178  1.3452
 4730TIP3    H235606   2.539   2.261   3.553 -0.0490  1.4879  0.1973
 4731TIP3   OH235607   6.705   2.268   5.803 -0.3448  0.1177  0.3677
 4731TIP3    H135608   6.643   2.333   5.771 -1.6376 -0.7271  1.0410
 4731TIP3    H235609   6.721   2.293   5.894  1.1425  0.9270 -0.0982
 4732TIP3   OH235610   2.530   2.248  16.685 -0.2158 -0.0865  0.0327
 4732TIP3    H135611   2.622   2.227  16.699 -0.6028 -1.1436  1.1195
 4732TIP3    H235612   2.496   2.175  16.633 -0.4335  0.3121 -0.3889
 4733TIP3   OH235613   4.801   4.043   5.784  0.0951  0.3005  0.2803
 4733TIP3    H135614   4.739   4.079   5.848  0.4225  0.7262  0.3583
 4733TIP3    H235615   4.866   3.997   5.837 -0.4924 -0.6894  0.1663
 4734TIP3   OH235616   2.672   0.087  15.410  0.1667  0.0600 -0.3208
 4734TIP3    H135617   2.591   0.138  15.401 -0.5060 -0.9032  0.1325
 4734TIP3    H235618   2.736   0.151  15.443 -0.0113  1.1611 -1.9931
 4735TIP3   OH235619   1.654   2.950  14.618  0.2422  0.1427 -0.6592
 4735TIP3    H135620   1.734   2.973  14.570 -0.2111  1.1351 -0.9613
 4735TIP3    H235621   1.682   2.945  14.709  0.3137  2.4512 -0.4858
 4736TIP3   OH235622   3.558   0.261  14.196  0.2279 -0.0156  0.6722
 4736TIP3    H135623   3.648   0.294  14.187  0.1450 -0.2722 -1.4744
 4736TIP3    H235624   3.569   0.171  14.227  0.7046  0.0179  0.6126
 4737TIP3   OH235625   0.228   4.316  16.043 -0.2754  0.1795  0.0185
 4737TIP3    H135626   0.186   4.392  16.082  0.3171  1.6278 -1.9643
 4737TIP3    H235627   0.292   4.353  15.982  1.3679 -1.9293  0.3329
 4738TIP3   OH235628   5.973   1.261  15.041 -0.2888  0.2242 -0.1822
 4738TIP3    H135629   5.912   1.201  14.999  0.7034 -0.9791  0.0623
 4738TIP3    H235630   5.917   1.331  15.076 -1.4637 -0.5737 -0.4001
 4739TIP3   OH235631   6.653   1.071   2.703 -0.0267  0.2481  0.9073
 4739TIP3    H135632   6.638   1.165   2.700  0.0046  0.2434  0.4778
 4739TIP3    H235633   6.722   1.059   2.768  0.3246  0.5730  0.6025
 4740TIP3   OH235634   5.415   4.264   5.251  0.2583 -0.6101  0.2459
 4740TIP3    H135635   5.322   4.286   5.257  0.1641 -0.4585 -1.3701
 4740TIP3    H235636   5.431   4.251   5.157  1.6890 -1.4457  0.5743
 4741TIP3   OH235637   3.074   6.535  16.327  0.3300  0.5441  0.6262
 4741TIP3    H135638   3.010   6.540  16.256 -0.3306  0.0613  1.1705
 4741TIP3    H235639   3.147   6.485  16.290  0.8176  1.9056 -0.3013
 4742TIP3   OH235640   2.991   5.321   0.634  0.1942 -0.8662  0.6387
 4742TIP3    H135641   3.010   5.407   0.597 -0.3165 -0.1019  2.0674
 4742TIP3    H235642   3.015   5.259   0.565 -0.6133  0.4640 -0.9032
 4743TIP3   OH235643   2.965   3.501  13.081  0.1220 -0.3324 -0.1759
 4743TIP3    H135644   3.050   3.487  13.124  0.5977  2.0172 -0.2274
 4743TIP3    H235645   2.987   3.538  12.996 -0.9614  1.1066  0.1406
 4744TIP3   OH235646   3.081   0.491  11.130 -1.3767 -0.2611 -0.4945
 4744TIP3    H135647   3.176   0.488  11.119 -1.3872 -1.4080 -0.3490
 4744TIP3    H235648   3.047   0.432  11.064 -1.8786 -1.2705  0.6275
 4745TIP3   OH235649   4.290   3.837  17.393 -0.0892 -0.6317  0.7264
 4745TIP3    H135650   4.306   3.783  17.470  0.9982 -1.6436 -0.1746
 4745TIP3    H235651   4.377   3.856  17.358 -0.4951  1.0142  0.5352
 4746TIP3   OH235652   5.213   3.583   1.317  0.2722  0.6686  0.1307
 4746TIP3    H135653   5.186   3.522   1.249 -0.9184  0.7909  0.4608
 4746TIP3    H235654   5.182   3.543   1.398 -0.7804  1.8112  0.3304
 4747TIP3   OH235655   0.839   2.324   5.193  0.6768  0.3170  0.2858
 4747TIP3    H135656   0.925   2.283   5.202  0.6680  0.4642  1.0899
 4747TIP3    H235657   0.840   2.397   5.255 -0.6425 -0.7462  1.6429
 4748TIP3   OH235658   2.624   1.018  13.829 -0.0891  0.5270  0.0124
 4748TIP3    H135659   2.709   0.976  13.841  0.7279  1.8353 -0.9535
 4748TIP3    H235660   2.638   1.083  13.760 -1.4003  2.0697  1.1059
 4749TIP3   OH235661   3.517   6.726   5.293  0.1912 -0.3114 -0.2164
 4749TIP3    H135662   3.506   6.760   5.205  0.9673 -0.3856 -0.3544
 4749TIP3    H235663   3.521   6.804   5.349  1.3441 -0.1793 -0.4572
 4750TIP3   OH235664   3.995   2.563  11.891 -0.0039  0.6393 -0.2002
 4750TIP3    H135665   4.061   2.507  11.932  1.2128  1.4025 -1.0313
 4750TIP3    H235666   3.938   2.503  11.843  0.7169  0.0342 -0.3135
 4751TIP3   OH235667   4.295   6.342   3.354  0.3699 -0.8906  0.7040
 4751TIP3    H135668   4.349   6.292   3.293 -0.5130  1.5863 -2.4560
 4751TIP3    H235669   4.334   6.429   3.354 -2.0045  0.2710  0.3372
 4752TIP3   OH235670   1.881   5.337   2.797  0.3922  0.5621 -0.4152
 4752TIP3    H135671   1.849   5.311   2.711  0.8196 -1.2031 -0.0750
 4752TIP3    H235672   1.819   5.404   2.827 -1.2272 -0.6060 -1.0278
 4753TIP3   OH235673   0.590   6.072   4.692  0.2603  0.5438  0.4624
 4753TIP3    H135674   0.636   6.150   4.724 -0.8435  1.7834 -0.8167
 4753TIP3    H235675   0.655   6.002   4.697  1.0145  1.3032  2.5267
 4754TIP3   OH235676   2.993   6.488  11.944 -0.0654 -0.2191 -0.4940
 4754TIP3    H135677   3.071   6.542  11.953 -0.6668  0.3573  1.9387
 4754TIP3    H235678   2.998   6.454  11.854  1.2906  2.3568 -1.5039
 4755TIP3   OH235679   1.190   2.008  14.430 -0.7428 -0.1543  0.3224
 4755TIP3    H135680   1.148   2.093  14.421 -0.7974 -0.2698 -0.6534
 4755TIP3    H235681   1.118   1.947  14.448 -0.9351 -0.2527 -0.7120
 4756TIP3   OH235682   4.700   5.915   5.219 -0.0689  0.0725 -0.0706
 4756TIP3    H135683   4.656   5.994   5.250  3.9525  2.0112  1.4160
 4756TIP3    H235684   4.738   5.877   5.298  2.0125 -0.6079 -1.3240
 4757TIP3   OH235685   0.397   2.925   2.616  0.2423 -0.0683 -0.4855
 4757TIP3    H135686   0.416   3.018   2.628 -1.8112  0.3598 -0.2452
 4757TIP3    H235687   0.478   2.880   2.643 -0.0528  1.4052  3.4232
 4758TIP3   OH235688   3.468   4.117   2.496 -0.1174 -0.1080 -0.6071
 4758TIP3    H135689   3.411   4.183   2.536  0.3023 -0.5516  0.7769
 4758TIP3    H235690   3.441   4.115   2.404 -2.8056 -0.7756  0.0988
 4759TIP3   OH235691   5.169   2.031  14.219 -0.5930  0.2888 -0.0850
 4759TIP3    H135692   5.085   2.067  14.250 -0.5576  0.6860 -0.4443
 4759TIP3    H235693   5.165   2.041  14.124 -0.7840 -1.1023 -0.2378
 4760TIP3   OH235694   0.547   2.525  14.559  0.5080 -0.4686  0.2420
 4760TIP3    H135695   0.614   2.591  14.575 -1.5041  1.1744  2.6346
 4760TIP3    H235696   0.519   2.540  14.469  1.7789  0.2961 -0.0456
 4761TIP3   OH235697   6.135   1.035  11.531  0.1871 -0.4679 -0.0874
 4761TIP3    H135698   6.044   1.004  11.534 -1.0103  2.7378  1.6378
 4761TIP3    H235699   6.147   1.080  11.615  3.0408  0.1181 -0.7255
 4762TIP3   OH235700   6.266   2.852   0.712  0.3189 -0.1380 -0.1790
 4762TIP3    H135701   6.225   2.938   0.722 -0.5526 -0.3952 -1.2973
 4762TIP3    H235702   6.194   2.794   0.687  0.6183 -1.5204  1.9148
 4763TIP3   OH235703   1.213   5.119  11.173  0.2321 -0.5549 -0.0532
 4763TIP3    H135704   1.257   5.177  11.236  0.0934 -1.9478  1.3884
 4763TIP3    H235705   1.121   5.125  11.196  0.0297 -0.1997 -0.9053
 4764TIP3   OH235706   1.396   2.118   2.068  0.4113  0.3157 -0.2288
 4764TIP3    H135707   1.349   2.151   1.992  0.4810 -0.9151 -0.8326
 4764TIP3    H235708   1.444   2.194   2.102  2.5017  0.3864 -2.9853
 4765TIP3   OH235709   5.542   6.649  17.281 -0.1789  0.3391  0.3193
 4765TIP3    H135710   5.544   6.553  17.278  0.6250  0.3824 -1.5307
 4765TIP3    H235711   5.541   6.676  17.190  1.6810  2.1095  0.7609
 4766TIP3   OH235712   4.067   3.608   4.956 -0.5671  0.3855 -0.2034
 4766TIP3    H135713   4.127   3.595   5.029 -0.4083 -0.0520 -0.4096
 4766TIP3    H235714   4.044   3.520   4.928 -1.2148  0.5485 -0.2013
 4767TIP3   OH235715   4.860   0.657   0.372  0.0130  0.4199 -0.1868
 4767TIP3    H135716   4.790   0.592   0.372  0.9446 -0.6096 -1.5795
 4767TIP3    H235717   4.873   0.677   0.465  1.0312 -2.8489  0.4912
 4768TIP3   OH235718   1.462   5.049   5.718  0.2070 -0.0512  0.5436
 4768TIP3    H135719   1.410   5.127   5.697 -1.7055 -1.1942  0.8267
 4768TIP3    H235720   1.496   5.066   5.806 -0.0788  0.5339  0.5464
 4769TIP3   OH235721   0.041   3.776  12.122  0.7138  0.1458  0.1067
 4769TIP3    H135722  -0.042   3.736  12.150  0.8089  0.2388  0.5209
 4769TIP3    H235723   0.018   3.825  12.043 -0.3107  2.6813  1.8363
 4770TIP3   OH235724   0.747   2.343  13.055  0.2740 -0.1082  0.0389
 4770TIP3    H135725   0.682   2.320  12.988  0.7131  0.5423 -0.6374
 4770TIP3    H235726   0.799   2.263  13.066  1.0034  0.1300 -1.3654
 4771TIP3   OH235727   3.388   3.465   1.703  0.7461 -0.1987  0.1358
 4771TIP3    H135728   3.295   3.469   1.729  0.9284 -0.0062  0.7880
 4771TIP3    H235729   3.387   3.428   1.615  0.0784 -0.6599  0.3312
 4772TIP3   OH235730   3.115   5.226   3.698 -0.0012 -0.2133 -0.3469
 4772TIP3    H135731   3.177   5.287   3.739  0.9007 -1.7003  0.5937
 4772TIP3    H235732   3.071   5.182   3.771  0.0109 -1.3104 -0.9703
 4773TIP3   OH235733   3.712   1.270  13.202  0.6485 -0.1234  0.0818
 4773TIP3    H135734   3.740   1.360  13.219  1.2847  0.4822 -3.4788
 4773TIP3    H235735   3.793   1.224  13.180  0.0711 -1.0422 -0.1628
 4774TIP3   OH235736   2.968   2.343   6.314 -0.2248 -0.5777  0.0780
 4774TIP3    H135737   3.051   2.390   6.318 -0.9983  0.8470  0.0056
 4774TIP3    H235738   2.940   2.337   6.405  0.2188 -1.5808  0.1619
 4775TIP3   OH235739   4.538   5.317   0.056 -0.1848  0.1329 -0.3747
 4775TIP3    H135740   4.524   5.388   0.118 -0.8748 -0.1703 -0.1711
 4775TIP3    H235741   4.510   5.238   0.103  0.2151 -0.2241 -0.7280
 4776TIP3   OH235742   1.641   5.824  11.050 -0.6310 -0.1118  0.1901
 4776TIP3    H135743   1.608   5.884  10.983 -1.0158 -1.0469 -0.4783
 4776TIP3    H235744   1.614   5.864  11.133  0.9891  1.7538 -0.0984
 4777TIP3   OH235745   4.662   3.650   2.992 -0.0406  0.0723  0.0985
 4777TIP3    H135746   4.696   3.561   3.005  0.7133  0.2513 -0.5497
 4777TIP3    H235747   4.741   3.704   2.983 -0.4868  0.9321  1.2425
 4778TIP3   OH235748   0.633   5.349  14.084 -0.1104 -0.1409 -0.2301
 4778TIP3    H135749   0.556   5.399  14.112 -1.0285 -0.5918 -1.8291
 4778TIP3    H235750   0.672   5.403  14.015  1.1591  0.1878  0.7162
 4779TIP3   OH235751   4.121   0.240   1.365  0.0600  0.2113  0.3406
 4779TIP3    H135752   4.108   0.146   1.376 -0.6847  0.3467  0.7213
 4779TIP3    H235753   4.215   0.254   1.377  0.3579 -0.6318 -0.8487
 4780TIP3   OH235754   4.819   1.195  14.158 -0.0756 -0.3104 -0.8959
 4780TIP3    H135755   4.758   1.251  14.207  0.3375  0.6148 -1.4202
 4780TIP3    H235756   4.903   1.206  14.203  0.1357 -0.0447 -1.3535
 4781TIP3   OH235757   1.727   2.417  13.652 -0.0378 -0.1582 -0.1679
 4781TIP3    H135758   1.769   2.386  13.732 -1.0699 -2.6348 -0.4886
 4781TIP3    H235759   1.713   2.510  13.667 -3.3432 -1.0294  4.1249
 4782TIP3   OH235760   3.006   6.019  11.425 -0.0258  0.6355 -0.3679
 4782TIP3    H135761   3.003   6.032  11.331  1.4101  1.1277 -0.3723
 4782TIP3    H235762   2.926   6.061  11.458 -0.0793  1.2737 -1.2838
 4783TIP3   OH235763   4.633   1.957  14.793 -0.1879 -0.4727 -0.1666
 4783TIP3    H135764   4.656   1.874  14.836  0.9658  1.0566  2.4468
 4783TIP3    H235765   4.539   1.966  14.809 -0.1137 -0.7726  0.4848
 4784TIP3   OH235766   5.473   0.605   5.073  0.0380 -0.1695  0.2050
 4784TIP3    H135767   5.406   0.538   5.082  0.5857 -0.7082  0.3392
 4784TIP3    H235768   5.485   0.614   4.979  0.4280 -0.7342  0.1982
 4785TIP3   OH235769   5.995   4.408  11.495 -0.4823  0.0922 -0.2038
 4785TIP3    H135770   6.040   4.385  11.413 -0.8202 -0.4155 -0.2469
 4785TIP3    H235771   5.976   4.502  11.485  1.7616  0.6723  0.3900
 4786TIP3   OH235772   4.128   4.815   3.484 -0.0334 -0.2893  0.5172
 4786TIP3    H135773   4.162   4.884   3.541 -1.1174 -0.6058  1.6042
 4786TIP3    H235774   4.064   4.859   3.428 -0.3818 -0.3146  0.8890
 4787TIP3   OH235775   3.570   2.294   1.544 -0.7193 -0.8030  0.1949
 4787TIP3    H135776   3.608   2.379   1.566 -1.0523 -0.6387  0.1361
 4787TIP3    H235777   3.483   2.314   1.510 -0.8420 -1.1747  0.2814
 4788TIP3   OH235778   2.219   0.635  13.639 -0.0933 -0.1097  0.2558
 4788TIP3    H135779   2.267   0.615  13.719  2.4073  2.0527 -0.5605
 4788TIP3    H235780   2.135   0.669  13.669  1.1407  1.5803  2.0810
 4789TIP3   OH235781   2.352   6.357   3.162  0.3333 -0.6829  0.4185
 4789TIP3    H135782   2.434   6.324   3.198  1.1600  0.9580  0.1315
 4789TIP3    H235783   2.284   6.311   3.212  1.3998  0.8930  3.6156
 4790TIP3   OH235784   4.460   5.405  13.550  0.3054  0.4004 -0.2414
 4790TIP3    H135785   4.492   5.409  13.640  1.2758 -0.1916 -0.5384
 4790TIP3    H235786   4.365   5.414  13.558  0.5146  2.4574  0.6624
 4791TIP3   OH235787   1.670   2.608   2.320  0.2815  0.0716  0.1268
 4791TIP3    H135788   1.608   2.654   2.264  1.7929  0.8299 -0.9902
 4791TIP3    H235789   1.633   2.616   2.408 -1.5526 -0.1561 -0.5758
 4792TIP3   OH235790   3.786   3.742  13.367 -0.3444 -0.3366 -0.1472
 4792TIP3    H135791   3.713   3.707  13.315 -1.1069 -0.7341  1.1443
 4792TIP3    H235792   3.794   3.833  13.338 -2.3148  0.1456  0.6723
 4793TIP3   OH235793   1.941   6.077   1.971 -0.3104 -0.2099 -0.3265
 4793TIP3    H135794   1.913   6.056   1.882  0.6479 -0.3019 -0.6184
 4793TIP3    H235795   1.860   6.078   2.022 -0.8042 -0.7588 -1.0777
 4794TIP3   OH235796   4.449   6.529  11.844  0.4516 -0.0142 -0.0725
 4794TIP3    H135797   4.534   6.489  11.866 -0.1293 -1.7256 -0.7758
 4794TIP3    H235798   4.426   6.579  11.922  0.8430 -1.7553  1.2351
 4795TIP3   OH235799   5.672   5.037  12.940  0.0325 -0.3316  0.5862
 4795TIP3    H135800   5.676   5.066  13.032 -0.5806 -1.5674  1.0226
 4795TIP3    H235801   5.578   5.033  12.921  0.1428  2.3848 -0.9430
 4796TIP3   OH235802   5.607   5.832  12.494  0.1664 -0.1920 -0.2151
 4796TIP3    H135803   5.628   5.755  12.441 -1.5473 -0.1683 -0.9967
 4796TIP3    H235804   5.665   5.826  12.570 -0.7760 -2.9242  0.3907
 4797TIP3   OH235805   1.241   0.718  17.161 -0.2395  0.0174 -0.1744
 4797TIP3    H135806   1.166   0.778  17.152 -1.2658 -1.4604 -2.4164
 4797TIP3    H235807   1.234   0.684  17.250 -0.2918  2.3061  0.7658
 4798TIP3   OH235808   2.660   0.251  14.929  0.0365 -0.3855  0.1346
 4798TIP3    H135809   2.696   0.339  14.937 -0.0871 -0.4398  1.6928
 4798TIP3    H235810   2.735   0.193  14.944  0.1781 -0.5769 -1.1780
 4799TIP3   OH235811   4.887   1.582  13.700  0.5774 -0.2950  0.1442
 4799TIP3    H135812   4.913   1.542  13.783  0.4261 -0.5985  0.0442
 4799TIP3    H235813   4.923   1.671  13.705  0.6622 -0.3451  0.4882
 4800TIP3   OH235814   0.035   2.048  16.412 -0.7458 -0.1172  0.1570
 4800TIP3    H135815   0.016   1.957  16.434  0.5613 -0.4792 -0.0977
 4800TIP3    H235816   0.087   2.080  16.486 -2.0143  0.7553  0.7215
 4801TIP3   OH235817   6.393   0.730  11.983 -0.3847 -0.0413  0.0006
 4801TIP3    H135818   6.422   0.793  12.050  1.0045 -1.3485  0.6825
 4801TIP3    H235819   6.473   0.704  11.938 -0.7512 -2.0376  0.3911
 4802TIP3   OH235820   6.701   1.855   4.675 -0.4543 -0.0906  0.4540
 4802TIP3    H135821   6.763   1.805   4.623 -1.6833 -2.0842  0.7967
 4802TIP3    H235822   6.742   1.864   4.761  0.1362  0.2685  0.1426
 4803TIP3   OH235823   0.692   2.052  11.243 -0.0314 -0.2322 -0.3411
 4803TIP3    H135824   0.768   2.110  11.232 -1.6147  1.8975 -0.6498
 4803TIP3    H235825   0.677   2.016  11.156 -0.3151  0.6134 -0.6540
 4804TIP3   OH235826   0.406   3.649  14.690 -0.3761 -0.1609  0.3409
 4804TIP3    H135827   0.481   3.704  14.714  0.4019 -0.9776 -0.1648
 4804TIP3    H235828   0.331   3.693  14.730  0.1620  1.4918 -0.3750
 4805TIP3   OH235829   1.724   5.644  16.360  0.6942 -0.2384  0.1077
 4805TIP3    H135830   1.640   5.678  16.329  0.9380  0.3502  0.0835
 4805TIP3    H235831   1.788   5.678  16.297  1.2990  1.5904  1.5960
 4806TIP3   OH235832   4.640   3.007   1.486  0.2047  0.8285  0.0838
 4806TIP3    H135833   4.706   3.054   1.537  1.1281  0.4929 -0.7525
 4806TIP3    H235834   4.630   3.058   1.406 -1.5623  1.5917  0.7519
 4807TIP3   OH235835   4.910   0.351   5.854  0.3871 -0.6394  0.1834
 4807TIP3    H135836   4.852   0.291   5.901  0.2566 -1.3639 -0.8676
 4807TIP3    H235837   4.851   0.415   5.813  0.5093  0.0784  1.1052
 4808TIP3   OH235838   5.469   1.016  16.394  0.1582 -0.1818  0.1085
 4808TIP3    H135839   5.529   0.966  16.449  1.7191  1.7892  0.3270
 4808TIP3    H235840   5.467   1.103  16.435 -3.0476 -0.1947  0.2237
 4809TIP3   OH235841   4.480   2.838  13.933  0.0226  0.4552  0.4742
 4809TIP3    H135842   4.574   2.846  13.949  0.1436 -0.1490  0.1148
 4809TIP3    H235843   4.472   2.760  13.879 -0.6358  0.8387  0.0090
 4810TIP3   OH235844   0.517   1.880  15.166  0.3500 -0.6377  0.1722
 4810TIP3    H135845   0.508   1.854  15.075 -1.2560 -2.8092  0.8525
 4810TIP3    H235846   0.577   1.815  15.203  0.4298 -0.2101  0.8115
 4811TIP3   OH235847   1.649   2.404  11.974 -0.1681  0.1812  0.0888
 4811TIP3    H135848   1.676   2.469  11.910  0.7346  0.3396  0.6065
 4811TIP3    H235849   1.567   2.437  12.009  0.1078  0.8697  0.0982
 4812TIP3   OH235850   1.051   4.574  12.787  0.1457  0.0961  0.4842
 4812TIP3    H135851   1.119   4.532  12.839  0.0746  1.3989  1.7064
 4812TIP3    H235852   1.032   4.512  12.716  0.9918 -1.2710  1.4124
 4813TIP3   OH235853   6.033   6.162   6.574  0.3434 -0.2509 -0.1189
 4813TIP3    H135854   5.952   6.201   6.606 -0.1423 -0.3999 -1.1158
 4813TIP3    H235855   6.081   6.136   6.652  0.0686  1.1151  0.5324
 4814TIP3   OH235856   0.862   5.207   4.353 -0.2997  0.7633 -0.0492
 4814TIP3    H135857   0.834   5.118   4.329 -2.5305  1.3105  0.3017
 4814TIP3    H235858   0.874   5.251   4.269  1.0748  0.0966 -0.2332
 4815TIP3   OH235859   5.193   3.746  14.586 -0.0609  0.1239  0.1522
 4815TIP3    H135860   5.255   3.745  14.513 -0.4156  0.1575 -0.1501
 4815TIP3    H235861   5.118   3.696  14.556 -0.0621 -0.1692  0.6292
 4816TIP3   OH235862   3.844   5.935   2.144  0.1020 -0.5663 -0.1767
 4816TIP3    H135863   3.901   5.919   2.068  0.8034 -1.1500  0.4586
 4816TIP3    H235864   3.902   5.925   2.219 -0.7331 -0.6290  0.4666
 4817TIP3   OH235865   5.553   1.857   5.521 -0.5853  0.2259 -0.7348
 4817TIP3    H135866   5.602   1.805   5.458 -1.1316 -0.6682 -0.4391
 4817TIP3    H235867   5.580   1.824   5.606 -0.7908  0.5637 -0.5341
 4818TIP3   OH235868   0.451   2.706   0.412  0.1024  0.4949 -0.5907
 4818TIP3    H135869   0.508   2.783   0.423 -1.2975  1.6321 -0.9056
 4818TIP3    H235870   0.469   2.676   0.323 -0.6941  1.6418 -1.1592
 4819TIP3   OH235871   0.994   2.445   0.250 -0.0856 -0.2104 -0.5542
 4819TIP3    H135872   1.069   2.481   0.298 -0.1718  0.6200 -1.0091
 4819TIP3    H235873   1.030   2.421   0.164 -0.4668  0.8855 -1.0425
 4820TIP3   OH235874   5.210   2.566   5.267  0.1031  0.0565  0.3301
 4820TIP3    H135875   5.230   2.520   5.349 -0.2819 -1.2238 -0.2716
 4820TIP3    H235876   5.115   2.565   5.262  0.1514 -1.1909 -0.8379
 4821TIP3   OH235877   0.704   3.031   3.644  0.3186 -0.1649 -0.1016
 4821TIP3    H135878   0.619   3.038   3.688  1.1288  0.4352  1.4489
 4821TIP3    H235879   0.767   3.016   3.715  1.5204 -0.5390 -1.2077
 4822TIP3   OH235880   4.805   0.056  12.801 -0.4485  0.0407 -0.6816
 4822TIP3    H135881   4.717   0.063  12.765 -1.0106 -2.1096  0.1013
 4822TIP3    H235882   4.851  -0.002  12.741 -0.0825 -0.1502 -0.2246
 4823TIP3   OH235883   6.143   2.338  14.069  0.3937  0.4024 -0.0134
 4823TIP3    H135884   6.049   2.325  14.072  0.4726 -1.2428 -2.2958
 4823TIP3    H235885   6.160   2.371  13.981  1.8312  2.2481  0.8775
 4824TIP3   OH235886   0.387   3.331   5.346 -0.1939 -0.2193  0.3707
 4824TIP3    H135887   0.298   3.326   5.312  0.0613 -0.6131 -0.2690
 4824TIP3    H235888   0.417   3.240   5.347  0.9827  0.0890 -1.5800
 4825TIP3   OH235889   6.403   3.853  12.830  0.1677 -0.4339 -0.3651
 4825TIP3    H135890   6.475   3.798  12.861 -0.8609 -1.9338 -0.5236
 4825TIP3    H235891   6.420   3.938  12.870  1.4855 -1.0141  0.4057
 4826TIP3   OH235892   5.301   4.813   2.113 -0.6121  0.1291  0.2453
 4826TIP3    H135893   5.227   4.868   2.139 -0.7387  0.4283 -0.7433
 4826TIP3    H235894   5.275   4.775   2.030 -0.8562 -2.0739  1.2600
 4827TIP3   OH235895   0.413   2.728  16.860 -0.1306  0.0566 -0.0898
 4827TIP3    H135896   0.457   2.765  16.937 -0.9591  0.1796  0.3412
 4827TIP3    H235897   0.356   2.660  16.896  0.3546 -0.7087 -0.7369
 4828TIP3   OH235898   6.323   4.703   1.209 -0.0565 -0.6938 -0.1507
 4828TIP3    H135899   6.267   4.678   1.136 -0.9779  0.2863  0.1906
 4828TIP3    H235900   6.312   4.798   1.217  0.1713 -0.7499  1.1242
 4829TIP3   OH235901   0.676   0.596   0.632 -0.2216 -0.3460 -0.1709
 4829TIP3    H135902   0.642   0.535   0.567  0.4503 -1.3303  0.3711
 4829TIP3    H235903   0.732   0.542   0.688  0.4389  0.7793  0.2893
 4830TIP3   OH235904   1.545   2.171   0.777 -0.0221 -0.4320 -0.4081
 4830TIP3    H135905   1.490   2.141   0.849  0.3894 -0.5088 -0.1236
 4830TIP3    H235906   1.507   2.131   0.699 -0.9342  0.2703 -0.3373
 4831TIP3   OH235907   5.543   5.841  14.136  0.3250  0.3060 -0.5174
 4831TIP3    H135908   5.625   5.796  14.156 -0.1208 -0.1056  0.4515
 4831TIP3    H235909   5.534   5.833  14.041  2.0366  1.4678 -0.8236
 4832TIP3   OH235910   2.612   1.779  16.985 -0.2897  0.3821  0.1852
 4832TIP3    H135911   2.643   1.731  16.909 -1.2492  1.4654 -0.9385
 4832TIP3    H235912   2.551   1.719  17.028 -2.1901  0.8091 -1.7086
 4833TIP3   OH235913   3.907   4.202   3.071  0.0984 -0.3367 -0.3020
 4833TIP3    H135914   3.974   4.135   3.083  0.6158  0.2734  0.2387
 4833TIP3    H235915   3.920   4.233   2.982  0.3689 -0.3941 -0.2817
 4834TIP3   OH235916   1.896   3.067  14.481  0.2572  0.0413 -0.1375
 4834TIP3    H135917   1.907   3.107  14.395  0.2597  1.2524  0.4160
 4834TIP3    H235918   1.882   3.140  14.540 -0.6916 -0.8342  0.7556
 4835TIP3   OH235919   1.431   1.061  11.480  0.4250 -0.1618 -0.1885
 4835TIP3    H135920   1.477   1.035  11.560  1.7423  1.1975 -0.4720
 4835TIP3    H235921   1.444   0.987  11.420 -0.5346 -1.1712  0.7933
 4836TIP3   OH235922   1.351   2.965   2.617  0.2196 -0.3367 -0.3925
 4836TIP3    H135923   1.436   3.007   2.600  0.4480 -1.4624 -2.4212
 4836TIP3    H235924   1.341   2.968   2.712  0.2144  4.1910 -0.3058
 4837TIP3   OH235925   1.343   5.261  12.971  0.4774  0.6618 -0.2116
 4837TIP3    H135926   1.319   5.239  12.881 -0.5486 -0.8894  0.4020
 4837TIP3    H235927   1.267   5.236  13.024  0.3251  3.2605  0.9162
 4838TIP3   OH235928   1.455   1.307   2.923  0.8166  0.2868  0.1358
 4838TIP3    H135929   1.503   1.255   2.988 -1.4878  1.2537  2.8076
 4838TIP3    H235930   1.363   1.288   2.939  0.0910  0.8691 -2.6963
 4839TIP3   OH235931   1.034   1.535   3.450  0.2411 -0.0997 -0.2753
 4839TIP3    H135932   0.940   1.517   3.452  0.0191  0.7461 -1.8519
 4839TIP3    H235933   1.074   1.458   3.491 -1.0480 -1.0457 -0.7261
 4840TIP3   OH235934   3.490   0.597  12.631  0.2068  0.2625 -0.0635
 4840TIP3    H135935   3.574   0.558  12.656 -0.8268 -1.9506  0.1428
 4840TIP3    H235936   3.512   0.657  12.560  1.9353 -0.5399 -0.2566
 4841TIP3   OH235937   4.726   0.145   3.159 -0.6286 -0.5611 -0.6128
 4841TIP3    H135938   4.766   0.074   3.209  1.1293  0.7406 -0.0610
 4841TIP3    H235939   4.713   0.215   3.223  1.4901  1.0707 -1.8407
 4842TIP3   OH235940   0.081   0.326   2.359 -0.1379  0.5288  0.2125
 4842TIP3    H135941   0.077   0.387   2.434 -0.5147  0.3573  0.3319
 4842TIP3    H235942   0.112   0.380   2.286 -0.6845  0.9187  0.2629
 4843TIP3   OH235943   0.663   1.228  14.142  1.0398 -0.2469  0.6548
 4843TIP3    H135944   0.730   1.225  14.073  0.0580 -1.2173 -0.3098
 4843TIP3    H235945   0.581   1.215  14.095  0.0869  1.6006  1.7302
 4844TIP3   OH235946   4.261   5.626  12.406 -0.5482 -0.1344 -0.1115
 4844TIP3    H135947   4.316   5.704  12.397  0.2683 -0.8607 -2.0017
 4844TIP3    H235948   4.321   5.558  12.437 -0.5177 -0.7389 -1.4309
 4845TIP3   OH235949   1.145   3.566   2.311  0.6679  0.4058  0.5163
 4845TIP3    H135950   1.123   3.553   2.218  2.4984  1.8714 -0.1856
 4845TIP3    H235951   1.130   3.480   2.351 -3.6499  0.5415 -0.2909
 4846TIP3   OH235952   4.437   2.258   1.491  0.2136 -0.3559 -0.1490
 4846TIP3    H135953   4.488   2.195   1.441  1.2324 -1.3425  1.9983
 4846TIP3    H235954   4.503   2.312   1.536 -0.5169 -1.4484  2.4271
 4847TIP3   OH235955   0.617   2.991  12.325  0.4100  0.0238  0.0392
 4847TIP3    H135956   0.690   2.941  12.288  0.3298 -1.2564  1.5063
 4847TIP3    H235957   0.640   3.000  12.418 -0.1823  1.6751  0.0557
 4848TIP3   OH235958   6.523   0.216  13.290 -0.2868  0.6018  0.6861
 4848TIP3    H135959   6.470   0.273  13.233  0.6541  2.0050  1.1635
 4848TIP3    H235960   6.571   0.160  13.229 -0.4406  1.0475  0.1402
 4849TIP3   OH235961   5.750   5.185   4.447  0.1551  0.1236  0.1751
 4849TIP3    H135962   5.731   5.101   4.489 -2.1974 -0.0521 -1.0842
 4849TIP3    H235963   5.798   5.161   4.367 -1.7709 -0.2087 -0.9308
 4850TIP3   OH235964   3.270   1.686   1.445  0.4094  0.3636  0.4332
 4850TIP3    H135965   3.262   1.699   1.540 -0.6922  1.6461  0.2018
 4850TIP3    H235966   3.210   1.614   1.426  0.9932 -0.2232  0.7569
 4851TIP3   OH235967   1.416   3.145   3.873  0.1767 -0.1476 -0.0648
 4851TIP3    H135968   1.475   3.191   3.814 -1.4767  0.8453 -1.0078
 4851TIP3    H235969   1.403   3.205   3.946 -1.1299  0.4620 -0.7749
 4852TIP3   OH235970   5.727   1.989   4.801 -0.1058  0.2553 -0.2721
 4852TIP3    H135971   5.810   1.970   4.845 -0.1141 -1.7165 -1.0077
 4852TIP3    H235972   5.662   1.936   4.848 -1.1199  2.2411  0.6940
 4853TIP3   OH235973   6.124   6.731   0.799 -1.0801 -0.2896 -0.5647
 4853TIP3    H135974   6.136   6.637   0.786 -0.9135 -0.1078 -1.8421
 4853TIP3    H235975   6.170   6.771   0.725 -0.2966  0.8433  0.4894
 4854TIP3   OH235976   0.634   6.452   4.132 -0.1737 -0.4656 -0.3044
 4854TIP3    H135977   0.667   6.542   4.144  1.0389 -0.6855 -1.6765
 4854TIP3    H235978   0.556   6.462   4.079  0.4087 -0.2525 -1.1463
 4855TIP3   OH235979   1.308   5.837   4.926 -0.2328 -0.2708 -0.2397
 4855TIP3    H135980   1.376   5.903   4.916 -0.4999 -0.0190 -0.3904
 4855TIP3    H235981   1.302   5.823   5.021  0.6410 -0.9384 -0.2673
 4856TIP3   OH235982   2.032   1.340  13.942 -0.5106  0.1388  0.0145
 4856TIP3    H135983   1.987   1.316  14.023  0.0949 -0.0958  0.2873
 4856TIP3    H235984   2.124   1.322  13.959  0.4581  4.7839  1.0770
 4857TIP3   OH235985   0.340   3.084  14.839 -0.1132  0.1186 -0.2855
 4857TIP3    H135986   0.316   2.994  14.857 -0.1513 -0.0420 -1.1005
 4857TIP3    H235987   0.292   3.136  14.903 -0.4239 -0.4071 -0.0956
 4858TIP3   OH235988   4.334   1.829   2.893  0.5244 -0.4958 -0.2681
 4858TIP3    H135989   4.330   1.839   2.798  0.8533 -0.3013 -0.2622
 4858TIP3    H235990   4.388   1.902   2.923  0.2124 -0.4139  0.0946
 4859TIP3   OH235991   0.148   6.481   5.017  0.1069  0.3153 -0.1647
 4859TIP3    H135992   0.138   6.564   5.064 -1.1466  0.7579 -1.1716
 4859TIP3    H235993   0.061   6.463   4.982 -0.2566 -2.5674  1.8486
 4860TIP3   OH235994   5.877   1.520  15.111 -0.3627 -0.7699  0.6279
 4860TIP3    H135995   5.913   1.527  15.023 -1.2083  1.7063  0.4120
 4860TIP3    H235996   5.945   1.557  15.167  0.4673 -2.9525  1.1920
 4861TIP3   OH235997   0.004   3.273   2.752 -0.1181 -0.4685  0.5613
 4861TIP3    H135998   0.078   3.252   2.696 -0.0293  1.4804 -0.1553
 4861TIP3    H235999  -0.060   3.316   2.694 -0.5508  0.4895  1.6775
 4862TIP3   OH236000   5.974   5.592  14.396  0.2181  0.3003  0.0634
 4862TIP3    H136001   5.930   5.540  14.463  0.5528  0.2019  0.2083
 4862TIP3    H236002   6.064   5.559  14.395  0.6207  1.3266  0.6292
 4863TIP3   OH236003   3.176   2.295  13.010  0.0621  0.3235  0.3762
 4863TIP3    H136004   3.149   2.381  13.041 -3.7159 -1.1306  1.7132
 4863TIP3    H236005   3.201   2.248  13.090  0.4467 -0.3382 -0.1257
 4864TIP3   OH236006   4.828   0.058   6.655  0.2718 -0.0927  0.3070
 4864TIP3    H136007   4.802  -0.022   6.610 -0.7499  0.4471 -0.0958
 4864TIP3    H236008   4.761   0.071   6.722 -0.8918  1.6276 -1.1186
 4865TIP3   OH236009   6.672   4.627  13.610  0.1806 -0.0998  0.1991
 4865TIP3    H136010   6.747   4.577  13.642 -0.2229  0.3576  1.9350
 4865TIP3    H236011   6.640   4.675  13.686 -1.8524 -0.2303 -0.5008
 4866TIP3   OH236012   1.931   2.084  13.900 -0.2664  0.4928 -0.2216
 4866TIP3    H136013   1.990   2.049  13.967  2.7983  2.1279 -1.8344
 4866TIP3    H236014   1.870   2.139  13.949  1.8259  1.5771  1.3379
 4867TIP3   OH236015   1.915   3.275   6.188 -0.2191 -0.6167 -0.3302
 4867TIP3    H136016   1.858   3.276   6.264 -0.9324 -0.4345 -0.8597
 4867TIP3    H236017   1.897   3.357   6.143  0.8699 -0.2985 -0.2127
 4868TIP3   OH236018   4.028   5.493  13.362 -0.1908  0.0819 -0.6359
 4868TIP3    H136019   3.946   5.542  13.351  0.5322  1.4779 -0.0744
 4868TIP3    H236020   4.014   5.412  13.313 -2.3191 -0.2412  0.3938
 4869TIP3   OH236021   6.099   5.183  12.070 -0.2639  0.4644  0.5767
 4869TIP3    H136022   6.188   5.172  12.103  0.3668 -0.0198 -1.1856
 4869TIP3    H236023   6.048   5.208  12.148  1.4619  1.1618  1.5491
 4870TIP3   OH236024   2.852   2.474  12.404  0.2681 -0.1286 -0.3055
 4870TIP3    H136025   2.933   2.483  12.353 -0.6387  1.7912 -1.5055
 4870TIP3    H236026   2.857   2.545  12.469 -1.8134  2.2064 -2.4699
 4871TIP3   OH236027   4.392   4.898   3.371  0.0781 -0.6194  0.5539
 4871TIP3    H136028   4.323   4.832   3.374  1.3911 -2.1585 -0.9485
 4871TIP3    H236029   4.366   4.955   3.298  0.0532 -0.7955  0.4234
 4872TIP3   OH236030   4.164   4.444  13.515 -0.1671  0.0654 -0.3646
 4872TIP3    H136031   4.109   4.465  13.591  0.1041  0.2215 -0.2092
 4872TIP3    H236032   4.142   4.511  13.450 -1.6727 -1.0594 -1.0903
 4873TIP3   OH236033   4.322   3.226  11.221 -0.1098 -0.1133  0.0218
 4873TIP3    H136034   4.398   3.262  11.176 -0.7264  0.6505 -0.4419
 4873TIP3    H236035   4.277   3.174  11.154  0.4228 -1.2246  0.5110
 4874TIP3   OH236036   5.801   0.167   0.943 -0.6825  0.0092 -0.1089
 4874TIP3    H136037   5.762   0.170   0.856  1.1541 -1.2491 -1.0597
 4874TIP3    H236038   5.810   0.074   0.962 -0.2784  0.2652  1.0472
 4875TIP3   OH236039   3.333   1.617   0.240  0.0973  0.6892 -0.5784
 4875TIP3    H136040   3.398   1.589   0.304 -0.8031 -0.2931 -0.0817
 4875TIP3    H236041   3.370   1.590   0.156  0.4691  0.3945 -0.3232
 4876TIP3   OH236042   6.027   3.962  15.314 -0.0187  0.2587 -0.3135
 4876TIP3    H136043   5.938   3.982  15.287 -1.0401  0.1486  2.6180
 4876TIP3    H236044   6.055   3.892  15.256 -1.7856  0.3670 -1.3669
 4877TIP3   OH236045   3.392   2.094  13.632 -0.3597 -0.0134  1.2131
 4877TIP3    H136046   3.419   2.186  13.622 -2.0495  0.4207  0.2309
 4877TIP3    H236047   3.460   2.045  13.586 -0.0669  0.8512  0.6850
 4878TIP3   OH236048   2.521   6.022  14.860 -0.1997 -0.1476  0.4356
 4878TIP3    H136049   2.513   5.935  14.900  1.5039 -0.8194 -0.5604
 4878TIP3    H236050   2.493   6.009  14.769  1.0093  0.0868  0.0160
 4879TIP3   OH236051   3.280   6.517  15.220  0.4358  0.4173  0.4137
 4879TIP3    H136052   3.354   6.496  15.164  1.7955  2.2167  1.4171
 4879TIP3    H236053   3.239   6.433  15.239  1.2137 -0.4576 -1.4833
 4880TIP3   OH236054   5.868   1.023  11.573  0.5131 -0.0699  0.2565
 4880TIP3    H136055   5.810   0.964  11.525  0.4955  0.6507 -0.6304
 4880TIP3    H236056   5.823   1.038  11.657 -1.1020  1.2097 -0.7613
 4881TIP3   OH236057   2.097   4.026  16.876  0.4393 -0.7001  0.1948
 4881TIP3    H136058   2.068   4.060  16.960  0.2438  0.6465 -0.3965
 4881TIP3    H236059   2.071   3.934  16.877 -0.5772 -0.4156  1.1482
 4882TIP3   OH236060   0.577   4.669  12.420  0.0641 -0.5419 -0.3905
 4882TIP3    H136061   0.535   4.595  12.463  2.0093 -2.2524 -1.2733
 4882TIP3    H236062   0.574   4.648  12.327 -0.3808  1.0873 -0.7776
 4883TIP3   OH236063   4.673   4.080  10.731  0.5677  0.2079  0.1081
 4883TIP3    H136064   4.763   4.075  10.764  1.0141  0.9356 -0.9478
 4883TIP3    H236065   4.664   4.170  10.700 -0.1535 -0.1749 -0.8347
 4884TIP3   OH236066   2.963   1.610   2.333 -0.7423 -0.5980  0.3067
 4884TIP3    H136067   2.900   1.547   2.370  0.6101 -2.9611 -1.1620
 4884TIP3    H236068   2.955   1.687   2.389 -2.3418 -2.1428  2.3765
 4885TIP3   OH236069   5.272   3.708  10.723  0.4355  0.3587  0.1579
 4885TIP3    H136070   5.348   3.762  10.706  0.3033  1.0205  1.5294
 4885TIP3    H236071   5.255   3.719  10.817  0.0997 -1.6591  0.3930
 4886TIP3   OH236072   0.970   1.684   3.153 -0.0177 -0.4253  0.2816
 4886TIP3    H136073   0.933   1.638   3.229  2.9052 -1.0596  1.4564
 4886TIP3    H236074   1.010   1.614   3.101 -0.4595  0.2173 -0.9425
 4887TIP3   OH236075   3.094   2.662  14.508 -0.4341  0.7427 -0.0532
 4887TIP3    H136076   3.139   2.699  14.432  0.3006  2.0543  0.9749
 4887TIP3    H236077   3.143   2.582  14.528 -0.8201  0.2183 -1.1138
 4888TIP3   OH236078   0.700   0.729   2.086 -1.2971 -0.5489 -0.0443
 4888TIP3    H136079   0.620   0.682   2.111 -1.6626  0.7481  1.3682
 4888TIP3    H236080   0.678   0.821   2.098  0.4354 -0.1714  0.4600
 4889TIP3   OH236081   3.993   4.381  11.217 -0.2810  0.3831 -0.3807
 4889TIP3    H136082   4.059   4.422  11.161 -0.1771 -0.9000 -1.2277
 4889TIP3    H236083   3.953   4.314  11.163  0.5390 -1.6232  1.3561
 4890TIP3   OH236084   0.448   5.758   6.595  0.4028  0.5782 -0.0309
 4890TIP3    H136085   0.379   5.699   6.628  0.1516  1.4324  1.0329
 4890TIP3    H236086   0.430   5.765   6.502 -1.7424  1.7475  0.4044
 4891TIP3   OH236087   3.400   1.356   1.499  0.3368  0.2501  0.3232
 4891TIP3    H136088   3.399   1.356   1.403  0.1075  2.4689  0.2756
 4891TIP3    H236089   3.452   1.279   1.523  2.2479  0.8323 -1.6351
 4892TIP3   OH236090   2.887   0.985  12.089  0.2406  0.3966 -0.1921
 4892TIP3    H136091   2.804   0.972  12.042  1.1078  0.4532 -1.8299
 4892TIP3    H236092   2.928   0.898  12.088  1.1510  0.8191 -1.3490
 4893TIP3   OH236093   5.607   6.509   3.506 -0.0001  0.1497 -0.5063
 4893TIP3    H136094   5.641   6.598   3.495 -0.6492  0.3217 -1.1915
 4893TIP3    H236095   5.531   6.520   3.564  0.8150 -0.1714  0.6502
 4894TIP3   OH236096   1.364   5.514  13.611  0.2736  0.4460 -0.5473
 4894TIP3    H136097   1.366   5.450  13.540 -0.6402 -1.3575  0.9619
 4894TIP3    H236098   1.456   5.524  13.636  0.3763 -1.0703 -0.1892
 4895TIP3   OH236099   5.536   4.948   5.280 -0.2311  0.1713 -0.0563
 4895TIP3    H136100   5.576   5.012   5.221 -0.6119 -1.4283 -2.1675
 4895TIP3    H236101   5.601   4.935   5.349  2.3833 -1.2569 -2.5773
 4896TIP3   OH236102   5.902   5.022  12.580 -0.1514 -0.2227 -0.3115
 4896TIP3    H136103   5.856   4.939  12.591  0.6685 -0.5175  1.2064
 4896TIP3    H236104   5.837   5.089  12.601 -0.2583 -0.5878  0.5720
 4897TIP3   OH236105   0.329   6.555  17.306 -0.1733  0.3178  0.4196
 4897TIP3    H136106   0.245   6.564  17.351 -0.9985  2.5135 -1.3697
 4897TIP3    H236107   0.387   6.618  17.350 -0.5835  1.4654 -0.6207
 4898TIP3   OH236108   1.934   1.228   4.160 -0.0202  0.1068  0.0731
 4898TIP3    H136109   1.916   1.180   4.241  1.9826 -0.9790 -0.0561
 4898TIP3    H236110   1.930   1.320   4.185 -0.5262 -0.1895  1.1449
 4899TIP3   OH236111   0.918   1.875  14.461  0.4375 -0.2321 -0.3347
 4899TIP3    H136112   0.945   1.784  14.462  0.6236 -0.1803  0.9548
 4899TIP3    H236113   0.864   1.884  14.383  0.2329 -1.5020 -0.3464
 4900TIP3   OH236114   6.226   1.518   2.696 -0.1838 -0.5132 -0.5888
 4900TIP3    H136115   6.191   1.603   2.721  1.0225  0.3785 -1.8005
 4900TIP3    H236116   6.151   1.470   2.662 -0.7131  0.4083 -0.7463
 4901TIP3   OH236117   4.217   3.336  16.166  0.3023 -0.2434 -0.4762
 4901TIP3    H136118   4.277   3.409  16.150 -0.0634 -0.2174 -1.9184
 4901TIP3    H236119   4.209   3.293  16.080 -1.5403 -0.3867 -0.2661
 4902TIP3   OH236120   3.743   3.850   0.404 -0.7137  0.2413 -0.6223
 4902TIP3    H136121   3.789   3.933   0.394 -1.8629  1.0273  0.4034
 4902TIP3    H236122   3.809   3.790   0.441  0.2391  0.5371 -1.7620
 4903TIP3   OH236123   0.911   6.672  15.155 -0.2883  0.1969 -0.2237
 4903TIP3    H136124   0.845   6.625  15.104 -1.8637  1.0818  0.8966
 4903TIP3    H236125   0.863   6.701  15.233  1.7064 -0.0208  1.1427
 4904TIP3   OH236126   2.883   2.501   4.367 -0.0085 -0.1037  0.2647
 4904TIP3    H136127   2.810   2.441   4.356  0.3530 -0.5608  0.3222
 4904TIP3    H236128   2.935   2.463   4.437  1.4360 -0.9621 -1.1879
 4905TIP3   OH236129   4.528   2.563  12.855 -0.3628 -0.1223 -0.1150
 4905TIP3    H136130   4.572   2.646  12.840 -1.0484 -0.0064 -1.6441
 4905TIP3    H236131   4.569   2.503  12.792 -2.3842  0.0205 -1.6764
 4906TIP3   OH236132   1.695   5.000  14.188 -0.0416  0.1072 -0.3248
 4906TIP3    H136133   1.641   5.009  14.266  0.2823 -1.2807  0.0924
 4906TIP3    H236134   1.642   4.948  14.128  0.4856 -0.5283 -0.2461
 4907TIP3   OH236135   1.033   2.835   3.149  0.3725  0.1486 -0.3929
 4907TIP3    H136136   1.122   2.806   3.171 -0.1724  1.2161  4.2526
 4907TIP3    H236137   1.037   2.857   3.056  4.2331 -2.1951 -0.9913
 4908TIP3   OH236138   0.362   3.644  12.988  0.0809  0.0468  0.3506
 4908TIP3    H136139   0.357   3.738  13.005 -0.6263 -0.1084  1.0470
 4908TIP3    H236140   0.443   3.633  12.939  2.0371  0.5711  3.2559
 4909TIP3   OH236141   2.915   5.450   5.592  0.5129 -0.4834  0.2835
 4909TIP3    H136142   2.896   5.380   5.655 -2.6936 -1.3666 -1.4347
 4909TIP3    H236143   2.839   5.508   5.596  1.2752  0.7046 -1.1505
 4910TIP3   OH236144   6.205   3.303   4.700 -0.6117  0.3525  0.1482
 4910TIP3    H136145   6.288   3.350   4.704 -0.6532  0.5571 -1.2051
 4910TIP3    H236146   6.173   3.316   4.611 -1.9334 -0.0156  0.5426
 4911TIP3   OH236147   4.350   4.640  15.902 -0.3388 -0.4427  0.8561
 4911TIP3    H136148   4.278   4.580  15.920  1.2215 -1.8601  2.7510
 4911TIP3    H236149   4.422   4.584  15.874  0.0803  0.9445 -1.0919
 4912TIP3   OH236150   0.952   6.076  16.729 -0.1599 -0.3378 -0.3149
 4912TIP3    H136151   0.972   5.999  16.675  1.8809 -0.4676  0.5451
 4912TIP3    H236152   0.877   6.117  16.685 -0.7857 -2.3508 -1.2505
 4913TIP3   OH236153   5.250   2.656  15.745 -0.0512 -0.3164  0.5678
 4913TIP3    H136154   5.290   2.621  15.825 -0.1286  0.6446  1.0453
 4913TIP3    H236155   5.193   2.586  15.714 -0.1973 -0.6180  1.4896
 4914TIP3   OH236156   4.396   1.156  13.326  0.2596 -0.7540 -0.4652
 4914TIP3    H136157   4.462   1.108  13.275 -1.4620 -2.4928 -1.1733
 4914TIP3    H236158   4.418   1.138  13.417  0.4341 -1.8321 -0.7046
 4915TIP3   OH236159   5.874   0.536   4.753 -0.0049 -0.1829  0.2228
 4915TIP3    H136160   5.827   0.618   4.740  1.3144  0.4785 -0.4859
 4915TIP3    H236161   5.807   0.468   4.743 -0.9541  0.7606  0.0315
 4916TIP3   OH236162   5.705   1.554  14.360 -0.6079  0.3447 -0.0975
 4916TIP3    H136163   5.666   1.542  14.273 -0.7185 -1.5439  0.1721
 4916TIP3    H236164   5.798   1.569  14.342 -0.6212 -0.0799 -0.5437
 4917TIP3   OH236165   2.593   5.266   2.846 -0.5282  0.0433  0.5452
 4917TIP3    H136166   2.540   5.343   2.827 -0.7122 -0.1317  0.3357
 4917TIP3    H236167   2.669   5.273   2.790  0.4151  1.0467  1.8964
 4918TIP3   OH236168   1.708   1.444   6.603  0.9489 -0.2572 -0.3276
 4918TIP3    H136169   1.783   1.388   6.586  1.1423  0.1688 -0.8996
 4918TIP3    H236170   1.635   1.383   6.617  1.3023 -0.6588 -0.2032
 4919TIP3   OH236171   6.386   2.793  16.868 -0.4154 -0.8559  0.1476
 4919TIP3    H136172   6.419   2.869  16.917 -0.5566 -0.2588 -0.6533
 4919TIP3    H236173   6.297   2.781  16.900 -0.8320  0.1079 -0.5863
 4920TIP3   OH236174   5.187   1.509  14.350 -0.1537  0.2875 -0.0828
 4920TIP3    H136175   5.217   1.580  14.408  1.0222  0.3961 -0.7779
 4920TIP3    H236176   5.190   1.548  14.263  0.4437 -0.5906 -0.4648
 4921TIP3   OH236177   3.941   5.565  15.001 -0.0233  0.2110  0.4281
 4921TIP3    H136178   3.988   5.623  15.060  1.4837 -0.6530  0.1492
 4921TIP3    H236179   4.008   5.503  14.970 -1.1379 -0.4411 -0.8047
 4922TIP3   OH236180   4.717   1.917   0.285  0.3993 -0.0579  0.4110
 4922TIP3    H136181   4.687   1.993   0.336 -1.6819 -0.5529  0.0089
 4922TIP3    H236182   4.785   1.878   0.340 -0.4593  0.5049  1.9603
 4923TIP3   OH236183   3.354   6.597  12.000 -0.1290 -0.6560  0.9730
 4923TIP3    H136184   3.300   6.592  11.921 -2.0678 -0.0231  2.1617
 4923TIP3    H236185   3.338   6.686  12.033  0.5358 -0.9478  2.1260
 4924TIP3   OH236186   3.416   3.006  15.893 -0.3420  0.0772 -0.3261
 4924TIP3    H136187   3.504   3.043  15.889  0.7000 -2.2268 -0.2087
 4924TIP3    H236188   3.375   3.032  15.811  1.4482 -1.0626 -1.6445
 4925TIP3   OH236189   1.196   6.213   0.268  0.8458 -0.6915  0.0748
 4925TIP3    H136190   1.136   6.183   0.337  0.5863  1.3612  0.8041
 4925TIP3    H236191   1.184   6.149   0.198  0.6102 -2.4639  1.6436
 4926TIP3   OH236192   2.331   4.399   3.366  0.3505  0.1953  0.1926
 4926TIP3    H136193   2.399   4.449   3.321  0.0359  0.7880  0.3708
 4926TIP3    H236194   2.370   4.375   3.450  0.3971  0.3863  0.2242
 4927TIP3   OH236195   6.540   5.988   2.838 -0.4036 -0.3729  0.2952
 4927TIP3    H136196   6.520   5.903   2.875 -0.9079  0.0875  1.0861
 4927TIP3    H236197   6.599   6.029   2.901 -0.1291 -0.1427 -0.1002
 4928TIP3   OH236198   5.964   5.114   6.287 -0.0778 -0.0978 -0.4753
 4928TIP3    H136199   5.946   5.114   6.193  3.0899  4.1472 -1.3919
 4928TIP3    H236200   6.035   5.050   6.298  0.8135  0.7215 -1.3670
 4929TIP3   OH236201   2.058   5.753  15.845 -0.3967  0.3543 -0.2854
 4929TIP3    H136202   1.968   5.783  15.846 -0.7925 -0.2735 -3.8846
 4929TIP3    H236203   2.104   5.815  15.789  1.4559  0.6155  1.4002
 4930TIP3   OH236204   6.498   5.269  12.319  0.2772  0.2691  0.7162
 4930TIP3    H136205   6.489   5.174  12.327 -0.8297  0.2722 -0.2246
 4930TIP3    H236206   6.486   5.303  12.407  0.5997 -0.4475  1.0454
 4931TIP3   OH236207   4.352   3.499   1.234  0.3463  0.1286  0.0320
 4931TIP3    H136208   4.290   3.447   1.286  2.3368 -2.7858 -0.2769
 4931TIP3    H236209   4.415   3.532   1.298 -0.5415  1.7030  0.1385
 4932TIP3   OH236210   2.891   6.554  11.132  0.2682  0.3029  0.0817
 4932TIP3    H136211   2.901   6.498  11.210 -1.2867  0.4662  0.4256
 4932TIP3    H236212   2.917   6.641  11.162  1.7774 -0.0235 -0.1974
 4933TIP3   OH236213   5.711   3.067   3.493  0.1266 -0.2214  0.0008
 4933TIP3    H136214   5.707   3.158   3.522  1.2515 -0.3477  0.5844
 4933TIP3    H236215   5.764   3.070   3.413 -1.1129 -0.1783 -0.8525
 4934TIP3   OH236216   2.669   4.840   3.065 -0.3575  0.4957  0.4191
 4934TIP3    H136217   2.583   4.881   3.058 -1.3846 -1.5624  0.2983
 4934TIP3    H236218   2.660   4.777   3.136  0.6537 -0.6099 -0.3836
 4935TIP3   OH236219   6.508   4.417   2.098  0.6337 -0.0377 -0.2449
 4935TIP3    H136220   6.425   4.449   2.133 -0.0203  0.3867 -2.0902
 4935TIP3    H236221   6.498   4.323   2.093  1.4659 -0.3653  2.4083
 4936TIP3   OH236222   0.376   6.049   6.374 -0.1195  0.5293 -0.1983
 4936TIP3    H136223   0.448   6.011   6.424 -0.2504  0.4784 -0.0431
 4936TIP3    H236224   0.297   6.013   6.416 -0.3373  2.5576  1.3192
 4937TIP3   OH236225   1.806   1.124  13.836  0.6837 -0.2869 -0.0144
 4937TIP3    H136226   1.901   1.119  13.826  0.6142 -3.0740  0.0432
 4937TIP3    H236227   1.787   1.218  13.843  3.2090  0.4661 -1.9377
 4938TIP3   OH236228   6.620   1.743  14.332 -0.2213 -0.3479 -0.2499
 4938TIP3    H136229   6.637   1.812  14.396  2.2514 -1.3209  0.2442
 4938TIP3    H236230   6.529   1.758  14.305 -0.4664  1.7493  1.4313
 4939TIP3   OH236231   4.566   1.551  15.933 -0.8616 -0.0190  0.3130
 4939TIP3    H136232   4.591   1.627  15.985 -2.4711  2.0454 -1.6928
 4939TIP3    H236233   4.640   1.491  15.940  0.5319  1.7655  1.8905
 4940TIP3   OH236234   1.348   6.462  16.993  0.0578  0.0596 -0.2285
 4940TIP3    H136235   1.349   6.554  17.020 -2.7229  0.4522 -1.1148
 4940TIP3    H236236   1.350   6.466  16.897  3.1909 -1.0321 -0.3229
 4941TIP3   OH236237   5.040   1.533  15.991 -0.3935  0.2557  0.2514
 4941TIP3    H136238   5.060   1.516  16.083 -0.1741 -1.7213 -0.1191
 4941TIP3    H236239   5.089   1.612  15.971  2.2149 -1.0441  1.0117
 4942TIP3   OH236240   2.648   6.306   0.807 -0.0703 -0.8508  1.0735
 4942TIP3    H136241   2.676   6.397   0.809  0.6242 -1.0171  0.0412
 4942TIP3    H236242   2.585   6.298   0.878 -1.4526  0.8433  0.0930
 4943TIP3   OH236243   6.470   5.770   2.271 -0.0219  0.6007 -0.1327
 4943TIP3    H136244   6.428   5.829   2.208  0.1835  0.0270 -0.8349
 4943TIP3    H236245   6.564   5.787   2.261  0.3331 -2.0799 -2.7885
 4944TIP3   OH236246   2.697   3.340  17.377 -0.6522  0.1737  0.1369
 4944TIP3    H136247   2.675   3.318  17.468 -0.2403 -0.2417  0.1390
 4944TIP3    H236248   2.641   3.415  17.356  2.7864  3.8603  2.4621
 4945TIP3   OH236249   4.161   5.044   2.595 -0.1640 -0.5653 -0.2075
 4945TIP3    H136250   4.160   5.059   2.689  0.4272 -0.7126 -0.1742
 4945TIP3    H236251   4.086   5.093   2.562  0.6123  0.9191  0.1298
 4946TIP3   OH236252   4.623   6.233  15.382  0.2729 -0.0423 -0.4437
 4946TIP3    H136253   4.552   6.293  15.402  0.2884  0.4374 -1.7274
 4946TIP3    H236254   4.701   6.273  15.420  0.2891  0.7961 -1.3189
 4947TIP3   OH236255   5.447   3.987   1.474 -0.1075 -0.1739 -0.3617
 4947TIP3    H136256   5.457   4.082   1.479 -1.6272 -0.0573  1.0777
 4947TIP3    H236257   5.528   3.952   1.511 -0.6518  0.6054  1.6503
 4948TIP3   OH236258   2.115   5.022  15.417  0.6216 -0.0994 -0.1681
 4948TIP3    H136259   2.162   4.950  15.376  2.9187  1.1926 -0.0211
 4948TIP3    H236260   2.069   4.983  15.491  3.0811 -1.2087  0.8664
 4949TIP3   OH236261   5.782   4.464   2.418  0.1021 -0.1914 -0.0537
 4949TIP3    H136262   5.822   4.528   2.477 -0.1502  0.5389 -0.6518
 4949TIP3    H236263   5.690   4.461   2.445  0.0684 -0.1395 -0.1636
 4950TIP3   OH236264   1.289   6.072  15.116  0.3550 -0.2037 -0.6866
 4950TIP3    H136265   1.369   6.067  15.065  1.1093  3.5917 -0.1666
 4950TIP3    H236266   1.296   6.155  15.164 -2.5310 -1.1875  1.7489
 4951TIP3   OH236267   3.040   0.403  15.391 -0.7491  0.5906 -0.5823
 4951TIP3    H136268   3.076   0.491  15.384 -2.1815  1.2313 -0.1670
 4951TIP3    H236269   3.101   0.348  15.341  1.5884  1.3580  1.2426
 4952TIP3   OH236270   3.894   4.667  13.166  0.2464  0.0813  0.2086
 4952TIP3    H136271   3.948   4.702  13.095  0.6739  0.1109  0.5439
 4952TIP3    H236272   3.911   4.725  13.240 -0.4699  0.2613  0.2354
 4953TIP3   OH236273   0.542   4.355   0.536 -0.1724  0.4646 -0.1735
 4953TIP3    H136274   0.559   4.388   0.624  0.3353 -2.1268  0.7863
 4953TIP3    H236275   0.447   4.362   0.525 -0.3911 -0.2885  1.0767
 4954TIP3   OH236276   2.914   5.156  14.203  0.0167 -0.1767 -0.3868
 4954TIP3    H136277   2.915   5.193  14.292  0.4284  2.2458 -1.3153
 4954TIP3    H236278   2.950   5.068  14.213  0.5259  0.2149  1.7756
 4955TIP3   OH236279   1.433   2.470  11.128 -0.7195 -0.0510 -0.7211
 4955TIP3    H136280   1.450   2.512  11.044  1.9965 -0.1082 -0.2905
 4955TIP3    H236281   1.519   2.468  11.172 -1.9694 -0.3107  1.9216
 4956TIP3   OH236282   2.638   2.789   3.826 -0.4006 -0.0154 -1.0777
 4956TIP3    H136283   2.611   2.702   3.798  1.9892 -1.3429  0.4439
 4956TIP3    H236284   2.568   2.819   3.884 -0.6743 -1.4805 -0.6241
 4957TIP3   OH236285   5.488   5.270   2.465 -0.1338 -0.3156 -0.7010
 4957TIP3    H136286   5.541   5.202   2.507  1.7314  0.4797 -1.6686
 4957TIP3    H236287   5.528   5.282   2.379 -2.4739 -0.3118 -1.8586
 4958TIP3   OH236288   0.185   6.298   2.411  0.1855  0.0194 -0.2386
 4958TIP3    H136289   0.247   6.238   2.372  1.0512  0.8968 -0.2500
 4958TIP3    H236290   0.217   6.312   2.500 -0.7434 -0.5330  0.2014
 4959TIP3   OH236291   5.431   4.963  16.202  0.0424  0.1538 -0.2998
 4959TIP3    H136292   5.490   4.945  16.275 -0.9178  0.8477  0.6751
 4959TIP3    H236293   5.391   4.878  16.182 -2.8453  0.5674  2.8357
 4960TIP3   OH236294   2.821   4.130  12.874 -0.4896  0.3664 -0.3580
 4960TIP3    H136295   2.781   4.066  12.816  0.6932 -1.3383  0.6100
 4960TIP3    H236296   2.759   4.139  12.946 -0.1618 -0.6242  0.0720
 4961TIP3   OH236297   3.908   0.642   4.442 -0.3325 -0.2900 -0.7210
 4961TIP3    H136298   3.971   0.689   4.497 -0.4180 -0.0499 -0.8256
 4961TIP3    H236299   3.881   0.568   4.496 -0.3233 -0.1261 -0.4850
 4962TIP3   OH236300   1.944   0.658   3.293  0.3791 -0.8154 -0.3373
 4962TIP3    H136301   2.014   0.702   3.342 -0.2995 -0.7959  0.6607
 4962TIP3    H236302   1.958   0.565   3.309 -0.4847 -0.7653  0.8503
 4963TIP3   OH236303   3.558   2.421  15.853  0.3181 -0.1217 -0.1403
 4963TIP3    H136304   3.489   2.485  15.839  0.1254 -0.1744  0.5410
 4963TIP3    H236305   3.606   2.454  15.929 -0.1119 -1.0518  0.5610
 4964TIP3   OH236306   3.529   2.034  12.005 -0.4299 -0.8437  0.2079
 4964TIP3    H136307   3.519   2.103  11.939 -3.3673 -1.3553 -0.0237
 4964TIP3    H236308   3.600   1.980  11.971  1.4133  1.5522 -0.0070
 4965TIP3   OH236309   6.374   3.580   5.820 -0.0794  0.5965 -0.1168
 4965TIP3    H136310   6.347   3.595   5.730  0.3888 -1.5360 -0.6694
 4965TIP3    H236311   6.309   3.518   5.854  0.8005 -0.0823  0.3737
 4966TIP3   OH236312   4.736   3.383  17.352 -0.1852 -0.1306  0.3276
 4966TIP3    H136313   4.698   3.453  17.404 -3.1849 -1.4511  0.0931
 4966TIP3    H236314   4.715   3.407  17.261 -2.5514 -1.9176  0.3170
 4967TIP3   OH236315   6.319   1.221   0.058 -0.5558  0.0374  0.5251
 4967TIP3    H136316   6.228   1.209   0.083 -1.1760  0.2509 -1.5083
 4967TIP3    H236317   6.331   1.167  -0.020  1.0650  0.0168  0.7406
 4968TIP3   OH236318   5.532   4.408   1.846 -0.2466 -0.6125 -0.0466
 4968TIP3    H136319   5.623   4.417   1.821 -0.6976 -1.9795 -2.4697
 4968TIP3    H236320   5.535   4.361   1.930  1.2362 -0.0770  0.2334
 4969TIP3   OH236321   4.109   4.883   5.909  0.3871  0.3955  0.0204
 4969TIP3    H136322   4.148   4.833   5.837  0.4675  0.4555  0.0221
 4969TIP3    H236323   4.172   4.874   5.980 -0.9818 -2.0339  1.0357
 4970TIP3   OH236324   4.880   5.106  17.175  0.1284 -0.7170 -0.1031
 4970TIP3    H136325   4.881   5.161  17.097  1.2130 -0.7125 -0.1103
 4970TIP3    H236326   4.969   5.112  17.209  0.0216 -1.7479  0.4021
 4971TIP3   OH236327   3.490   0.627   0.965  0.2340  0.2001  0.0019
 4971TIP3    H136328   3.532   0.541   0.962  2.7036  1.3368  0.0971
 4971TIP3    H236329   3.469   0.641   1.057 -0.9515 -0.5952 -0.1168
 4972TIP3   OH236330   0.639   4.860   3.024  0.6462 -0.0157  0.7520
 4972TIP3    H136331   0.733   4.863   3.042  0.3152  1.2799  2.5876
 4972TIP3    H236332   0.620   4.942   2.979  0.8777 -1.7700 -2.9173
 4973TIP3   OH236333   3.366   6.665   5.666 -0.1489 -0.2478 -0.0667
 4973TIP3    H136334   3.301   6.682   5.598  0.0052  0.5482 -0.0325
 4973TIP3    H236335   3.321   6.690   5.748 -0.1068 -0.5606  0.0519
 4974TIP3   OH236336   4.661   5.546   0.750 -0.0892 -0.2431  0.2146
 4974TIP3    H136337   4.577   5.568   0.711  0.7861 -2.8330 -3.7410
 4974TIP3    H236338   4.726   5.580   0.688  1.6569 -0.9729  1.5535
 4975TIP3   OH236339   3.067   3.873   2.153 -0.2977 -0.4180  0.5756
 4975TIP3    H136340   3.017   3.890   2.073 -1.1432  0.7815  1.3132
 4975TIP3    H236341   3.044   3.946   2.211  0.5420 -1.0880  1.7966
 4976TIP3   OH236342   3.631   3.380  17.231 -0.1940  0.0252 -0.2966
 4976TIP3    H136343   3.553   3.392  17.285 -0.8291  1.9014 -1.5165
 4976TIP3    H236344   3.620   3.443  17.159  1.4919 -1.0792 -1.5964
 4977TIP3   OH236345   4.661   0.826   0.728 -0.0052 -0.2248 -0.6850
 4977TIP3    H136346   4.601   0.755   0.749  0.4693 -0.5101 -0.2903
 4977TIP3    H236347   4.695   0.804   0.641 -1.4056  0.5810 -1.4865
 4978TIP3   OH236348   5.738   5.346   1.413 -0.0454 -0.3946 -0.1456
 4978TIP3    H136349   5.823   5.390   1.408  0.1049 -0.7907 -1.5683
 4978TIP3    H236350   5.699   5.359   1.327 -1.8559  0.5579  0.7607
 4979TIP3   OH236351   6.390   3.021   4.624 -0.1598 -0.0641  0.3703
 4979TIP3    H136352   6.363   3.045   4.712 -0.4565  0.8732  0.0357
 4979TIP3    H236353   6.408   3.105   4.580  0.1625 -0.5219 -0.4020
 4980TIP3   OH236354   3.511   3.279   2.322  0.4386  0.3319  0.7607
 4980TIP3    H136355   3.465   3.262   2.405 -0.5412  1.7525  0.5403
 4980TIP3    H236356   3.478   3.212   2.262 -1.6861  1.5217  0.5110
 4981TIP3   OH236357   4.258   6.432   0.508 -0.2713  1.1248 -0.3047
 4981TIP3    H136358   4.312   6.354   0.495  0.8600  1.8279  0.0482
 4981TIP3    H236359   4.229   6.456   0.420  1.1523  1.5231 -0.6973
 4982TIP3   OH236360   1.185   4.325   3.886  0.1975  0.1878 -0.4038
 4982TIP3    H136361   1.168   4.387   3.816 -0.2777  1.6390  0.9597
 4982TIP3    H236362   1.098   4.296   3.915  0.3669  0.0959  0.0216
 4983TIP3   OH236363   0.211   1.896   0.531 -0.1896 -0.3592  0.6819
 4983TIP3    H136364   0.165   1.822   0.491  1.8276 -1.7979  0.8830
 4983TIP3    H236365   0.190   1.971   0.475 -1.4141 -1.3028 -0.1580
 4984TIP3   OH236366   0.529   6.587   6.648  0.3780  0.1489 -0.4805
 4984TIP3    H136367   0.452   6.638   6.674 -0.1245  0.3040 -2.1248
 4984TIP3    H236368   0.597   6.652   6.633  0.0051  0.2778 -1.6899
 4985TIP3   OH236369   1.258   5.860   0.486  0.5235  0.8510 -0.6348
 4985TIP3    H136370   1.197   5.894   0.420  1.5671  0.6988 -1.7112
 4985TIP3    H236371   1.344   5.873   0.447  1.2791  1.9767  1.2638
 4986TIP3   OH236372   3.222   3.548   5.764 -0.2651  0.0912 -0.1126
 4986TIP3    H136373   3.311   3.560   5.798 -0.1226 -0.8183 -0.1306
 4986TIP3    H236374   3.211   3.453   5.760 -1.2134  0.1963 -0.1851
 4987TIP3   OH236375   1.037   4.221  12.922 -0.2858 -0.1111  0.0847
 4987TIP3    H136376   1.031   4.162  12.996 -0.7579  0.8348  0.8224
 4987TIP3    H236377   1.100   4.288  12.949 -1.3937  0.9366  0.1569
 4988TIP3   OH236378   1.656   4.257  14.451 -0.7806  0.1426 -0.4833
 4988TIP3    H136379   1.574   4.292  14.415 -1.5152 -1.1487 -0.1530
 4988TIP3    H236380   1.630   4.176  14.496  0.8031 -0.8017 -1.1578
 4989TIP3   OH236381   4.882   2.122   0.997 -0.1667  0.1920 -0.4935
 4989TIP3    H136382   4.835   2.200   0.970  1.2315  1.0438 -0.5765
 4989TIP3    H236383   4.929   2.094   0.918  0.5636  0.1833 -0.0652
 4990TIP3   OH236384   4.427   3.415   5.170 -0.2356  0.1840 -0.1794
 4990TIP3    H136385   4.458   3.411   5.079 -0.2792  1.3419 -0.2543
 4990TIP3    H236386   4.504   3.441   5.220 -0.3427  0.0478  0.0559
 4991TIP3   OH236387   1.474   1.666   0.123 -0.3022  0.1482  0.0082
 4991TIP3    H136388   1.567   1.659   0.146 -0.6878 -0.6244  1.4087
 4991TIP3    H236389   1.432   1.595   0.170 -1.8160  1.3116  0.5099
 4992TIP3   OH236390   4.668   3.076  16.871  0.1104 -0.6109 -0.5221
 4992TIP3    H136391   4.583   3.120  16.868  0.4688  0.1426 -0.0447
 4992TIP3    H236392   4.654   3.001  16.929 -0.0539 -0.0755  0.1453
 4993TIP3   OH236393   6.027   5.853  14.416 -0.2170  0.4225 -0.4941
 4993TIP3    H136394   6.112   5.867  14.375  0.6048  0.6762  1.1979
 4993TIP3    H236395   6.021   5.758  14.425  0.6207  0.4528  0.7427
 4994TIP3   OH236396   6.395   5.564  15.692 -0.4443 -0.7746 -0.4926
 4994TIP3    H136397   6.476   5.517  15.713 -0.3375 -0.9223 -1.2007
 4994TIP3    H236398   6.424   5.639  15.641 -0.6937 -0.4211 -0.1136
 4995TIP3   OH236399   1.337   1.534   1.420 -1.0666  0.5427  0.5736
 4995TIP3    H136400   1.427   1.565   1.427 -0.8315 -0.3120  1.4891
 4995TIP3    H236401   1.284   1.613   1.432 -0.5072  0.5593  3.9305
 4996TIP3   OH236402   4.906   4.232   3.877  0.2389 -0.2358 -0.2915
 4996TIP3    H136403   4.828   4.207   3.927  1.0099 -2.3374 -0.0383
 4996TIP3    H236404   4.871   4.267   3.794 -0.9989  1.7356  0.9643
 4997TIP3   OH236405   4.708   2.801  13.289 -0.0889 -0.1278  0.2472
 4997TIP3    H136406   4.655   2.871  13.328  0.0934  0.3959 -0.4329
 4997TIP3    H236407   4.736   2.836  13.205  2.2262  0.0312  1.0170
 4998TIP3   OH236408   2.435   2.133   0.380 -0.1241  0.1715 -0.2382
 4998TIP3    H136409   2.384   2.055   0.404 -0.6730  0.8068  0.7639
 4998TIP3    H236410   2.369   2.200   0.363  0.3513  0.7953  0.3184
 4999TIP3   OH236411   5.855   4.347   5.272 -0.5907 -0.2097  0.0068
 4999TIP3    H136412   5.833   4.414   5.206 -0.0410  0.8935  0.8991
 4999TIP3    H236413   5.835   4.264   5.230  0.7031  0.3934 -1.9527
 5000TIP3   OH236414   4.247   4.076   3.753  0.5068 -0.1405 -0.4038
 5000TIP3    H136415   4.237   4.161   3.710 -0.8085  0.7532  1.5296
 5000TIP3    H236416   4.159   4.054   3.785  1.2268 -1.1816  1.0013
 5001TIP3   OH236417   4.577   1.346  17.024  0.0584 -0.0057 -0.0735
 5001TIP3    H136418   4.592   1.423  16.970 -0.9207  0.1978 -0.0802
 5001TIP3    H236419   4.561   1.381  17.112 -1.5465 -0.0841 -0.2944
 5002TIP3   OH236420   1.879   2.355   1.197 -0.1312  0.0024  0.3716
 5002TIP3    H136421   1.841   2.301   1.128  0.4468 -1.8946  1.4527
 5002TIP3    H236422   1.949   2.300   1.234 -1.5820  0.1642  3.6647
 5003TIP3   OH236423   5.655   1.165  14.384 -0.2765 -0.5154 -0.3879
 5003TIP3    H136424   5.661   1.181  14.478  0.9648 -1.1468 -0.3358
 5003TIP3    H236425   5.573   1.207  14.358 -1.4364 -1.6283  1.2319
 5004TIP3   OH236426   2.961   3.986  13.785 -0.8622  0.4358  0.3493
 5004TIP3    H136427   2.994   3.902  13.752  1.7987  1.9622 -1.2727
 5004TIP3    H236428   2.870   3.989  13.758 -0.9855 -1.8540  0.3483
 5005TIP3   OH236429   5.432   4.302  14.960  0.0455  0.1487  0.1153
 5005TIP3    H136430   5.375   4.227  14.973 -1.4086  1.1486 -0.1849
 5005TIP3    H236431   5.482   4.308  15.042 -0.4842 -0.5948  0.5117
 5006TIP3   OH236432   1.609   2.832  15.565 -0.1574 -0.0938  0.0655
 5006TIP3    H136433   1.638   2.801  15.651  0.6429  0.0258 -0.1461
 5006TIP3    H236434   1.541   2.771  15.538  0.0056 -0.4847  0.5290
 5007TIP3   OH236435   0.937   5.676   6.292  0.2258 -0.1874 -0.3244
 5007TIP3    H136436   0.976   5.643   6.211  0.9310 -0.1530 -0.0056
 5007TIP3    H236437   0.843   5.673   6.276  0.3161 -1.1717 -0.7659
 5008TIP3   OH236438   2.686   6.408  16.220 -0.5972  0.2160  0.3510
 5008TIP3    H136439   2.611   6.406  16.280  1.2751  1.8785  2.9386
 5008TIP3    H236440   2.713   6.316  16.214 -1.2715 -0.0945  1.5300
 5009TIP3   OH236441   3.407   1.796   3.679  1.0778 -0.5344  0.1057
 5009TIP3    H136442   3.327   1.795   3.730  2.1189  0.2001  1.8264
 5009TIP3    H236443   3.384   1.752   3.597 -1.3266  0.5451  0.1226
 5010TIP3   OH236444   0.031   3.487  16.043  0.1386  0.4318  0.4045
 5010TIP3    H136445   0.018   3.510  15.951 -1.1691 -0.5000  0.3303
 5010TIP3    H236446  -0.031   3.542  16.091  0.6078  0.7019  0.7212
 5011TIP3   OH236447   3.873   0.712  14.253  0.3165  0.8501 -0.3567
 5011TIP3    H136448   3.935   0.783  14.270 -0.0916  0.9561  0.7888
 5011TIP3    H236449   3.797   0.734  14.307  0.9261 -1.4431  1.6430
 5012TIP3   OH236450   1.105   4.821  17.137 -0.8049 -0.0367 -0.2234
 5012TIP3    H136451   1.149   4.905  17.150 -2.4345  0.8011  0.1748
 5012TIP3    H236452   1.116   4.776  17.221 -1.6856  0.6703  0.2964
 5013TIP3   OH236453   5.498   3.594  16.104  0.0027 -0.1585  0.1513
 5013TIP3    H136454   5.498   3.688  16.121  0.6747 -0.6412  3.5381
 5013TIP3    H236455   5.585   3.565  16.129 -0.3117 -1.7673 -0.4695
 5014TIP3   OH236456   0.642   2.739  14.127 -0.3856 -0.1046  0.8236
 5014TIP3    H136457   0.598   2.782  14.053  0.5174  1.7475  1.3060
 5014TIP3    H236458   0.735   2.744  14.105 -0.2361 -1.5168  1.0819
 5015TIP3   OH236459   3.087   5.426  16.465  0.5732 -0.3939  0.5349
 5015TIP3    H136460   3.010   5.372  16.446  0.3045 -0.7511  2.4757
 5015TIP3    H236461   3.161   5.371  16.441  0.3587  0.8080 -3.6755
 5016TIP3   OH236462   3.836   1.830  16.103 -0.0395 -0.4682 -0.1036
 5016TIP3    H136463   3.913   1.881  16.130 -0.1328  1.3443 -2.8945
 5016TIP3    H236464   3.868   1.774  16.033 -1.5085  1.6403 -2.6026
 5017TIP3   OH236465   3.215   5.050   1.992  0.1069 -0.1506 -0.2399
 5017TIP3    H136466   3.165   4.971   1.973  1.5970 -1.2717  0.2040
 5017TIP3    H236467   3.232   5.090   1.907  3.5157 -3.0591 -1.1608
 5018TIP3   OH236468   4.646   0.995   3.456 -0.1510  0.1408 -0.1056
 5018TIP3    H136469   4.633   1.070   3.397 -0.1483 -0.3869 -0.7995
 5018TIP3    H236470   4.599   1.018   3.536 -1.0034  0.4576 -0.6857
 5019TIP3   OH236471   1.748   1.697   0.178  0.1298 -0.5692  0.5233
 5019TIP3    H136472   1.811   1.719   0.247  0.5352 -0.4505  0.1216
 5019TIP3    H236473   1.748   1.601   0.175 -1.4236 -0.6622  2.0798
 5020TIP3   OH236474   2.629   4.083  14.073  0.1428 -0.0301 -0.1163
 5020TIP3    H136475   2.706   4.041  14.113 -0.1735 -0.8392 -0.3376
 5020TIP3    H236476   2.590   4.015  14.018 -0.7244  0.3839 -0.0309
 5021TIP3   OH236477   1.855   2.425   6.162 -0.0352 -0.1624 -0.0263
 5021TIP3    H136478   1.871   2.391   6.250 -0.4190 -1.1198 -0.3107
 5021TIP3    H236479   1.787   2.367   6.126 -0.5491  0.7869 -0.6176
 5022TIP3   OH236480   0.356   1.106  13.571  0.2000 -0.2374 -0.1583
 5022TIP3    H136481   0.321   1.082  13.485  0.2007  1.9522 -0.8568
 5022TIP3    H236482   0.446   1.132  13.554 -0.0188  0.9276  0.3375
 5023TIP3   OH236483   0.638   4.487   2.307  0.1252  0.1723 -0.2467
 5023TIP3    H136484   0.637   4.499   2.212 -0.5347 -0.3813 -0.3105
 5023TIP3    H236485   0.728   4.510   2.332  0.1135  1.0060 -0.9065
 5024TIP3   OH236486   1.718   4.381  11.668 -0.4170  0.0806  0.4756
 5024TIP3    H136487   1.703   4.292  11.698 -2.0123  0.5129  1.1039
 5024TIP3    H236488   1.762   4.372  11.583 -1.3116 -1.3312  0.1320
 5025TIP3   OH236489   1.793   4.711  14.774 -0.4105 -0.4666 -0.3952
 5025TIP3    H136490   1.813   4.617  14.775 -1.7766 -0.7732 -0.8479
 5025TIP3    H236491   1.726   4.722  14.841  0.1581  0.3049  0.0666
 5026TIP3   OH236492   0.731   1.961   3.100 -0.1567  0.4291  0.0574
 5026TIP3    H136493   0.787   1.964   3.023 -0.5694 -1.4633 -0.3666
 5026TIP3    H236494   0.791   1.965   3.174  0.3329  0.9912 -0.3626
 5027TIP3   OH236495   3.534   4.712  15.582  0.4723  0.1600  0.6845
 5027TIP3    H136496   3.500   4.781  15.525  0.0262  0.3217  1.1362
 5027TIP3    H236497   3.586   4.656  15.525  0.3498  0.5405  0.1998
 5028TIP3   OH236498   3.776   1.861   2.905 -0.1383 -0.3256  0.0625
 5028TIP3    H136499   3.782   1.842   2.999 -0.1473  0.9632  0.3381
 5028TIP3    H236500   3.688   1.832   2.881  0.7112 -3.0363 -0.1557
 5029TIP3   OH236501   1.971   6.138  11.318 -0.1244  0.4264  0.1092
 5029TIP3    H136502   1.880   6.106  11.315  0.0835 -0.0880 -1.7064
 5029TIP3    H236503   1.968   6.224  11.276  0.6049 -0.7154 -2.4577
 5030TIP3   OH236504   0.040   2.237   6.069 -0.1506 -0.0743  0.6613
 5030TIP3    H136505   0.132   2.222   6.091  0.2721 -0.1305 -0.9723
 5030TIP3    H236506   0.002   2.149   6.068  0.0526 -0.1611  0.2752
 5031TIP3   OH236507   6.264   4.055   0.151  0.3958 -0.3014 -0.2543
 5031TIP3    H136508   6.264   3.989   0.082  0.7368  0.0547 -0.5993
 5031TIP3    H236509   6.181   4.042   0.196  1.0005 -1.8161  0.5079
 5032TIP3   OH236510   6.627   4.697  12.534 -0.7546  0.7269 -0.6144
 5032TIP3    H136511   6.535   4.670  12.534 -0.9651  1.4178 -1.2820
 5032TIP3    H236512   6.676   4.617  12.555 -1.4109  0.0164 -1.7241
 5033TIP3   OH236513   0.562   5.541  12.068 -0.3099 -0.0954 -0.2958
 5033TIP3    H136514   0.625   5.473  12.091  0.4527  0.9390  0.7512
 5033TIP3    H236515   0.497   5.539  12.138 -0.2740  0.2608 -0.2492
 5034TIP3   OH236516   1.607   3.283   5.250  0.5927  0.2515 -0.2354
 5034TIP3    H136517   1.579   3.278   5.159  0.3843  0.0870 -0.1622
 5034TIP3    H236518   1.664   3.360   5.253  1.6853 -0.5165 -0.7885
 5035TIP3   OH236519   3.661   2.046  17.442  0.3443 -0.1687  0.2648
 5035TIP3    H136520   3.666   1.951  17.454 -0.3440 -0.0179  1.8944
 5035TIP3    H236521   3.747   2.070  17.407  0.1257 -1.5265 -1.3748
 5036TIP3   OH236522   1.097   5.652   4.165 -0.4322 -0.2694  0.8212
 5036TIP3    H136523   1.157   5.619   4.232 -0.0438  0.1721  0.6933
 5036TIP3    H236524   1.010   5.632   4.199 -0.2189 -1.0459  0.9410
 5037TIP3   OH236525   0.653   0.450  13.683  0.3592  0.1940 -0.4562
 5037TIP3    H136526   0.738   0.484  13.711  1.4933 -1.4047 -1.7653
 5037TIP3    H236527   0.614   0.522  13.634  0.4852  1.2923  0.9723
 5038TIP3   OH236528   1.802   3.541   6.563 -0.0307 -0.9115  0.0161
 5038TIP3    H136529   1.787   3.462   6.511 -0.3290 -0.2855 -0.8677
 5038TIP3    H236530   1.795   3.511   6.653 -0.2711 -1.8709 -0.3023
 5039TIP3   OH236531   2.624   0.750   4.938  0.3886 -0.1725  0.2026
 5039TIP3    H136532   2.702   0.785   4.982  0.0166  0.3654  0.4561
 5039TIP3    H236533   2.654   0.670   4.896  1.2140  0.3310 -0.1906
 5040TIP3   OH236534   5.705   4.541   4.775 -0.7144 -0.1374  0.4329
 5040TIP3    H136535   5.736   4.486   4.846  0.8334 -0.5838 -0.5328
 5040TIP3    H236536   5.739   4.628   4.796  1.2945 -0.6166 -0.5993
 5041TIP3   OH236537   5.465   6.552  15.643 -0.0760  0.3216 -0.1054
 5041TIP3    H136538   5.543   6.584  15.687 -1.8637  1.2894  2.5944
 5041TIP3    H236539   5.497   6.485  15.583  2.8593  1.2051  0.3311
 5042TIP3   OH236540   5.719   1.209   2.676  0.0019  0.2258 -0.3126
 5042TIP3    H136541   5.777   1.151   2.628  0.3409  0.1085  0.2249
 5042TIP3    H236542   5.638   1.159   2.688 -0.6353  0.7892 -2.0173
 5043TIP3   OH236543   5.142   0.939  15.215  0.4426 -0.0812 -0.6982
 5043TIP3    H136544   5.107   0.856  15.246 -0.5804  0.6887  0.2887
 5043TIP3    H236545   5.104   1.004  15.273  1.9714  1.0010 -0.8563
 5044TIP3   OH236546   2.737   6.323  13.868  0.7696  0.2441 -0.3690
 5044TIP3    H136547   2.645   6.347  13.882  0.8079  1.0790 -1.4180
 5044TIP3    H236548   2.784   6.362  13.942  0.4436  0.9611 -0.5315
 5045TIP3   OH236549   1.823   0.389  11.986 -0.3409  0.1280  0.1939
 5045TIP3    H136550   1.750   0.411  11.928 -1.1066  0.8589  1.3880
 5045TIP3    H236551   1.791   0.410  12.074  1.7288  1.6370  0.6634
 5046TIP3   OH236552   2.290   5.735   5.418 -0.6410  1.0926 -0.4880
 5046TIP3    H136553   2.238   5.655   5.429 -1.0572  1.2189 -1.3633
 5046TIP3    H236554   2.361   5.727   5.481 -2.2150  1.3282  1.4324
 5047TIP3   OH236555   5.437   0.815   2.434 -0.7900 -0.1079  0.3568
 5047TIP3    H136556   5.392   0.777   2.359 -0.8381 -1.2754  0.9593
 5047TIP3    H236557   5.467   0.740   2.485  2.7405  0.5469 -0.5195
 5048TIP3   OH236558   1.435   4.546   3.603  0.3860  0.1459  0.4647
 5048TIP3    H136559   1.354   4.516   3.643  0.3433  2.0400  1.9477
 5048TIP3    H236560   1.502   4.529   3.670  0.9387  0.0616 -0.1016
 5049TIP3   OH236561   2.358   6.482  11.546 -0.9181 -0.0310 -0.1346
 5049TIP3    H136562   2.368   6.569  11.584 -2.7477 -0.5613  1.7687
 5049TIP3    H236563   2.270   6.483  11.507 -0.4576 -0.6556 -1.2495
 5050TIP3   OH236564   6.032   1.637   0.845  0.6476  0.2201 -0.0393
 5050TIP3    H136565   5.964   1.673   0.787  0.5613  3.6884  1.9295
 5050TIP3    H236566   5.983   1.600   0.918  0.7734  1.4722  0.7123
 5051TIP3   OH236567   1.566   2.699  15.838 -0.7404  0.1722  0.2351
 5051TIP3    H136568   1.590   2.703  15.930  0.9695 -1.0993 -0.1106
 5051TIP3    H236569   1.502   2.769  15.827  0.0105  1.2222  2.0822
 5052TIP3   OH236570   6.661   4.029   1.891  0.2061  0.0365 -0.2869
 5052TIP3    H136571   6.705   3.949   1.919 -0.6562 -0.5684 -0.6017
 5052TIP3    H236572   6.621   4.006   1.807 -1.6914  0.1791  0.5309
 5053TIP3   OH236573   0.897   3.600   3.688  0.3291  0.6944  0.2047
 5053TIP3    H136574   0.874   3.680   3.641  0.6480  1.0243  0.6031
 5053TIP3    H236575   0.924   3.539   3.620 -1.0792  0.5079 -0.2297
 5054TIP3   OH236576   3.070   6.737  12.328  0.4354 -0.4446 -0.2455
 5054TIP3    H136577   3.157   6.702  12.308 -0.4282 -1.3746 -2.6980
 5054TIP3    H236578   3.016   6.659  12.343 -0.5022  0.0094 -1.1908
 5055TIP3   OH236579   2.857   5.894  15.617  0.3929  0.2892 -0.2119
 5055TIP3    H136580   2.885   5.803  15.626  0.6532  0.4286  0.4833
 5055TIP3    H236581   2.929   5.945  15.655  0.6812  0.8438 -1.4595
 5056TIP3   OH236582   2.930   2.568   2.338 -0.6592  0.3264  0.3951
 5056TIP3    H136583   2.927   2.494   2.398 -1.8720  0.3236  0.3595
 5056TIP3    H236584   2.961   2.531   2.256 -0.7949 -0.0549  0.5114
 5057TIP3   OH236585   4.949   2.660   6.013  0.4028  0.3836  0.7253
 5057TIP3    H136586   4.982   2.693   6.096  0.4005  2.5120 -0.0608
 5057TIP3    H236587   5.026   2.654   5.957  0.4153 -1.1081  0.8634
 5058TIP3   OH236588   1.310   5.531   3.599  0.5596  0.0900  0.6982
 5058TIP3    H136589   1.366   5.484   3.660 -0.1328  0.5832  1.7432
 5058TIP3    H236590   1.339   5.622   3.605 -0.0350  0.2730  0.9094
 5059TIP3   OH236591   0.396   1.050  13.852  0.1997  0.5784  0.2876
 5059TIP3    H136592   0.397   0.959  13.820 -0.7147  1.0752 -1.2887
 5059TIP3    H236593   0.412   1.102  13.773 -0.9293  1.8411  0.8572
 5060TIP3   OH236594   3.716   5.754  14.465 -0.0568 -0.3333  0.6102
 5060TIP3    H136595   3.792   5.695  14.464  0.1980 -0.0540  1.8483
 5060TIP3    H236596   3.747   5.833  14.510 -0.1902  1.0582 -1.6086
 5061TIP3   OH236597   1.501   2.498   3.241 -0.1219  0.3803  0.2497
 5061TIP3    H136598   1.415   2.461   3.262  0.9018 -1.7149  1.1007
 5061TIP3    H236599   1.562   2.446   3.293  1.7561  1.1242 -1.0972
 5062TIP3   OH236600   3.517   2.190   4.128 -0.1949  0.1696 -0.0355
 5062TIP3    H136601   3.573   2.119   4.161  2.4386  1.5553 -1.1740
 5062TIP3    H236602   3.557   2.215   4.044 -1.0030  2.9644  0.2991
 5063TIP3   OH236603   5.234   0.631  17.396  0.3491 -0.0816 -0.2681
 5063TIP3    H136604   5.220   0.547  17.439 -0.8459  0.1500 -0.1521
 5063TIP3    H236605   5.153   0.645  17.346  1.2635  0.1513 -1.7428
 5064TIP3   OH236606   4.761   1.942  10.419  0.2154  0.5365  0.3443
 5064TIP3    H136607   4.852   1.963  10.439  0.7508 -1.4210  0.1716
 5064TIP3    H236608   4.765   1.892  10.337 -0.8709 -0.6240  0.9676
 5065TIP3   OH236609   2.071   5.305  11.884 -0.4952 -0.0544 -0.0486
 5065TIP3    H136610   2.128   5.347  11.948  0.5885 -2.7352  0.9017
 5065TIP3    H236611   1.986   5.300  11.927 -1.7616  4.1334 -1.5434
 5066TIP3   OH236612   6.164   5.418   0.111  0.5114  0.4635  0.1912
 5066TIP3    H136613   6.101   5.433   0.041  0.8793 -1.2113 -0.5458
 5066TIP3    H236614   6.214   5.342   0.082  2.3903  1.2814  1.0915
 5067TIP3   OH236615   3.101   3.678  14.514  0.4086  0.6072  0.2183
 5067TIP3    H136616   3.023   3.700  14.566 -0.2351  1.9218 -1.2183
 5067TIP3    H236617   3.133   3.597  14.554 -1.7759 -0.0714  0.7912
 5068TIP3   OH236618   0.067   4.188  11.423 -0.7764 -0.0499 -0.6344
 5068TIP3    H136619  -0.010   4.236  11.452  0.7310  2.0885  0.0807
 5068TIP3    H236620   0.105   4.153  11.504 -0.4691 -0.2396 -0.8575
 5069TIP3   OH236621   6.097   4.058   3.710 -0.5207 -1.0223  0.5102
 5069TIP3    H136622   6.115   3.968   3.680  0.1979 -1.1387  1.2485
 5069TIP3    H236623   6.173   4.109   3.680 -0.1982 -0.9751  1.3708
 5070TIP3   OH236624   2.843   6.727  15.602 -0.0406 -0.6252  0.0174
 5070TIP3    H136625   2.934   6.732  15.574  0.5106  0.3410  1.8431
 5070TIP3    H236626   2.800   6.801  15.560 -0.4135 -1.9717 -2.1216
 5071TIP3   OH236627   4.731   1.592   5.342 -0.0167  0.3671 -0.0142
 5071TIP3    H136628   4.668   1.611   5.273  2.0647  1.3991 -1.7293
 5071TIP3    H236629   4.706   1.651   5.414 -1.5636  0.0202 -0.2153
 5072TIP3   OH236630   1.943   5.642  14.084 -0.5299  0.0675  0.4084
 5072TIP3    H136631   1.936   5.731  14.048 -0.8962  0.2181  0.8454
 5072TIP3    H236632   1.877   5.592  14.036 -0.6033  0.1268  0.4470
 5073TIP3   OH236633   6.477   0.481   2.463 -0.0018  0.1841 -0.2246
 5073TIP3    H136634   6.550   0.482   2.525 -0.0763 -0.0047 -0.1337
 5073TIP3    H236635   6.488   0.401   2.413  0.6249  0.8293 -1.1449
 5074TIP3   OH236636   1.569   5.958   5.599 -0.4033  0.5397  0.1178
 5074TIP3    H136637   1.613   5.884   5.558  0.4784  1.0683  0.0901
 5074TIP3    H236638   1.492   5.974   5.544 -0.2203  0.0919 -0.2751
 5075TIP3   OH236639   6.049   4.400  17.018  0.0642 -0.2749 -0.3204
 5075TIP3    H136640   5.960   4.398  16.982 -0.0634  2.4007 -0.2962
 5075TIP3    H236641   6.105   4.419  16.943  0.4471 -0.2874 -0.0404
 5076TIP3   OH236642   2.502   6.720   4.444  0.1282 -0.2344 -0.5079
 5076TIP3    H136643   2.549   6.689   4.367 -3.6424 -0.6989 -2.9005
 5076TIP3    H236644   2.491   6.814   4.428 -0.8664 -0.3749 -0.7424
 5077TIP3   OH236645   0.455   6.590   2.226 -0.2324  0.1957 -0.1699
 5077TIP3    H136646   0.448   6.580   2.321  1.4627 -3.4060 -0.2552
 5077TIP3    H236647   0.537   6.638   2.213 -1.6826  2.9008  0.1281
 5078TIP3   OH236648   4.898   1.835  12.351 -0.2974  0.0464 -0.9323
 5078TIP3    H136649   4.982   1.877  12.370  0.6745 -1.3400 -1.9960
 5078TIP3    H236650   4.855   1.829  12.436  1.4042 -0.7068 -0.0772
 5079TIP3   OH236651   3.008   6.052   4.952 -0.4203  0.2222 -0.3160
 5079TIP3    H136652   3.092   6.009   4.942  0.2185  1.1944  0.6096
 5079TIP3    H236653   3.020   6.139   4.913 -1.8989 -0.5963 -2.8202
 5080TIP3   OH236654   6.076   4.556  14.731 -0.9494 -0.3922  0.5448
 5080TIP3    H136655   6.092   4.637  14.780  0.2361 -0.1994 -0.1308
 5080TIP3    H236656   6.038   4.586  14.649 -0.4408 -0.5152  0.2651
 5081TIP3   OH236657   3.204   1.502   5.048  0.3130  0.0102  0.2221
 5081TIP3    H136658   3.267   1.432   5.063 -0.9905 -0.9149  1.7321
 5081TIP3    H236659   3.191   1.504   4.953 -0.5867 -2.7402  0.2024
 5082TIP3   OH236660   5.499   3.454   2.390  0.4747 -0.2265  0.5093
 5082TIP3    H136661   5.554   3.522   2.351 -0.1254  0.2515  0.4732
 5082TIP3    H236662   5.428   3.502   2.432 -1.0727 -0.8769 -1.2026
 5083TIP3   OH236663   1.899   2.935   4.367 -0.2868 -0.7707 -0.0383
 5083TIP3    H136664   1.943   2.953   4.450 -1.8481  0.4145  0.5725
 5083TIP3    H236665   1.918   3.012   4.313  1.1004 -1.7315 -0.9988
 5084TIP3   OH236666   0.052   4.545  16.050  0.3156  0.7629  0.5855
 5084TIP3    H136667  -0.020   4.534  15.988  0.3305  2.0833  0.3087
 5084TIP3    H236668   0.010   4.538  16.136 -0.0627  0.9604  0.4218
 5085TIP3   OH236669   2.067   4.713   0.505  0.1586 -0.9480 -0.6521
 5085TIP3    H136670   2.132   4.702   0.574  2.2338  0.1350 -2.3178
 5085TIP3    H236671   2.116   4.706   0.424 -2.2357 -2.4789 -2.1159
 5086TIP3   OH236672   6.283   6.653   6.486 -0.4742 -0.6294  0.8165
 5086TIP3    H136673   6.305   6.735   6.443 -0.9400 -1.2748 -0.7306
 5086TIP3    H236674   6.360   6.632   6.539  0.5488 -0.2839 -0.4787
 5087TIP3   OH236675   0.087   1.504  16.127 -0.3115  0.2212 -0.1839
 5087TIP3    H136676   0.122   1.586  16.162 -0.6546  0.3616 -0.1635
 5087TIP3    H236677   0.142   1.485  16.051 -0.2597  0.4995 -0.2206
 5088TIP3   OH236678   0.983   4.669   5.822  0.3542 -0.0599 -0.0068
 5088TIP3    H136679   0.913   4.720   5.862 -0.1463  0.0530 -0.9781
 5088TIP3    H236680   0.953   4.653   5.732  1.1325 -0.8618 -0.1469
 5089TIP3   OH236681   2.678   0.564  15.960 -0.2967  0.3501  0.1235
 5089TIP3    H136682   2.738   0.498  15.994  1.6210  1.1084 -1.5631
 5089TIP3    H236683   2.618   0.582  16.032  0.9439 -1.1018  1.5919
 5090TIP3   OH236684   4.643   2.126   4.974  0.3783  0.7946  0.0616
 5090TIP3    H136685   4.734   2.148   4.995  0.7881  0.1772 -1.0442
 5090TIP3    H236686   4.608   2.206   4.933  0.1749  1.2948  1.1574
 5091TIP3   OH236687   3.529   6.325   5.598  0.1387 -0.0444 -0.2137
 5091TIP3    H136688   3.509   6.385   5.527  0.1881  0.3746  0.1260
 5091TIP3    H236689   3.450   6.322   5.652 -0.4164 -1.4510 -1.0424
 5092TIP3   OH236690   2.127   0.737  14.421 -0.0077  0.2414  0.5919
 5092TIP3    H136691   2.084   0.753  14.505  0.5132 -0.5976  1.0261
 5092TIP3    H236692   2.185   0.663  14.437  0.2841  0.2283 -0.4490
 5093TIP3   OH236693   6.579   5.018  15.271 -0.7516 -0.2188  0.0955
 5093TIP3    H136694   6.500   5.019  15.326  1.0546 -0.8945  2.9183
 5093TIP3    H236695   6.594   4.925  15.252 -1.2428 -0.0031 -1.4410
 5094TIP3   OH236696   1.062   2.724  14.702  0.6385 -0.5248 -0.0376
 5094TIP3    H136697   1.085   2.809  14.663 -0.8594  0.1374  0.4216
 5094TIP3    H236698   1.023   2.675  14.629 -0.0463 -0.1558  0.0648
 5095TIP3   OH236699   4.701   2.224   3.899 -0.1185  0.2312 -0.3348
 5095TIP3    H136700   4.712   2.215   3.993  2.0707  0.4318 -0.5282
 5095TIP3    H236701   4.679   2.316   3.886  2.2612  0.8619 -0.1825
 5096TIP3   OH236702   1.459   4.461  15.804 -0.3773  1.0379 -0.1221
 5096TIP3    H136703   1.427   4.542  15.764 -1.0755  2.0818  2.3966
 5096TIP3    H236704   1.546   4.483  15.836 -0.1527  0.4550 -0.3101
 5097TIP3   OH236705   5.357   6.353  14.236  0.2560 -0.7547  0.1258
 5097TIP3    H136706   5.387   6.400  14.158  2.4684 -1.5647  0.4170
 5097TIP3    H236707   5.316   6.274  14.202  0.0158 -0.4679 -0.2558
 5098TIP3   OH236708   5.335   4.621   3.059 -0.5132  0.0140  0.3556
 5098TIP3    H136709   5.352   4.537   3.017 -0.5566 -1.0326  2.2916
 5098TIP3    H236710   5.318   4.682   2.987 -0.5171 -1.6380 -1.0939
 5099TIP3   OH236711   6.005   4.451   1.569 -0.3634  0.1326 -0.3448
 5099TIP3    H136712   5.944   4.523   1.551  0.4498  0.8505 -0.3066
 5099TIP3    H236713   6.020   4.410   1.484 -2.3473 -1.2669 -0.0765
 5100TIP3   OH236714   5.872   6.064  13.914 -0.5578 -0.1646  0.4532
 5100TIP3    H136715   5.908   6.033  13.997 -2.0942 -0.6417  0.9814
 5100TIP3    H236716   5.777   6.048  13.922 -1.0392  1.9147 -0.4660
 5101TIP3   OH236717   4.109   4.666   3.209 -0.2441 -0.3202 -0.3563
 5101TIP3    H136718   4.144   4.753   3.195  0.5123 -0.6176 -0.3540
 5101TIP3    H236719   4.035   4.679   3.269  0.7594  0.1650  0.8087
 5102TIP3   OH236720   1.198   0.420  11.061  0.4384  0.3456 -0.0238
 5102TIP3    H136721   1.263   0.400  10.994 -0.2494 -1.2918 -0.2425
 5102TIP3    H236722   1.248   0.426  11.142  1.3145  2.5941 -0.6472
 5103TIP3   OH236723   3.193   2.505  16.732 -0.0946 -0.3114  0.3331
 5103TIP3    H136724   3.099   2.490  16.740 -0.4995 -0.6034 -3.4589
 5103TIP3    H236725   3.201   2.600  16.719 -0.1018 -0.5027 -1.2127
 5104TIP3   OH236726   3.077   2.896   0.879 -0.4699  0.0569  0.6008
 5104TIP3    H136727   2.991   2.934   0.862 -0.2866 -0.0206 -0.6316
 5104TIP3    H236728   3.122   2.962   0.931 -1.4970 -0.1983  1.8517
 5105TIP3   OH236729   1.260   5.720   5.180  0.1625  0.0405 -0.1134
 5105TIP3    H136730   1.215   5.658   5.123 -1.7537  0.2289  1.0951
 5105TIP3    H236731   1.325   5.668   5.226 -0.4433 -0.7897 -0.1714
 5106TIP3   OH236732   0.772   2.898   2.129 -0.0096 -0.0615 -0.2622
 5106TIP3    H136733   0.738   2.816   2.094 -1.3491 -0.0524  0.9607
 5106TIP3    H236734   0.781   2.883   2.223 -1.3767  1.5416  0.1680
 5107TIP3   OH236735   4.855   5.741   5.391  0.1672 -0.0639 -0.5935
 5107TIP3    H136736   4.939   5.785   5.382 -0.0324  0.7396  1.0634
 5107TIP3    H236737   4.873   5.650   5.367  1.4040  0.1881 -0.7054
 5108TIP3   OH236738   4.539   1.551  10.676  0.3360  0.1173 -0.1941
 5108TIP3    H136739   4.602   1.492  10.635  1.1177  0.7016  0.1399
 5108TIP3    H236740   4.469   1.493  10.708  0.9214 -0.5915 -0.1672
 5109TIP3   OH236741   5.992   2.337  17.195  0.4929 -0.5534  1.2733
 5109TIP3    H136742   5.916   2.309  17.144  1.1080  0.8504 -0.5528
 5109TIP3    H236743   6.067   2.318  17.139  1.1011  2.3094  0.9742
 5110TIP3   OH236744   4.644   0.218   0.796  0.0712  0.4546  0.0841
 5110TIP3    H136745   4.628   0.132   0.756 -0.9987  0.9579 -0.6416
 5110TIP3    H236746   4.673   0.273   0.723 -1.7186  1.3394 -0.0285
 5111TIP3   OH236747   1.910   4.125  14.687  0.2569 -0.0097  0.1199
 5111TIP3    H136748   1.896   4.030  14.688 -1.2574  0.1243 -2.1730
 5111TIP3    H236749   1.924   4.147  14.779 -1.7848 -2.1210  1.0570
 5112TIP3   OH236750   2.143   6.388  12.831 -0.4429 -0.3826 -0.2311
 5112TIP3    H136751   2.199   6.370  12.906 -0.7869 -0.2958  0.0482
 5112TIP3    H236752   2.204   6.393  12.757  0.0327  0.5858  0.2044
 5113TIP3   OH236753   0.509   6.735  17.378  0.4997 -0.3680  0.6548
 5113TIP3    H136754   0.549   6.756  17.294 -0.7628  0.0373  0.1219
 5113TIP3    H236755   0.582   6.723  17.438  1.3953  0.4638 -0.2443
 5114TIP3   OH236756   0.718   1.449   3.231  0.4982 -0.2899 -0.1236
 5114TIP3    H136757   0.625   1.433   3.241  0.5978 -1.0622 -0.3717
 5114TIP3    H236758   0.753   1.444   3.320  0.4940 -1.2993 -0.1696
 5115TIP3   OH236759   3.342   2.714   3.365  0.0438 -0.3149 -0.2285
 5115TIP3    H136760   3.280   2.678   3.301 -0.0032 -0.4222 -0.1234
 5115TIP3    H236761   3.292   2.717   3.447 -1.2151  3.3432 -0.9106
 5116TIP3   OH236762   2.837   3.515  10.780 -0.4138 -0.2977  1.0878
 5116TIP3    H136763   2.819   3.580  10.848 -2.5984  0.1903  0.1144
 5116TIP3    H236764   2.755   3.466  10.771  0.6260 -2.0474  0.5425
 5117TIP3   OH236765   3.439   2.331  15.033  0.3142 -0.1068 -0.0141
 5117TIP3    H136766   3.354   2.376  15.036  1.2515  1.7277  1.7129
 5117TIP3    H236767   3.425   2.250  15.083 -0.3485  0.3708  0.6111
 5118TIP3   OH236768   5.969   5.925  14.147 -0.0978  0.3158  0.4793
 5118TIP3    H136769   5.985   5.843  14.100  2.9364 -0.0270  1.8641
 5118TIP3    H236770   5.942   5.898  14.235 -1.3478  0.8802  0.2877
 5119TIP3   OH236771   4.189   0.928  16.262 -1.0207 -0.3495  0.3457
 5119TIP3    H136772   4.150   0.852  16.306  0.6720 -2.2465 -1.1764
 5119TIP3    H236773   4.231   0.891  16.184  1.1058  1.9645  0.2718
 5120TIP3   OH236774   4.966   0.168   1.527  0.2615  0.7995  0.0062
 5120TIP3    H136775   5.039   0.106   1.524 -0.9777 -0.6780 -1.7224
 5120TIP3    H236776   4.932   0.160   1.616  1.1168  0.2122  0.3023
 5121TIP3   OH236777   5.660   2.559  12.187  0.4194 -0.8283  0.3829
 5121TIP3    H136778   5.641   2.635  12.132 -0.3868 -0.2264  1.4641
 5121TIP3    H236779   5.731   2.514  12.141 -0.4708 -0.5634 -1.3519
 5122TIP3   OH236780   4.878   0.330   4.392 -0.4614  0.0190 -0.5249
 5122TIP3    H136781   4.785   0.321   4.410 -0.0859  1.0670  2.4976
 5122TIP3    H236782   4.889   0.422   4.368 -0.0800  0.1918  0.2815
 5123TIP3   OH236783   5.479   5.607   5.762 -0.5274  0.0373 -0.5376
 5123TIP3    H136784   5.517   5.689   5.731 -0.2706  0.8818  1.8383
 5123TIP3    H236785   5.385   5.622   5.761 -0.6512 -0.5298 -2.2983
 5124TIP3   OH236786   1.695   0.417  16.329  0.1396 -0.0017  0.0402
 5124TIP3    H136787   1.751   0.349  16.365 -0.7235  0.4078  2.2938
 5124TIP3    H236788   1.718   0.496  16.378 -0.9767  0.6320 -0.4080
 5125TIP3   OH236789   3.155   5.737  11.766  0.3398 -0.1134  0.4850
 5125TIP3    H136790   3.107   5.671  11.716  1.4011 -2.2593  2.1540
 5125TIP3    H236791   3.197   5.792  11.699  0.4772 -1.9145 -0.9830
 5126TIP3   OH236792   2.244   0.721  12.183  0.4748 -0.0948  0.3254
 5126TIP3    H136793   2.201   0.704  12.099  1.0557  0.7715 -0.1615
 5126TIP3    H236794   2.175   0.707  12.248 -0.1636 -0.1225 -0.3451
 5127TIP3   OH236795   3.138   2.535   0.113 -0.3604 -0.0482  0.1883
 5127TIP3    H136796   3.065   2.587   0.083 -0.4449 -0.1532  0.2100
 5127TIP3    H236797   3.172   2.492   0.034  0.6673  1.2121 -0.0984
 5128TIP3   OH236798   5.333   1.198  11.203  0.0748  0.2815 -0.0973
 5128TIP3    H136799   5.308   1.111  11.172  2.7765 -0.2508 -1.1081
 5128TIP3    H236800   5.347   1.249  11.123  2.9898  0.1672  0.2087
 5129TIP3   OH236801   2.335   1.578   2.744  0.6369  0.3062 -0.6336
 5129TIP3    H136802   2.305   1.497   2.785  1.8325  0.7275  1.1842
 5129TIP3    H236803   2.256   1.630   2.734 -0.3557 -1.4476 -2.9052
 5130TIP3   OH236804   3.826   2.348   0.816  0.0496 -0.0938  0.2940
 5130TIP3    H136805   3.797   2.326   0.904 -0.9485 -0.2891 -0.0615
 5130TIP3    H236806   3.749   2.388   0.775  0.6469  0.4410 -0.3327
 5131TIP3   OH236807   2.457   2.385   4.942 -0.2215  0.3451 -0.6095
 5131TIP3    H136808   2.463   2.321   5.013 -2.2558 -0.0585 -0.7589
 5131TIP3    H236809   2.478   2.336   4.864 -1.6274 -0.1439 -0.7040
 5132TIP3   OH236810   0.417   1.680   3.497 -0.2647  0.2538 -0.0589
 5132TIP3    H136811   0.355   1.720   3.558  0.7671  1.4066  0.2813
 5132TIP3    H236812   0.389   1.709   3.411 -0.9946 -0.3509 -0.0304
 5133TIP3   OH236813   0.027   5.941   1.475 -0.3812 -0.0030 -0.0509
 5133TIP3    H136814   0.013   6.006   1.543 -0.8400 -1.1175  0.9550
 5133TIP3    H236815  -0.027   5.969   1.402 -0.2373  0.9634  0.2081
 5134TIP3   OH236816   1.779   5.325   4.791  0.3855  0.5912 -0.1541
 5134TIP3    H136817   1.787   5.253   4.728  1.2368 -0.5226  1.1543
 5134TIP3    H236818   1.865   5.367   4.789  0.2943  0.7813  0.0000
 5135TIP3   OH236819   3.043   0.257  14.818 -0.3772  0.2298  0.1401
 5135TIP3    H136820   3.131   0.219  14.825 -0.8574 -1.1052 -0.7794
 5135TIP3    H236821   3.046   0.310  14.738 -0.3684  0.3401  0.2124
 5136TIP3   OH236822   3.001   0.252  12.330  0.2384 -0.9510 -0.1810
 5136TIP3    H136823   3.028   0.161  12.316 -2.4101 -2.1612  1.6362
 5136TIP3    H236824   3.031   0.273  12.418 -0.4653 -0.6066 -0.0154
 5137TIP3   OH236825   2.851   1.209  16.818 -0.0787  0.1771  0.2981
 5137TIP3    H136826   2.856   1.303  16.832 -1.3833  0.8791 -3.1391
 5137TIP3    H236827   2.880   1.196  16.728 -1.3762 -2.5465  0.1799
 5138TIP3   OH236828   2.816   3.039  13.131 -0.2639 -0.2843  0.5871
 5138TIP3    H136829   2.892   3.018  13.185 -0.3005  0.4791  0.9514
 5138TIP3    H236830   2.740   3.014  13.185 -0.2978  0.3939  0.8696
 5139TIP3   OH236831   1.577   5.387   0.956 -0.5027 -0.1549  0.1901
 5139TIP3    H136832   1.631   5.458   0.921 -1.9021 -0.3565 -2.5683
 5139TIP3    H236833   1.596   5.312   0.900 -0.7214 -1.3802  1.6718
 5140TIP3   OH236834   2.999   0.114  15.983  0.3423 -0.0206 -0.7059
 5140TIP3    H136835   3.060   0.101  16.055  0.0538  2.0270 -0.0296
 5140TIP3    H236836   3.026   0.051  15.917  1.4122 -1.0714  0.6739
 5141TIP3   OH236837   6.392   0.375  11.954  0.0562 -0.1584  0.0099
 5141TIP3    H136838   6.318   0.343  12.007 -0.1918  2.3705  1.3488
 5141TIP3    H236839   6.373   0.467  11.940  2.0732  0.1266 -1.2506
 5142TIP3   OH236840   2.725   3.251  14.156 -0.3628 -0.7188  0.0105
 5142TIP3    H136841   2.754   3.163  14.182  0.4553 -0.0357  1.5132
 5142TIP3    H236842   2.805   3.304  14.156 -0.9908  0.2480  0.0300
 5143TIP3   OH236843   1.427   6.505   5.981  0.2271 -0.2792  0.0464
 5143TIP3    H136844   1.387   6.419   5.991 -1.8191  0.6140  0.1572
 5143TIP3    H236845   1.437   6.538   6.070  0.5914 -0.2389 -0.0099
 5144TIP3   OH236846   1.917   1.450   4.324 -0.2544 -0.3947 -0.2506
 5144TIP3    H136847   1.865   1.522   4.288  0.5096 -0.1167 -0.8021
 5144TIP3    H236848   1.863   1.416   4.396 -1.0649  0.0849 -0.6164
 5145TIP3   OH236849   4.399   5.179  14.206 -0.2173 -0.4249 -0.0179
 5145TIP3    H136850   4.478   5.184  14.260  0.8855  2.6516 -1.6459
 5145TIP3    H236851   4.332   5.142  14.264  1.8116 -0.8858  2.1641
 5146TIP3   OH236852   1.148   0.240  10.651 -0.1060  0.1732 -0.0752
 5146TIP3    H136853   1.095   0.241  10.730 -1.7769 -0.5457 -1.1505
 5146TIP3    H236854   1.235   0.211  10.680 -1.4591 -3.1237  1.0505
 5147TIP3   OH236855   5.945   0.212   3.522 -0.3014 -0.4367 -0.4673
 5147TIP3    H136856   5.962   0.121   3.497 -0.1606 -0.1432 -1.5104
 5147TIP3    H236857   5.985   0.221   3.608  1.3246 -0.8856 -1.1241
 5148TIP3   OH236858   0.097   2.132   0.434  0.4317 -0.3459 -0.4036
 5148TIP3    H136859   0.018   2.114   0.382  0.5413  0.5536 -0.9120
 5148TIP3    H236860   0.064   2.156   0.520  0.1704 -0.4414 -0.4752
 5149TIP3   OH236861   4.212   5.011   1.162 -0.1770 -0.3532 -0.1352
 5149TIP3    H136862   4.248   5.042   1.079 -0.8851 -0.1374 -0.3689
 5149TIP3    H236863   4.206   5.089   1.217 -2.0416 -0.0071 -0.7528
 5150TIP3   OH236864   5.996   0.135  12.892 -0.0758 -0.0809 -0.3150
 5150TIP3    H136865   6.017   0.138  12.986 -0.3714  2.4036 -0.2446
 5150TIP3    H236866   6.073   0.097  12.851 -0.0470 -1.4753  0.9389
 5151TIP3   OH236867   1.319   3.299  13.475 -0.5083 -0.6428  0.4546
 5151TIP3    H136868   1.328   3.225  13.535  2.4472  1.0454  2.3837
 5151TIP3    H236869   1.225   3.315  13.470 -1.0835 -3.1266  1.7240
 5152TIP3   OH236870   3.270   5.161   5.980 -0.1625 -0.1143 -0.0439
 5152TIP3    H136871   3.291   5.153   5.886  0.4832 -0.4173  0.1216
 5152TIP3    H236872   3.292   5.251   6.001 -0.9706  0.1596 -0.3409
 5153TIP3   OH236873   2.809   5.041  16.572 -0.0910 -0.4427 -0.3519
 5153TIP3    H136874   2.897   5.042  16.610 -0.0080 -0.4872 -0.5381
 5153TIP3    H236875   2.820   4.996  16.488 -0.3189 -0.5721 -0.3119
 5154TIP3   OH236876   1.682   4.376   0.804  0.3159  0.5052  0.6188
 5154TIP3    H136877   1.613   4.433   0.771  0.7148  1.1968  0.9563
 5154TIP3    H236878   1.670   4.376   0.899  0.3737  0.0976  0.6266
 5155TIP3   OH236879   3.469   3.857  17.267 -0.7217  0.2265  0.1446
 5155TIP3    H136880   3.517   3.860  17.350 -2.0804 -0.0679  0.9654
 5155TIP3    H236881   3.384   3.821  17.290 -0.4201 -1.9177 -1.7259
 5156TIP3   OH236882   3.098   0.798  12.418  0.1692  0.2064 -0.0265
 5156TIP3    H136883   3.144   0.717  12.399  2.1498  0.9418  1.2610
 5156TIP3    H236884   3.057   0.823  12.336 -0.0440 -1.8074 -0.5719
 5157TIP3   OH236885   0.413   4.183  15.217  0.4902  0.0542 -0.4853
 5157TIP3    H136886   0.365   4.128  15.156 -0.0807  0.6100 -0.5501
 5157TIP3    H236887   0.349   4.210  15.282  0.6633  0.9305 -0.6574
 5158TIP3   OH236888   2.984   2.465  14.283 -0.0822 -0.6640  0.2265
 5158TIP3    H136889   2.937   2.518  14.347 -0.8962 -1.3354  0.1915
 5158TIP3    H236890   3.059   2.520  14.258 -0.2014 -0.0626  1.1330
 5159TIP3   OH236891   0.894   4.897   3.803 -0.1165  0.3442 -0.0094
 5159TIP3    H136892   0.978   4.882   3.761 -0.7393  0.2228 -1.2596
 5159TIP3    H236893   0.836   4.925   3.732 -1.1351  0.4249  0.8231
 5160TIP3   OH236894   3.268   4.510  14.994  0.5932 -0.3856 -0.1299
 5160TIP3    H136895   3.180   4.548  14.985  1.1992  1.8689  2.1272
 5160TIP3    H236896   3.265   4.429  14.943 -2.1942  0.5508 -1.6738
 5161TIP3   OH236897   6.087   6.239   1.437 -0.2656 -0.0394 -0.0721
 5161TIP3    H136898   6.154   6.265   1.373  0.2309 -0.3307  0.3228
 5161TIP3    H236899   6.009   6.223   1.384  0.1644 -0.3680 -0.6250
 5162TIP3   OH236900   0.657   5.045  16.920  0.9914  0.3283 -0.4762
 5162TIP3    H136901   0.575   5.068  16.963  0.9780  1.2629 -0.9584
 5162TIP3    H236902   0.662   4.950  16.925 -0.3208  0.2327 -0.8168
 5163TIP3   OH236903   1.493   5.549   5.111  0.4980  0.1410 -0.3736
 5163TIP3    H136904   1.526   5.595   5.034 -0.5744 -0.1479 -1.0232
 5163TIP3    H236905   1.517   5.606   5.184  1.6872  0.3345 -0.8834
 5164TIP3   OH236906   0.009   1.128   4.681  0.6887 -0.0881 -0.3733
 5164TIP3    H136907  -0.041   1.071   4.623  0.3320  0.1732 -0.3235
 5164TIP3    H236908   0.084   1.074   4.709  0.5705 -0.3937 -0.6432
 5165TIP3   OH236909   6.665   3.872  11.549 -0.3700 -0.0656 -0.0366
 5165TIP3    H136910   6.611   3.808  11.596  1.0668 -0.3050  1.3481
 5165TIP3    H236911   6.601   3.923  11.498 -2.0254  0.1073  2.0516
 5166TIP3   OH236912   1.445   4.661   4.738 -0.1226 -0.3922 -0.7537
 5166TIP3    H136913   1.364   4.621   4.770 -0.3114  0.8783  0.4516
 5166TIP3    H236914   1.422   4.697   4.652 -0.7907 -0.1723 -0.4866
 5167TIP3   OH236915   2.359   0.700   5.777 -0.7655 -0.6287 -0.0904
 5167TIP3    H136916   2.310   0.702   5.695 -2.2475  0.5244  0.7719
 5167TIP3    H236917   2.304   0.749   5.838  1.3458  0.4407  1.0247
 5168TIP3   OH236918   3.690   4.320   4.246  0.4820  0.3543 -0.4258
 5168TIP3    H136919   3.719   4.242   4.198  1.2629 -0.4557  1.3009
 5168TIP3    H236920   3.637   4.286   4.318 -1.4336  1.6018 -1.1381
 5169TIP3   OH236921   5.459   1.995   3.748  1.2617 -0.0161  0.3671
 5169TIP3    H136922   5.519   2.018   3.677  1.0785  0.2391  0.2952
 5169TIP3    H236923   5.507   2.019   3.828  0.1275  3.0682  0.2703
 5170TIP3   OH236924   3.726   0.778   2.695 -0.2530 -0.5599  0.3545
 5170TIP3    H136925   3.652   0.733   2.736  0.2667 -1.8857 -0.1035
 5170TIP3    H236926   3.697   0.795   2.606 -0.3510 -0.2316  0.4495
 5171TIP3   OH236927   3.709   5.568   2.790  0.1308 -0.3929 -0.0106
 5171TIP3    H136928   3.730   5.651   2.832 -0.8620 -0.4500  0.6288
 5171TIP3    H236929   3.696   5.590   2.698 -1.0802  0.3499  0.3207
 5172TIP3   OH236930   6.064   2.911  16.816 -0.6179  0.5053  0.7953
 5172TIP3    H136931   6.087   2.833  16.867 -0.8969  0.5873  1.0481
 5172TIP3    H236932   6.103   2.984  16.864  2.2322  0.3022 -0.9860
 5173TIP3   OH236933   4.740   2.305   6.442 -0.4251 -0.8023  0.3845
 5173TIP3    H136934   4.663   2.284   6.495 -2.3602 -0.1060 -1.9314
 5173TIP3    H236935   4.743   2.235   6.377 -1.6749  1.2425 -2.0575
 5174TIP3   OH236936   6.113   1.241   5.906  0.3683 -0.1020  0.3386
 5174TIP3    H136937   6.204   1.259   5.930  1.1512 -1.6837 -1.1907
 5174TIP3    H236938   6.062   1.262   5.984  2.2219 -0.6027  1.7304
 5175TIP3   OH236939   6.691   2.434   4.860  0.1165 -0.4356  0.3008
 5175TIP3    H136940   6.685   2.476   4.945 -0.7854 -0.6423  0.3541
 5175TIP3    H236941   6.766   2.375   4.867  1.6054  1.3458  0.1178
 5176TIP3   OH236942   2.708   2.769  13.608 -0.0160 -0.3411 -0.4552
 5176TIP3    H136943   2.647   2.724  13.549  0.3801 -0.5929 -0.6760
 5176TIP3    H236944   2.673   2.754  13.695 -0.1916 -0.6047 -0.5702
 5177TIP3   OH236945   0.594   2.966   5.221  0.2003 -0.1464 -0.3610
 5177TIP3    H136946   0.680   2.938   5.252 -0.9986 -1.9293  1.5926
 5177TIP3    H236947   0.555   3.013   5.295  0.4026  3.0599 -2.0819
 5178TIP3   OH236948   1.297   4.044  12.033  0.2166  0.3737  0.0271
 5178TIP3    H136949   1.238   4.119  12.043 -0.7523 -0.4877  1.0607
 5178TIP3    H236950   1.346   4.042  12.115  1.1825  0.6414 -0.5301
 5179TIP3   OH236951   0.991   1.476   2.457 -0.0210  0.1727  0.6884
 5179TIP3    H136952   1.023   1.565   2.440 -0.2362  0.2386  0.6165
 5179TIP3    H236953   1.023   1.425   2.383 -1.6055  0.6226 -0.3737
 5180TIP3   OH236954   5.921   4.379   4.662 -0.5841 -0.1354  0.2432
 5180TIP3    H136955   5.843   4.418   4.704 -0.9708 -0.1459 -0.4626
 5180TIP3    H236956   5.970   4.455   4.630 -0.9264 -0.1788 -0.4022
 5181TIP3   OH236957   2.426   3.154   1.517  0.0708  0.3874  0.2463
 5181TIP3    H136958   2.340   3.115   1.503 -0.0820  0.7819  0.0636
 5181TIP3    H236959   2.479   3.083   1.552 -0.2160  0.0311 -0.0276
 5182TIP3   OH236960   1.269   3.160   4.197  0.3840  0.0220  0.0901
 5182TIP3    H136961   1.239   3.085   4.145 -3.2122  2.9364 -2.6387
 5182TIP3    H236962   1.205   3.168   4.267  1.4262 -0.0841  1.0755
 5183TIP3   OH236963   0.891   1.446   1.802  0.1662 -0.0042 -0.1256
 5183TIP3    H136964   0.860   1.435   1.712  0.8455 -1.2123 -0.2298
 5183TIP3    H236965   0.821   1.495   1.846 -0.8148 -0.6300 -0.9476
 5184TIP3   OH236966   0.499   5.786   2.123 -0.0951 -0.7060 -0.2535
 5184TIP3    H136967   0.549   5.713   2.157 -0.6439 -0.7958  0.3775
 5184TIP3    H236968   0.565   5.850   2.096  0.3529 -0.4874  1.2841
 5185TIP3   OH236969   1.957   1.209   2.103  0.8636  0.0017 -0.1402
 5185TIP3    H136970   1.919   1.291   2.135 -0.4940 -1.4911  2.3484
 5185TIP3    H236971   2.042   1.203   2.147  1.5837  0.6360 -1.3637
 5186TIP3   OH236972   1.297   6.145  14.256  0.2810 -0.3073  0.0610
 5186TIP3    H136973   1.262   6.145  14.344  0.1180 -1.2165  0.0101
 5186TIP3    H236974   1.227   6.182  14.202  0.4337  0.3797  0.3204
 5187TIP3   OH236975   6.236   4.761   5.960  0.1049 -0.4607  0.3130
 5187TIP3    H136976   6.146   4.789   5.943  0.5207  0.2014 -0.9717
 5187TIP3    H236977   6.253   4.788   6.050 -0.5506  0.6563  0.1241
 5188TIP3   OH236978   2.098   4.055   1.308  0.6623 -0.3054 -0.1066
 5188TIP3    H136979   2.064   4.121   1.369 -0.8357 -0.6449 -0.5172
 5188TIP3    H236980   2.128   3.984   1.365  1.6711  0.4307  0.3125
 5189TIP3   OH236981   4.736   3.581   3.303  0.3142  0.5229 -0.0505
 5189TIP3    H136982   4.735   3.595   3.398 -0.7585 -1.2673  0.2508
 5189TIP3    H236983   4.657   3.626   3.272  1.8082  3.0284 -0.4777
 5190TIP3   OH236984   5.293   4.998  12.736 -0.1823 -0.0752 -0.7388
 5190TIP3    H136985   5.305   5.036  12.823 -0.1822 -1.8858  0.1103
 5190TIP3    H236986   5.331   4.910  12.743 -0.8167 -0.5228 -2.3648
 5191TIP3   OH236987   6.479   3.258   4.488 -0.5674 -0.0028  0.0824
 5191TIP3    H136988   6.536   3.320   4.533 -2.2943  1.0366  0.9495
 5191TIP3    H236989   6.461   3.298   4.403  0.9918 -0.9631 -0.7476
 5192TIP3   OH236990   5.558   1.741   5.876 -0.3069 -0.3792 -0.5802
 5192TIP3    H136991   5.602   1.689   5.943 -0.2513 -0.6277 -0.8071
 5192TIP3    H236992   5.507   1.806   5.924  3.3692  2.6172 -0.2038
 5193TIP3   OH236993   0.690   4.871   4.465  0.6126 -0.8741 -0.1843
 5193TIP3    H136994   0.638   4.807   4.417  0.4612 -0.5177 -0.5008
 5193TIP3    H236995   0.768   4.884   4.410  0.0731  0.1221 -0.7360
 5194TIP3   OH236996   2.004   3.181   2.952 -0.1758 -0.1843  0.2815
 5194TIP3    H136997   2.060   3.258   2.959 -1.4412  0.9315 -1.0951
 5194TIP3    H236998   1.934   3.197   3.016 -1.8397  1.1628 -1.7135
 5195TIP3   OH236999   4.816   2.534   6.572  0.3068 -0.2052 -0.2875
 5195TIP3    H137000   4.862   2.520   6.655  0.1687 -1.1077 -0.3506
 5195TIP3    H237001   4.805   2.446   6.536 -1.7402 -0.0693 -0.1292
 5196TIP3   OH237002   1.289   3.133  12.892 -0.0182  0.3737 -0.1151
 5196TIP3    H137003   1.278   3.226  12.910  1.5431  0.4700  0.4849
 5196TIP3    H237004   1.251   3.090  12.969  0.3155  0.5626  0.1600
 5197TIP3   OH237005   0.103   3.662   2.700  0.1185  0.4121 -0.1359
 5197TIP3    H137006   0.036   3.645   2.634  1.3470  1.2833 -1.6680
 5197TIP3    H237007   0.112   3.757   2.702 -0.9736  0.5574  2.4719
 5198TIP3   OH237008   1.882   3.894   0.347 -0.4990 -0.7262  0.3278
 5198TIP3    H137009   1.942   3.852   0.408  0.5269  0.1285 -0.0589
 5198TIP3    H237010   1.883   3.838   0.269  0.2384 -0.4188  0.1125
 5199TIP3   OH237011   5.303   0.980   0.859  0.1081 -0.6356  0.1136
 5199TIP3    H137012   5.331   0.910   0.799 -1.5258  0.5139 -2.1269
 5199TIP3    H237013   5.356   1.056   0.833 -0.3389 -0.2251  0.3976
 5200TIP3   OH237014   2.374   2.582  14.586  0.2761  0.2390  0.5922
 5200TIP3    H137015   2.400   2.533  14.664 -0.8782 -0.3348  0.6434
 5200TIP3    H237016   2.405   2.671  14.601  1.1727 -0.1590  1.1350
 5201TIP3   OH237017   6.508   1.448   6.781 -0.1821 -0.7980  0.3189
 5201TIP3    H137018   6.561   1.372   6.755  0.5271 -2.0027  4.4913
 5201TIP3    H237019   6.420   1.414   6.791 -0.1027 -0.8180  1.0291
 5202TIP3   OH237020   4.844   3.596  11.321  0.4427  0.1518 -0.2725
 5202TIP3    H137021   4.919   3.546  11.355  0.5905  0.1267 -0.6329
 5202TIP3    H237022   4.776   3.530  11.305  0.1769  0.2279  0.4853
 5203TIP3   OH237023   6.379   0.709   5.280 -0.3765 -0.0406  0.2791
 5203TIP3    H137024   6.329   0.772   5.331  0.4340  0.1213  0.9026
 5203TIP3    H237025   6.400   0.639   5.342 -1.5634 -1.1160 -0.4899
 5204TIP3   OH237026   6.594   5.789   0.850 -0.1070 -0.0418 -0.2281
 5204TIP3    H137027   6.538   5.817   0.922 -1.6298  0.5875 -1.5802
 5204TIP3    H237028   6.533   5.757   0.784  1.2006 -0.1464 -1.4381
 5205TIP3   OH237029   0.942   2.708   5.612 -1.0843 -0.4632  0.0994
 5205TIP3    H137030   0.907   2.731   5.698  0.1192  0.8071  0.2960
 5205TIP3    H237031   0.981   2.621   5.624  1.5574  0.8053  1.6784
 5206TIP3   OH237032   1.963   3.478  13.887 -0.0126  0.2191 -0.1055
 5206TIP3    H137033   1.984   3.533  13.962  1.3277 -1.4952  0.8711
 5206TIP3    H237034   1.868   3.483  13.879 -0.2548  0.0699  2.0411
 5207TIP3   OH237035   4.889   1.950   6.247 -0.0290  0.5910 -0.3152
 5207TIP3    H137036   4.933   1.944   6.332  0.2098  0.0205 -0.4747
 5207TIP3    H237037   4.807   1.902   6.260 -0.5801  1.5790 -0.0435
 5208TIP3   OH237038   5.624   0.822   5.417 -0.0612  0.1279 -0.2396
 5208TIP3    H137039   5.620   0.744   5.472 -0.5608 -0.3890 -0.9977
 5208TIP3    H237040   5.696   0.873   5.454  0.9666 -1.1802 -0.3623
 5209TIP3   OH237041   1.222   1.350   1.252  0.2014 -0.3047  0.8147
 5209TIP3    H137042   1.160   1.409   1.206  1.2778  0.2320  0.0020
 5209TIP3    H237043   1.268   1.407   1.313  0.6153 -0.4804  0.6702
 5210TIP3   OH237044   5.833   2.910   1.593  0.1133 -0.3355 -0.0163
 5210TIP3    H137045   5.767   2.944   1.654 -0.3440 -0.5138 -0.4083
 5210TIP3    H237046   5.912   2.902   1.646 -0.3014 -0.5697  0.5780
 5211TIP3   OH237047   1.546   5.157  14.357 -0.0374  0.2485 -0.2007
 5211TIP3    H137048   1.598   5.161  14.438 -0.7121 -1.1159  0.3404
 5211TIP3    H237049   1.494   5.237  14.358 -0.8602 -0.2591  1.3193
 5212TIP3   OH237050   4.493   1.518  15.146 -0.2282  0.1493 -0.0760
 5212TIP3    H137051   4.490   1.470  15.228  1.4383  1.0785  0.5833
 5212TIP3    H237052   4.585   1.517  15.121 -0.6836 -0.0354 -1.9064
 5213TIP3   OH237053   5.592   2.038  12.800  0.3836  0.5439 -0.0238
 5213TIP3    H137054   5.642   2.115  12.773  0.6632  0.3124 -0.1663
 5213TIP3    H237055   5.626   1.967  12.746  1.0239  0.0501  0.9947
 5214TIP3   OH237056   1.516   3.788   2.627  0.3581  0.0663 -0.2053
 5214TIP3    H137057   1.513   3.726   2.554 -2.0319 -0.6165  0.4138
 5214TIP3    H237058   1.569   3.744   2.694 -0.3951 -0.8620 -0.1996
 5215TIP3   OH237059   3.353   4.426  14.701 -0.4046  0.0966  0.5097
 5215TIP3    H137060   3.258   4.415  14.694 -0.3518 -1.5619  1.6815
 5215TIP3    H237061   3.379   4.462  14.617 -1.9716 -0.1991 -0.1454
 5216TIP3   OH237062   2.362   4.319   1.326  0.2118 -0.2152 -0.6212
 5216TIP3    H137063   2.416   4.255   1.372  0.8551  0.4700 -0.4031
 5216TIP3    H237064   2.425   4.379   1.285 -0.3457  1.4479  0.8304
 5217TIP3   OH237065   3.325   5.573   1.101  0.7022 -0.3095  0.4760
 5217TIP3    H137066   3.315   5.480   1.122 -2.1464 -0.2606 -0.2446
 5217TIP3    H237067   3.316   5.617   1.185  1.7390 -0.6402  0.7767
 5218TIP3   OH237068   5.209   2.465   2.573  0.4582 -0.2679 -0.4828
 5218TIP3    H137069   5.224   2.545   2.622 -0.6408 -1.2370  1.5628
 5218TIP3    H237070   5.133   2.485   2.517  0.3653  0.1932 -0.1960
 5219TIP3   OH237071   1.537   3.180   4.546  0.3736 -1.1137  0.2498
 5219TIP3    H137072   1.447   3.157   4.568  0.0666 -0.5960 -0.4173
 5219TIP3    H237073   1.591   3.126   4.605 -0.3801 -0.0815  1.9551
 5220TIP3   OH237074   4.775   6.432  12.977 -0.1155 -0.5004  0.6647
 5220TIP3    H137075   4.840   6.385  12.924 -0.1412  1.0995 -0.8785
 5220TIP3    H237076   4.698   6.437  12.920 -0.8483 -0.4381  1.6355
 5221TIP3   OH237077   1.790   5.823   1.700  0.8259  0.2148 -0.3261
 5221TIP3    H137078   1.706   5.828   1.746  0.0105 -0.6237 -1.6475
 5221TIP3    H237079   1.826   5.912   1.707 -0.8966  1.0236 -0.9858
 5222TIP3   OH237080   0.936   5.273   2.286  0.1766 -0.6533  0.6854
 5222TIP3    H137081   0.939   5.224   2.203  0.7541  1.2939 -0.5228
 5222TIP3    H237082   0.997   5.226   2.343  0.0616 -1.8264 -0.1135
 5223TIP3   OH237083   2.120   1.654  17.425  0.1526  0.7892 -0.4315
 5223TIP3    H137084   2.107   1.743  17.393  1.0037  1.1322  0.1149
 5223TIP3    H237085   2.211   1.654  17.457  0.0786 -0.2029 -0.2037
 5224TIP3   OH237086   5.472   5.915  12.822  0.0635  0.5294  0.2720
 5224TIP3    H137087   5.423   5.905  12.740  0.7046 -2.0717  0.1033
 5224TIP3    H237088   5.406   5.943  12.885 -0.5759  1.9750 -0.9705
 5225TIP3   OH237089   3.454   5.847  17.201  0.3981 -0.2090 -0.2275
 5225TIP3    H137090   3.531   5.846  17.258 -0.2205 -1.9941  0.6302
 5225TIP3    H237091   3.421   5.757  17.202 -1.7926  0.5214 -0.4713
 5226TIP3   OH237092   1.818   4.728  13.889  0.1642  0.3490 -0.0247
 5226TIP3    H137093   1.791   4.802  13.834 -0.1620  1.0351  1.0352
 5226TIP3    H237094   1.894   4.691  13.844 -0.5001  0.4640 -1.2942
 5227TIP3   OH237095   2.812   2.268  17.115  0.8340 -0.6842 -0.2549
 5227TIP3    H137096   2.864   2.237  17.042 -1.6461 -1.5650 -1.7720
 5227TIP3    H237097   2.723   2.272  17.081 -0.2673 -0.0820  2.4271
 5228TIP3   OH237098   4.672   0.099  12.481 -0.2497 -0.2545  0.1580
 5228TIP3    H137099   4.618   0.172  12.449 -1.4866 -0.4347  1.7035
 5228TIP3    H237100   4.650   0.092  12.574  2.0372 -0.7389  0.7189
 5229TIP3   OH237101   0.302   3.162   1.642 -0.3440 -0.2362 -0.9294
 5229TIP3    H137102   0.215   3.146   1.605 -1.8082  0.8621  1.7579
 5229TIP3    H237103   0.305   3.256   1.657  0.2895 -0.5252  1.1786
 5230TIP3   OH237104   5.945   1.224   3.168  0.6700  0.2419 -0.4878
 5230TIP3    H137105   5.888   1.160   3.208  0.7267  0.0645 -0.6911
 5230TIP3    H237106   5.894   1.261   3.096  0.3467  0.9905  0.1144
 5231TIP3   OH237107   1.558   6.580  16.560  0.0475 -0.1328  0.8281
 5231TIP3    H137108   1.583   6.661  16.516  1.2748 -1.1644 -0.4819
 5231TIP3    H237109   1.640   6.545  16.595 -0.6451 -0.2438  2.4176
 5232TIP3   OH237110   0.659   0.350  13.362 -0.2884 -0.1684  0.3423
 5232TIP3    H137111   0.612   0.427  13.394  1.4382 -0.1115  3.0464
 5232TIP3    H237112   0.726   0.386  13.303 -1.5771  0.0152 -1.0798
 5233TIP3   OH237113   0.276   1.442  15.919  0.7575  0.2857  0.0368
 5233TIP3    H137114   0.285   1.499  15.843 -0.4872  0.8032  0.2622
 5233TIP3    H237115   0.225   1.367  15.886 -0.9677  1.1402  0.6399
 5234TIP3   OH237116   6.172   3.148  14.732 -0.2401 -0.0285 -0.0861
 5234TIP3    H137117   6.107   3.085  14.761  0.2188 -1.0528 -1.2004
 5234TIP3    H237118   6.206   3.111  14.650  1.5363  0.6198  0.3259
 5235TIP3   OH237119   0.648   2.746   2.644  0.0966 -0.2568  0.5629
 5235TIP3    H137120   0.719   2.686   2.623 -0.6792 -0.6869 -1.0447
 5235TIP3    H237121   0.607   2.709   2.722 -0.0652 -1.5671 -0.1155
 5236TIP3   OH237122   2.636   4.619  16.878  0.5129 -0.3650  0.1149
 5236TIP3    H137123   2.545   4.592  16.880  0.2351  0.5527  2.4834
 5236TIP3    H237124   2.634   4.705  16.835  0.3316 -0.5531 -0.2565
 5237TIP3   OH237125   6.610   6.252   1.044 -0.3161 -0.8577  0.3058
 5237TIP3    H137126   6.539   6.317   1.040  1.1338  0.9925  2.1926
 5237TIP3    H237127   6.688   6.304   1.065  1.1953 -3.0913  0.5123
 5238TIP3   OH237128   1.193   0.564   1.767 -0.0930  0.2460  0.0601
 5238TIP3    H137129   1.123   0.627   1.785  0.1167  0.6372 -0.4791
 5238TIP3    H237130   1.228   0.589   1.682 -0.1862 -0.7719 -0.2989
 5239TIP3   OH237131   6.068   3.801   3.569 -0.6185 -0.2680 -0.1392
 5239TIP3    H137132   6.089   3.808   3.476 -0.6605  1.2837 -0.0600
 5239TIP3    H237133   6.138   3.746   3.605 -1.2494 -1.8444 -1.2708
 5240TIP3   OH237134   4.621   3.938   3.016  0.0027  0.4451  0.0021
 5240TIP3    H137135   4.628   3.842   3.015  0.0355  0.4472  0.0588
 5240TIP3    H237136   4.692   3.967   3.072  0.2835  0.5270 -0.3962
 5241TIP3   OH237137   2.122   6.686  16.628 -0.6435 -0.3410  0.1283
 5241TIP3    H137138   2.174   6.659  16.704 -0.7535 -0.1832  0.2626
 5241TIP3    H237139   2.134   6.781  16.623 -0.7477 -0.3320  0.0329
 5242TIP3   OH237140   5.980   3.494  11.050 -0.2252 -0.1787  0.1489
 5242TIP3    H137141   6.020   3.414  11.015 -1.3069 -0.5043 -0.3794
 5242TIP3    H237142   6.053   3.555  11.059  0.6424 -1.2557  0.6716
 5243TIP3   OH237143   4.053   2.534  12.667  0.5141  0.6449 -0.4713
 5243TIP3    H137144   4.134   2.528  12.616  1.0463  1.8730  0.1850
 5243TIP3    H237145   4.027   2.443  12.681  1.2205  0.2477 -1.5458
 5244TIP3   OH237146   5.722   2.865  14.960 -0.6656  0.1344 -0.2764
 5244TIP3    H137147   5.664   2.798  14.924 -0.0025 -0.9738  0.6422
 5244TIP3    H237148   5.707   2.861  15.055  1.0646 -0.3499  0.0077
 5245TIP3   OH237149   1.533   5.396   2.776  0.1339  0.0846  0.1815
 5245TIP3    H137150   1.526   5.304   2.750  0.9874  0.1638 -0.3624
 5245TIP3    H237151   1.500   5.398   2.866  0.0735 -0.7493  0.1851
 5246TIP3   OH237152   5.059   6.591   4.593 -0.0088  0.1112  0.1765
 5246TIP3    H137153   5.052   6.558   4.683 -2.6581  0.7958  0.3053
 5246TIP3    H237154   4.977   6.566   4.552  0.7556  0.6616 -1.8054
 5247TIP3   OH237155   4.293   3.141   1.754  0.1496 -0.2249 -0.6934
 5247TIP3    H137156   4.200   3.122   1.762  0.2805 -0.5729  0.0931
 5247TIP3    H237157   4.313   3.125   1.662 -0.5664 -0.1472 -0.8669
 5248TIP3   OH237158   5.123   0.213   3.598  0.5058  0.0127 -0.0656
 5248TIP3    H137159   5.047   0.195   3.543  1.1263 -1.6839 -0.4378
 5248TIP3    H237160   5.194   0.161   3.559  1.0313 -1.0733  2.1465
 5249TIP3   OH237161   1.475   3.620   2.402  0.5403 -0.4049  0.3110
 5249TIP3    H137162   1.453   3.548   2.461  0.6262 -0.6400  0.0571
 5249TIP3    H237163   1.506   3.577   2.322 -0.2751 -0.0910 -0.1795
 5250TIP3   OH237164   6.533   6.225  12.011 -0.2069  0.2700  0.1134
 5250TIP3    H137165   6.440   6.227  11.988  0.1294  0.3904 -1.3676
 5250TIP3    H237166   6.541   6.153  12.074 -1.4169  0.7595  0.8441
 5251TIP3   OH237167   0.925   1.336  12.661 -0.1373 -0.1749  0.0770
 5251TIP3    H137168   0.837   1.362  12.635 -1.2949 -3.1736  0.6847
 5251TIP3    H237169   0.961   1.290  12.586  0.4237 -0.1365  0.3097
 5252TIP3   OH237170   4.707   4.020   2.736 -0.4945 -0.6715  0.5353
 5252TIP3    H137171   4.696   3.985   2.824 -0.1285 -1.3421  0.3213
 5252TIP3    H237172   4.624   4.001   2.691 -0.7266 -0.2202  0.7669
 5253TIP3   OH237173   1.608   6.646   2.490 -0.4112  0.1126 -0.5105
 5253TIP3    H137174   1.604   6.573   2.552  0.9154  0.8224  0.4459
 5253TIP3    H237175   1.627   6.722   2.544 -0.5406  0.9702 -1.6470
 5254TIP3   OH237176   0.740   5.180   1.170  0.1091 -0.9715  0.5007
 5254TIP3    H137177   0.773   5.242   1.105  0.2301 -1.3626  0.1866
 5254TIP3    H237178   0.711   5.235   1.243  0.6926 -0.5742  0.4423
 5255TIP3   OH237179   0.035   3.722  16.683 -0.2198 -0.1772 -0.5002
 5255TIP3    H137180   0.076   3.761  16.760 -1.4565  1.0865 -0.4285
 5255TIP3    H237181   0.103   3.726  16.615  0.5292 -0.3045  0.2297
 5256TIP3   OH237182   2.843   6.728   4.367  0.5241  0.2131  0.0959
 5256TIP3    H137183   2.813   6.690   4.285 -1.3482  2.7779 -0.5479
 5256TIP3    H237184   2.823   6.662   4.433  0.5980 -1.2659 -1.2851
 5257TIP3   OH237185   4.334   0.388  14.279 -0.6080  0.4267 -0.1720
 5257TIP3    H137186   4.420   0.385  14.238 -0.7441  2.3527 -0.7152
 5257TIP3    H237187   4.328   0.306  14.328  1.1023 -0.2173 -0.9383
 5258TIP3   OH237188   3.201   3.151  17.294 -0.1341 -0.2482 -0.3707
 5258TIP3    H137189   3.216   3.130  17.386 -0.7400  0.4784 -0.0914
 5258TIP3    H237190   3.109   3.178  17.291 -0.3175 -0.9395 -1.3216
 5259TIP3   OH237191   5.492   1.316  11.537 -0.5380  0.3626  0.6029
 5259TIP3    H137192   5.554   1.290  11.605 -0.2087 -1.6184 -0.3946
 5259TIP3    H237193   5.426   1.247  11.537 -3.3184  2.8021  2.2029
 5260TIP3   OH237194   1.946   1.551   2.903 -0.3568 -0.0170  0.1211
 5260TIP3    H137195   1.882   1.528   2.836 -0.1756 -1.5472  0.4310
 5260TIP3    H237196   1.900   1.614   2.959 -1.7126 -1.2905  0.5073
 5261TIP3   OH237197   4.104   2.307   3.170 -0.5249 -0.4085 -0.7010
 5261TIP3    H137198   4.166   2.326   3.241 -0.6222 -0.4356 -0.6097
 5261TIP3    H237199   4.111   2.383   3.112  0.6517 -1.0484 -1.4395
 5262TIP3   OH237200   0.992   0.318   2.523 -0.3074  0.6658 -0.2918
 5262TIP3    H137201   1.047   0.301   2.446  0.5614  0.5916  0.3209
 5262TIP3    H237202   0.904   0.331   2.488 -0.5067 -2.1713 -1.0657
 5263TIP3   OH237203   6.023   5.302  16.824 -0.3478 -0.0947 -0.4071
 5263TIP3    H137204   5.974   5.314  16.743  0.0476 -2.0572 -1.0002
 5263TIP3    H237205   5.967   5.336  16.893 -0.1082  2.9611 -1.5916
 5264TIP3   OH237206   0.582   5.585  16.499 -0.2414  0.5651 -0.3398
 5264TIP3    H137207   0.489   5.589  16.522 -0.2126  0.3117 -0.1740
 5264TIP3    H237208   0.606   5.675  16.479  0.0521  1.0634  1.9311
 5265TIP3   OH237209   2.989   5.117   3.912  0.6859 -0.5982  0.0340
 5265TIP3    H137210   2.913   5.087   3.862  0.2699  0.0450  0.2667
 5265TIP3    H237211   3.019   5.039   3.958 -0.1208 -0.7664  0.3017
 5266TIP3   OH237212   6.413   6.733   4.345  0.9530  0.3142 -0.1153
 5266TIP3    H137213   6.370   6.777   4.418 -1.0814 -0.0197 -1.0610
 5266TIP3    H237214   6.439   6.648   4.381  2.1717  1.0663  0.8624
 5267TIP3   OH237215   6.127   1.463  16.175 -0.1383  0.5151 -0.8309
 5267TIP3    H137216   6.081   1.379  16.182  0.1906  0.4301  0.8622
 5267TIP3    H237217   6.063   1.527  16.209  0.4308  0.6026  0.1090
 5268TIP3   OH237218   0.753   3.151  11.602  0.1048 -0.8013 -0.0966
 5268TIP3    H137219   0.707   3.126  11.682  1.0625 -0.8934  0.4426
 5268TIP3    H237220   0.820   3.213  11.631 -0.5112  0.3432 -1.0449
 5269TIP3   OH237221   4.175   4.948   5.560  0.0974 -0.2766 -0.2780
 5269TIP3    H137222   4.110   4.968   5.627  0.8490  0.7979  0.1702
 5269TIP3    H237223   4.203   4.858   5.579  0.4969  0.1084  1.0474
 5270TIP3   OH237224   5.589   1.073  16.899  0.5968 -0.4747  0.6334
 5270TIP3    H137225   5.596   1.163  16.932 -0.5476  0.3459 -1.1747
 5270TIP3    H237226   5.678   1.038  16.906  0.9526  0.5998  1.8769
 5271TIP3   OH237227   3.076   4.499   1.312  0.0180 -0.5140  0.6312
 5271TIP3    H137228   3.134   4.443   1.261  0.0799  0.2233 -0.1379
 5271TIP3    H237229   3.002   4.443   1.335 -1.8513 -0.0959 -3.3770
 5272TIP3   OH237230   3.670   2.791   4.047  0.1816  0.5371  0.5361
 5272TIP3    H137231   3.725   2.784   4.125 -0.6754  0.0086  1.1121
 5272TIP3    H237232   3.711   2.734   3.983  0.1776 -0.0462  1.0451
 5273TIP3   OH237233   0.987   1.329  11.791  0.0661  0.3685 -0.1486
 5273TIP3    H137234   0.938   1.272  11.851 -0.5072 -0.5813 -1.4681
 5273TIP3    H237235   1.025   1.269  11.727  1.3863  1.2866 -0.2453
 5274TIP3   OH237236   5.554   4.639  15.812 -0.1403 -0.1441 -0.4552
 5274TIP3    H137237   5.606   4.610  15.737 -1.2765 -0.2824 -1.2179
 5274TIP3    H237238   5.545   4.561  15.867 -0.0172 -0.2579 -0.5944
 5275TIP3   OH237239   3.101   1.923   5.266 -0.4313 -0.5896 -0.3874
 5275TIP3    H137240   3.149   1.842   5.247 -2.3562 -1.8562 -0.2453
 5275TIP3    H237241   3.107   1.933   5.361 -0.0883 -0.4920 -0.4184
 5276TIP3   OH237242   0.620   4.407   6.294 -0.1123  0.0712 -0.5989
 5276TIP3    H137243   0.681   4.458   6.241 -0.0989 -0.2574 -0.9074
 5276TIP3    H237244   0.543   4.463   6.304  0.1547  0.4020 -0.3899
 5277TIP3   OH237245   1.279   0.786   6.245 -0.5546  0.4709  0.0561
 5277TIP3    H137246   1.335   0.739   6.183 -2.0084 -0.1578 -0.8146
 5277TIP3    H237247   1.331   0.790   6.325  2.1811  2.9973 -1.6442
 5278TIP3   OH237248   5.499   3.852  14.461 -0.2294 -0.2997 -0.6340
 5278TIP3    H137249   5.514   3.791  14.534  2.0468 -0.3852 -1.0888
 5278TIP3    H237250   5.532   3.936  14.493  0.4389 -0.2531 -1.4104
 5279TIP3   OH237251   6.391   4.222  12.750  0.7488  0.0996  0.3841
 5279TIP3    H137252   6.430   4.213  12.663 -0.0285 -0.7157  0.1040
 5279TIP3    H237253   6.310   4.271  12.735 -0.1469 -1.3365  0.4066
 5280TIP3   OH237254   0.456   6.275  12.116  0.2963 -0.6202 -0.0010
 5280TIP3    H137255   0.544   6.239  12.113  0.3628 -0.4143 -0.6858
 5280TIP3    H237256   0.424   6.269  12.026 -0.6440 -1.3092  0.3534
 5281TIP3   OH237257   3.429   0.854  14.391 -0.0469 -0.5672  0.7619
 5281TIP3    H137258   3.336   0.855  14.414 -0.0924  0.1430  0.5800
 5281TIP3    H237259   3.448   0.944  14.364 -0.0448 -1.3673 -2.2106
 5282TIP3   OH237260   3.140   2.081   0.678 -0.0019 -0.2673 -0.1108
 5282TIP3    H137261   3.061   2.119   0.637 -0.8726 -0.5787  1.2180
 5282TIP3    H237262   3.131   1.987   0.665 -0.8008 -0.4670  1.5758
 5283TIP3   OH237263   5.194   3.165   3.942  0.1627 -0.5531  0.6821
 5283TIP3    H137264   5.180   3.246   3.894  1.3313 -1.9034 -2.1667
 5283TIP3    H237265   5.112   3.116   3.933  0.3760 -0.7984  0.0644
 5284TIP3   OH237266   0.033   0.700   4.104  0.4577 -0.2394 -0.1224
 5284TIP3    H137267  -0.005   0.735   4.024  3.1607  0.8898 -1.0330
 5284TIP3    H237268   0.022   0.605   4.098  0.0247 -0.1149 -1.4682
 5285TIP3   OH237269   6.627   5.054  15.008  0.0536 -0.7880 -0.1243
 5285TIP3    H137270   6.624   5.034  15.102 -1.5416  0.1555  0.0625
 5285TIP3    H237271   6.719   5.075  14.991  0.1583  0.2532  1.4999
 5286TIP3   OH237272   2.352   5.076  16.518  0.0156  0.5781 -0.3445
 5286TIP3    H137273   2.393   5.001  16.562  0.6901 -0.1491 -2.1111
 5286TIP3    H237274   2.411   5.097  16.445 -1.2687  1.4011 -1.2019
 5287TIP3   OH237275   1.806   0.533   0.860 -0.0489  0.4925  0.0783
 5287TIP3    H137276   1.729   0.554   0.912 -0.5413 -1.2960  0.1176
 5287TIP3    H237277   1.801   0.592   0.784 -2.4569 -0.7852 -0.8359
 5288TIP3   OH237278   1.866   1.721  12.071  0.0875  0.2477  0.2682
 5288TIP3    H137279   1.813   1.799  12.052 -3.0734 -1.7122  0.2959
 5288TIP3    H237280   1.883   1.725  12.165 -1.3163  0.2496  0.5474
 5289TIP3   OH237281   5.843   6.537   3.056  0.4557 -0.4884  0.0764
 5289TIP3    H137282   5.782   6.485   3.109  1.8308 -1.5903  0.6459
 5289TIP3    H237283   5.881   6.474   2.995  0.4129  0.3574 -0.8415
 5290TIP3   OH237284   0.861   1.246   2.830 -0.1776 -0.5333 -0.1308
 5290TIP3    H137285   0.855   1.256   2.735  2.2267 -1.1440 -0.4204
 5290TIP3    H237286   0.854   1.151   2.844 -2.0004 -0.3458  0.4955
 5291TIP3   OH237287   4.817   2.424  14.174 -0.3641 -0.2902 -0.3495
 5291TIP3    H137288   4.816   2.490  14.243  0.0431 -0.9625  0.3062
 5291TIP3    H237289   4.737   2.441  14.123  0.1954  1.2863 -0.7608
 5292TIP3   OH237290   6.146   1.654  11.606  0.7746  0.2603 -0.3968
 5292TIP3    H137291   6.108   1.669  11.693  0.0015 -1.9080 -0.3118
 5292TIP3    H237292   6.240   1.642  11.623  0.5431 -0.7608  0.2465
 5293TIP3   OH237293   2.183   1.291   1.519  0.2644 -0.3585  0.0759
 5293TIP3    H137294   2.266   1.284   1.471 -0.1533 -1.5099 -0.5145
 5293TIP3    H237295   2.209   1.288   1.611  0.7648 -2.7927 -0.0927
 5294TIP3   OH237296   2.693   1.443   0.362 -0.1541 -0.1538 -0.4728
 5294TIP3    H137297   2.691   1.406   0.451  2.5517  1.4200  0.3613
 5294TIP3    H237298   2.614   1.409   0.320 -2.1417 -0.0804  2.8713
 5295TIP3   OH237299   5.429   1.510   4.364 -0.2855 -0.7227  0.6000
 5295TIP3    H137300   5.456   1.480   4.278  2.4429  0.6076  0.8996
 5295TIP3    H237301   5.509   1.511   4.416 -1.5787 -0.0054  2.7228
 5296TIP3   OH237302   1.730   2.576  17.010 -0.2697 -0.2565  0.1524
 5296TIP3    H137303   1.714   2.639  17.080  1.7527 -2.6739  3.0298
 5296TIP3    H237304   1.672   2.503  17.031  2.7778 -2.4696  1.5315
 5297TIP3   OH237305   5.172   0.317  16.715  0.6952 -0.5182  0.4335
 5297TIP3    H137306   5.151   0.252  16.783  0.2810 -1.1931 -0.3273
 5297TIP3    H237307   5.202   0.266  16.641  2.0078  0.2688  0.3906
 5298TIP3   OH237308   0.087   5.918  13.697 -0.2980  0.3009 -0.1889
 5298TIP3    H137309   0.165   5.942  13.746 -0.5328  2.2645 -0.6953
 5298TIP3    H237310   0.117   5.903  13.608 -0.4426  0.8037 -0.3277
 5299TIP3   OH237311   2.939   4.545  11.650  0.4111  0.0365  0.0717
 5299TIP3    H137312   2.906   4.631  11.676  2.3182  1.2050 -1.0819
 5299TIP3    H237313   2.930   4.544  11.555  0.3747 -1.0733  0.0746
 5300TIP3   OH237314   5.713   1.244  11.695 -0.4851  0.5473  0.1486
 5300TIP3    H137315   5.747   1.232  11.606  1.3205  0.4449  0.7957
 5300TIP3    H237316   5.670   1.162  11.716  1.6173 -0.5831  0.3666
 5301TIP3   OH237317   1.421   2.719  11.319 -0.3762 -0.5176 -0.2276
 5301TIP3    H137318   1.484   2.770  11.370  0.2889 -0.7241 -0.8147
 5301TIP3    H237319   1.362   2.784  11.281  0.2676 -0.1983 -0.7042
 5302TIP3   OH237320   3.182   3.800   2.954 -0.0333  0.1212  0.3907
 5302TIP3    H137321   3.149   3.877   3.000  0.4454  0.7845 -0.3495
 5302TIP3    H237322   3.266   3.828   2.917 -1.1224  0.1754 -2.2421
 5303TIP3   OH237323   4.303   4.596  11.279 -0.9410 -0.0132  0.4096
 5303TIP3    H137324   4.290   4.567  11.189  1.3373  0.3905 -0.1236
 5303TIP3    H237325   4.279   4.689  11.278 -1.7443 -0.2094  0.4629
 5304TIP3   OH237326   0.043   0.687  16.602  0.8172  0.1693 -0.0627
 5304TIP3    H137327   0.131   0.703  16.567 -0.0172  1.4106 -1.7476
 5304TIP3    H237328   0.009   0.615  16.549  0.9825 -0.6532  0.9293
 5305TIP3   OH237329   2.868   6.179  17.128  0.3667 -0.4985 -0.3381
 5305TIP3    H137330   2.892   6.171  17.035 -1.0477  1.1357 -0.8969
 5305TIP3    H237331   2.804   6.250  17.130 -2.0285 -2.5485  1.4832
 5306TIP3   OH237332   1.575   0.170  13.571  0.0226 -0.2450 -0.0469
 5306TIP3    H137333   1.633   0.095  13.557 -0.2045 -1.3623  3.7968
 5306TIP3    H237334   1.491   0.131  13.592 -0.5013  1.1485  0.5456
 5307TIP3   OH237335   3.849   4.794   0.580  0.3014 -0.4501  0.2588
 5307TIP3    H137336   3.880   4.791   0.671 -1.6207 -2.1051  0.9233
 5307TIP3    H237337   3.759   4.763   0.584  0.0797 -0.3225 -2.2049
 5308TIP3   OH237338   0.215   3.248  15.008 -0.1645  0.5169 -0.4405
 5308TIP3    H137339   0.293   3.251  15.064 -0.5044  0.8399  0.0239
 5308TIP3    H237340   0.192   3.340  14.994  0.2807  0.4625 -1.6408
 5309TIP3   OH237341   5.759   1.537  13.886  0.2182  0.3763 -0.2942
 5309TIP3    H137342   5.824   1.474  13.855 -0.0752 -0.3767  0.5657
 5309TIP3    H237343   5.693   1.539  13.818  0.0436 -0.5445 -0.1592
 5310TIP3   OH237344   0.440   1.401  15.438 -0.0714  0.5270  0.2899
 5310TIP3    H137345   0.479   1.447  15.363  1.7660 -0.5205  0.5388
 5310TIP3    H237346   0.408   1.319  15.402  0.5535  0.1481  0.5797
 5311TIP3   OH237347   0.195   4.330   3.380  0.3727  0.2236  0.2722
 5311TIP3    H137348   0.110   4.287   3.366  1.0078 -1.1632  0.5240
 5311TIP3    H237349   0.192   4.407   3.323 -0.4165 -0.6978 -1.0020
 5312TIP3   OH237350   2.591   3.393  15.000 -0.3950  0.1093 -0.0550
 5312TIP3    H137351   2.534   3.437  15.063 -0.5980  0.4725 -0.4866
 5312TIP3    H237352   2.577   3.299  15.015 -1.5521  0.1893 -0.5459
 5313TIP3   OH237353   0.061   5.042   3.986 -0.1591 -0.6681 -0.0998
 5313TIP3    H137354   0.044   4.979   4.055  0.3917 -0.6521  0.0548
 5313TIP3    H237355   0.042   4.995   3.905 -0.2685 -0.8613  0.0379
 5314TIP3   OH237356   3.184   1.484   0.785  0.4767  0.1341 -0.0606
 5314TIP3    H137357   3.119   1.430   0.830  0.2237 -1.6261 -2.3700
 5314TIP3    H237358   3.136   1.524   0.713  1.1611  1.8441  0.3832
 5315TIP3   OH237359   2.639   3.081   3.316  0.3801  0.1168 -0.8101
 5315TIP3    H137360   2.598   2.994   3.317 -1.1912  0.8059  0.6116
 5315TIP3    H237361   2.670   3.093   3.405  2.1825  0.3358 -1.4422
 5316TIP3   OH237362   1.899   5.531   3.381 -0.3162 -0.1376  0.2545
 5316TIP3    H137363   1.934   5.521   3.292  0.2977 -1.0120  0.5778
 5316TIP3    H237364   1.941   5.461   3.431 -0.3456  0.6084  1.3392
 5317TIP3   OH237365   4.146   2.118   0.890 -0.1348 -0.5944  0.0501
 5317TIP3    H137366   4.149   2.140   0.983  1.3804 -1.9644  0.3689
 5317TIP3    H237367   4.203   2.042   0.881  1.5270  0.7909 -2.3503
 5318TIP3   OH237368   2.536   1.214  12.961 -0.0171 -0.0363  0.6258
 5318TIP3    H137369   2.462   1.198  12.902 -0.7653 -0.6427  1.6939
 5318TIP3    H237370   2.500   1.271  13.029  1.3558  2.3632 -0.5138
 5319TIP3   OH237371   1.392   1.863  16.890 -0.3411  0.2163 -0.0575
 5319TIP3    H137372   1.367   1.951  16.919 -4.0871 -0.6959 -0.0378
 5319TIP3    H237373   1.370   1.862  16.796  1.8611 -0.0794 -0.6306
 5320TIP3   OH237374   6.153   5.394   3.932  0.0252 -0.0944  0.1635
 5320TIP3    H137375   6.215   5.377   4.003 -0.0509 -0.1859  0.2097
 5320TIP3    H237376   6.135   5.488   3.937  1.4329  0.2537 -0.9030
 5321TIP3   OH237377   2.879   0.976  16.365 -0.2409  0.6652 -0.3461
 5321TIP3    H137378   2.863   0.960  16.272 -1.1672  1.3901 -0.3271
 5321TIP3    H237379   2.915   1.065  16.369  0.6128  0.3158 -0.0801
 5322TIP3   OH237380   1.857   3.961   5.082 -0.1112  0.2419  0.3354
 5322TIP3    H137381   1.809   4.042   5.063  1.6424  1.6545  1.5834
 5322TIP3    H237382   1.947   3.981   5.058  0.4863 -1.1050  1.3659
 5323TIP3   OH237383   1.708   6.511   2.244 -0.0914  0.3746 -0.6040
 5323TIP3    H137384   1.715   6.426   2.287  0.7959  0.6441 -0.1888
 5323TIP3    H237385   1.687   6.572   2.314  2.4626  0.9970 -0.2600
 5324TIP3   OH237386   3.911   5.845  12.004 -0.2695  0.5983 -0.1777
 5324TIP3    H137387   3.956   5.897  12.071 -3.1155  1.1460  1.5263
 5324TIP3    H237388   3.889   5.908  11.936  0.8372  0.4825 -0.6543
 5325TIP3   OH237389   6.090   3.341   2.579 -0.0565  0.1886 -0.1907
 5325TIP3    H137390   6.072   3.435   2.581 -0.9387  0.0186  1.2551
 5325TIP3    H237391   6.010   3.301   2.546 -0.3395 -0.1686  0.8899
 5326TIP3   OH237392   6.150   3.670   5.040  0.0671 -0.5398  0.5346
 5326TIP3    H137393   6.168   3.641   4.951 -0.8100  0.8498 -0.1350
 5326TIP3    H237394   6.208   3.744   5.054 -0.1684 -0.4218  0.9155
 5327TIP3   OH237395   3.803   0.587   3.011 -0.0960 -0.2320 -0.2035
 5327TIP3    H137396   3.719   0.560   2.975 -1.2625  1.2992  1.2454
 5327TIP3    H237397   3.815   0.532   3.089 -0.5426  0.6318  0.4873
 5328TIP3   OH237398   3.416   4.880   2.330  0.4124 -0.5353 -0.6328
 5328TIP3    H137399   3.406   4.799   2.280  0.6025 -0.3515 -0.9664
 5328TIP3    H237400   3.420   4.851   2.422  0.4403 -0.8990 -0.7486
 5329TIP3   OH237401   3.221   0.227   6.435  0.1271 -0.3047  0.6248
 5329TIP3    H137402   3.232   0.133   6.425  0.8139 -0.0437 -1.7492
 5329TIP3    H237403   3.300   0.265   6.396 -1.7173  1.2784 -1.9744
 5330TIP3   OH237404   6.158   1.172   4.245  0.2529 -0.0075  0.4846
 5330TIP3    H137405   6.178   1.139   4.158  0.9469 -0.9060  0.9691
 5330TIP3    H237406   6.122   1.260   4.230  0.4627 -0.1125 -0.6892
 5331TIP3   OH237407   6.435   6.486  12.218 -0.0567  0.0141 -0.0953
 5331TIP3    H137408   6.412   6.544  12.145 -0.7194 -2.0210 -1.5933
 5331TIP3    H237409   6.518   6.446  12.193  0.1791 -0.0248  0.7146
 5332TIP3   OH237410   2.424   3.847  14.652  0.1110  0.2991  0.6989
 5332TIP3    H137411   2.391   3.782  14.590 -0.6109  0.4850  0.8815
 5332TIP3    H237412   2.349   3.870  14.706  0.5454  0.7175  1.1431
 5333TIP3   OH237413   6.627   6.096   6.580 -0.2232 -0.4293  0.3684
 5333TIP3    H137414   6.693   6.128   6.642 -0.2908 -0.5655  0.5140
 5333TIP3    H237415   6.558   6.162   6.582 -0.4432 -0.6664  0.8009
 5334TIP3   OH237416   2.703   2.454  16.848 -0.2236 -0.0344  0.6122
 5334TIP3    H137417   2.770   2.386  16.844  0.6566  0.7401  1.7260
 5334TIP3    H237418   2.636   2.420  16.907 -1.8215 -1.6074 -1.8995
 5335TIP3   OH237419   4.252   4.782   0.210 -0.3112  0.0283 -0.2171
 5335TIP3    H137420   4.244   4.687   0.217  1.0485 -0.0657  0.3125
 5335TIP3    H237421   4.246   4.813   0.300  2.8860  0.0777  0.1082
 5336TIP3   OH237422   4.685   0.259   6.757  0.1680 -0.7259 -0.4362
 5336TIP3    H137423   4.682   0.209   6.839 -1.8694 -0.9172 -0.5835
 5336TIP3    H237424   4.709   0.348   6.784  0.9353 -1.1049  0.1802
 5337TIP3   OH237425   1.049   5.212   0.876 -0.0317 -0.0059  0.0303
 5337TIP3    H137426   1.126   5.165   0.908  0.6967  1.6686  0.8586
 5337TIP3    H237427   1.074   5.241   0.788  0.2426  0.3983  0.2364
 5338TIP3   OH237428   3.093   2.111  15.745 -0.4350 -0.6835 -0.3196
 5338TIP3    H137429   3.014   2.127  15.694 -0.1001 -0.1075 -0.6700
 5338TIP3    H237430   3.131   2.197  15.759  1.3308 -1.0879 -2.1301
 5339TIP3   OH237431   0.851   4.039   3.767 -0.1572  0.1620 -0.3282
 5339TIP3    H137432   0.924   4.094   3.798  0.4135 -0.1496 -1.0839
 5339TIP3    H237433   0.782   4.102   3.746 -0.3788  0.4184  1.0508
 5340TIP3   OH237434   1.187   2.798  13.782 -0.3590 -0.3452  0.3838
 5340TIP3    H137435   1.174   2.742  13.858 -1.4137 -0.9040 -0.1929
 5340TIP3    H237436   1.132   2.760  13.713 -2.6792  2.4399  0.5032
 5341TIP3   OH237437   4.402   0.553  12.790  0.0658 -0.2317  0.4137
 5341TIP3    H137438   4.441   0.505  12.717  0.1757 -0.6819  0.7635
 5341TIP3    H237439   4.331   0.496  12.820 -0.5821  0.3705  0.0722
 5342TIP3   OH237440   3.305   4.143   0.050 -0.1416 -0.1514  0.0017
 5342TIP3    H137441   3.297   4.057   0.090 -0.5428 -1.1186 -2.0307
 5342TIP3    H237442   3.214   4.167   0.029  0.0448  0.3684 -0.2178
 5343TIP3   OH237443   2.809   1.087  15.824 -0.1261  0.0757  0.2232
 5343TIP3    H137444   2.752   1.124  15.757 -0.5822  0.2344  0.6986
 5343TIP3    H237445   2.873   1.157  15.842  0.0392  0.0075 -0.0905
 5344TIP3   OH237446   3.625   0.183   3.319  0.0390  0.1336  0.1306
 5344TIP3    H137447   3.530   0.198   3.326 -0.5783 -2.8426 -0.3631
 5344TIP3    H237448   3.660   0.210   3.403 -1.8401 -1.9886  1.7189
 5345TIP3   OH237449   3.537   3.888  14.387  0.0182  0.2928  0.0213
 5345TIP3    H137450   3.492   3.971  14.374  0.0604  0.0825 -1.6489
 5345TIP3    H237451   3.620   3.897  14.341  0.1465 -0.5742  0.0666
 5346TIP3   OH237452   5.896   3.486   6.144  0.1961 -0.1282 -0.5336
 5346TIP3    H137453   5.878   3.392   6.143  2.2072 -0.6830  2.1346
 5346TIP3    H237454   5.900   3.508   6.237 -1.4463  2.9276 -1.0566
 5347TIP3   OH237455   2.555   0.503  14.232  0.1917  0.3138 -0.2051
 5347TIP3    H137456   2.581   0.493  14.140 -1.9459  0.8046 -0.9173
 5347TIP3    H237457   2.500   0.426  14.249  1.1177 -0.1338  0.9160
 5348TIP3   OH237458   5.464   5.449   5.541 -0.1616 -0.4130 -0.8358
 5348TIP3    H137459   5.373   5.458   5.513 -0.2995 -1.5829 -0.8366
 5348TIP3    H237460   5.468   5.493   5.626 -0.6907 -0.2141 -0.9108
 5349TIP3   OH237461   1.921   6.611  16.434 -0.3400  0.0846  0.2045
 5349TIP3    H137462   1.900   6.697  16.470  0.8306 -0.3037  1.9457
 5349TIP3    H237463   1.997   6.582  16.484 -0.4595 -1.7991 -0.6190
 5350TIP3   OH237464   2.068   3.424  15.912 -0.1398  0.7182  0.1931
 5350TIP3    H137465   1.986   3.471  15.915 -0.6178 -0.1682  2.5251
 5350TIP3    H237466   2.135   3.492  15.905 -0.9756  1.4760 -0.8515
 5351TIP3   OH237467   4.154   6.219  11.718  0.1379  0.7416  0.0366
 5351TIP3    H137468   4.083   6.199  11.656 -0.5948  1.9657  0.4370
 5351TIP3    H237469   4.114   6.278  11.781  1.6840  1.9847 -0.0916
 5352TIP3   OH237470   0.568   1.142   3.328  0.5007  0.2873  0.0993
 5352TIP3    H137471   0.570   1.048   3.346  0.1450  0.1852 -0.3747
 5352TIP3    H237472   0.574   1.183   3.414  1.8645 -0.1526  0.2381
 5353TIP3   OH237473   3.440   3.415   0.003 -0.1540  0.7448  0.1319
 5353TIP3    H137474   3.439   3.368   0.087  1.8032 -1.8253 -1.1486
 5353TIP3    H237475   3.507   3.482   0.014 -0.6658  1.1317  0.9566
 5354TIP3   OH237476   3.296   3.157  12.793  0.0027 -0.1337 -0.0655
 5354TIP3    H137477   3.245   3.139  12.714 -2.2269 -0.9658  1.4465
 5354TIP3    H237478   3.230   3.180  12.859  1.4651 -2.0770  2.2637
 5355TIP3   OH237479   5.029   2.897  11.667  0.6275  0.2382 -0.2226
 5355TIP3    H137480   5.083   2.971  11.640 -0.1999  0.2178 -2.0745
 5355TIP3    H237481   4.943   2.935  11.684  0.6424 -0.0558  0.5613
 5356TIP3   OH237482   0.094   2.531   4.604 -0.0098  0.1300 -0.3080
 5356TIP3    H137483   0.068   2.545   4.695  0.2280 -2.4921  0.2477
 5356TIP3    H237484   0.151   2.606   4.583  0.2727  0.5806  1.8306
 5357TIP3   OH237485   2.797   4.386  15.449  0.4167 -0.8024 -0.1205
 5357TIP3    H137486   2.715   4.375  15.497  1.3565 -0.7930  1.5821
 5357TIP3    H237487   2.801   4.479  15.428  0.4579 -0.5997  0.7368
 5358TIP3   OH237488   2.300   6.357   1.856 -0.2421  0.3213 -0.0020
 5358TIP3    H137489   2.212   6.379   1.888  0.3802  1.3497  1.0496
 5358TIP3    H237490   2.355   6.430   1.885  1.0904 -0.6266 -0.0801
 5359TIP3   OH237491   2.210   1.114   0.555  0.6463 -0.0088  0.4150
 5359TIP3    H137492   2.145   1.086   0.618  0.0008  2.0058  0.7129
 5359TIP3    H237493   2.160   1.159   0.487  1.4214 -1.3311 -1.0865
 5360TIP3   OH237494   1.310   6.399  14.790 -0.1349 -0.3045 -0.1878
 5360TIP3    H137495   1.388   6.390  14.844 -1.0756 -2.2317  0.9374
 5360TIP3    H237496   1.240   6.419  14.852 -1.1540 -2.1199 -0.6832
 5361TIP3   OH237497   4.529   4.542  11.845  0.5182  0.2166  0.0311
 5361TIP3    H137498   4.603   4.499  11.803  0.7250  0.4101  0.1959
 5361TIP3    H237499   4.539   4.635  11.823 -0.7735  0.0083 -1.6224
 5362TIP3   OH237500   5.329   3.785   0.295  0.3045 -0.0663 -1.0656
 5362TIP3    H137501   5.324   3.870   0.338 -1.6743  0.8450 -2.9524
 5362TIP3    H237502   5.421   3.761   0.300  0.8771  2.0868 -0.3264
 5363TIP3   OH237503   0.536   3.544  17.443  0.3994 -0.2674 -0.1018
 5363TIP3    H137504   0.585   3.493  17.378 -1.8110 -0.8335 -1.4085
 5363TIP3    H237505   0.510   3.623  17.396 -0.8390 -0.4807  0.1909
 5364TIP3   OH237506   0.414   4.228  13.453 -0.0977 -0.2823  0.3708
 5364TIP3    H137507   0.324   4.215  13.483 -0.3335  0.6027  0.0715
 5364TIP3    H237508   0.467   4.182  13.517 -0.7382 -0.4276  0.8092
 5365TIP3   OH237509   0.414   3.328  15.206 -0.3239 -0.0232 -0.1830
 5365TIP3    H137510   0.451   3.414  15.184  2.0501 -1.0266 -0.5067
 5365TIP3    H237511   0.418   3.324  15.302  0.8827 -0.2587 -0.2237
 5366TIP3   OH237512   2.552   1.089   4.203 -0.3083  0.1837  0.0041
 5366TIP3    H137513   2.534   1.114   4.294  1.4759 -0.7531  0.6697
 5366TIP3    H237514   2.522   0.998   4.196 -0.0366  0.1069 -0.1985
 5367TIP3   OH237515   3.611   5.633  15.197  0.3841  0.1534  0.1739
 5367TIP3    H137516   3.644   5.717  15.165  0.0410 -0.4476 -1.8873
 5367TIP3    H237517   3.686   5.574  15.194  0.1306 -0.1462 -0.4724
 5368TIP3   OH237518   2.525   6.278   4.426 -0.3299 -0.0292 -0.2294
 5368TIP3    H137519   2.540   6.367   4.457  1.4746 -0.1889 -0.5272
 5368TIP3    H237520   2.445   6.283   4.374 -1.0405  1.1031  0.9042
 5369TIP3   OH237521   0.095   2.109   5.625  0.0588 -0.0848  0.1682
 5369TIP3    H137522   0.132   2.058   5.697 -2.3713 -2.1401  0.0778
 5369TIP3    H237523   0.058   2.187   5.668 -0.8113 -0.9809  1.0816
 5370TIP3   OH237524   0.441   1.669   5.058 -0.3432 -0.2144 -0.9682
 5370TIP3    H137525   0.450   1.758   5.024 -0.4536 -0.6045 -2.0543
 5370TIP3    H237526   0.370   1.675   5.122 -0.0716  0.5625 -0.7354
 5371TIP3   OH237527   0.239   1.897  15.224  0.0861  0.8662  0.4912
 5371TIP3    H137528   0.332   1.874  15.233  0.1399 -0.2004 -2.0250
 5371TIP3    H237529   0.238   1.968  15.159 -0.8084  1.4633  1.1393
 5372TIP3   OH237530   3.971   6.123  11.547  0.2139 -0.3518 -0.0061
 5372TIP3    H137531   3.960   6.046  11.492 -0.2751  0.0071 -0.4276
 5372TIP3    H237532   3.888   6.130  11.595 -0.7472  1.2898 -1.7820
 5373TIP3   OH237533   3.358   4.145   7.158  0.2265 -0.4191 -0.2822
 5373TIP3    H137534   3.290   4.110   7.101 -0.4139  0.0515  0.1749
 5373TIP3    H237535   3.322   4.228   7.190  0.6702 -0.5512  0.6011
 5374TIP3   OH237536   3.697   0.757  14.721 -0.6653  0.1231  0.5377
 5374TIP3    H137537   3.779   0.766  14.770  0.6421 -0.3069 -1.4208
 5374TIP3    H237538   3.671   0.847  14.701  0.8340  0.2544 -1.0711
 5375TIP3   OH237539   1.508   5.516  16.646  0.4218 -0.0382 -0.2668
 5375TIP3    H137540   1.457   5.597  16.649  0.5076 -0.0018  0.3074
 5375TIP3    H237541   1.479   5.467  16.723  2.2814  0.6064  0.9073
 5376TIP3   OH237542   5.134   3.781  11.321  0.0130  0.0730  0.4230
 5376TIP3    H137543   5.101   3.853  11.268  0.4726  0.6103  0.8564
 5376TIP3    H237544   5.103   3.702  11.276 -0.2732  0.5293 -0.1983
 5377TIP3   OH237545   1.449   6.685  14.767  0.1034  0.1006  0.4141
 5377TIP3    H137546   1.539   6.674  14.738 -0.7303 -3.4908 -1.3735
 5377TIP3    H237547   1.401   6.709  14.687 -0.7550  0.6035  1.0591
 5378TIP3   OH237548   5.428   4.330   3.799 -0.0645 -0.4865  0.1345
 5378TIP3    H137549   5.347   4.281   3.812 -1.2035  0.3410 -2.8841
 5378TIP3    H237550   5.493   4.264   3.779 -0.9152 -1.0071 -1.0513
 5379TIP3   OH237551   5.641   5.045  12.386  0.1401 -0.6394  0.0366
 5379TIP3    H137552   5.677   4.991  12.316 -0.5821 -0.3587 -0.5712
 5379TIP3    H237553   5.571   5.095  12.344 -0.4435 -0.6110  1.0047
 5380TIP3   OH237554   5.587   6.130   4.831  0.1415 -0.2026 -0.2490
 5380TIP3    H137555   5.522   6.142   4.762  0.8345 -0.2120 -0.9114
 5380TIP3    H237556   5.587   6.036   4.848 -2.2250  0.0792  1.9540
 5381TIP3   OH237557   4.323   0.417  15.472 -0.2506  0.1856 -0.5648
 5381TIP3    H137558   4.275   0.439  15.552  1.1691 -0.6772  0.5901
 5381TIP3    H237559   4.258   0.377  15.415 -0.6372 -2.7154  1.6728
 5382TIP3   OH237560   2.905   2.719  13.870  0.3352  0.2879  0.3405
 5382TIP3    H137561   2.811   2.700  13.874  0.1899  0.4523 -1.4268
 5382TIP3    H237562   2.947   2.632  13.873  0.2086  0.2655  2.1995
 5383TIP3   OH237563   5.125   2.193  15.470  0.1792  0.2883 -0.4112
 5383TIP3    H137564   5.130   2.114  15.524  0.1592 -0.1790 -1.0844
 5383TIP3    H237565   5.125   2.161  15.380  1.4622  1.1208 -0.7214
 5384TIP3   OH237566   0.272   0.973   6.737 -0.5381 -0.9246 -0.5112
 5384TIP3    H137567   0.295   0.937   6.651  1.1280 -0.3197 -0.3577
 5384TIP3    H237568   0.335   1.043   6.751 -0.8172 -0.9805  1.1993
 5385TIP3   OH237569   3.141   1.671  13.929 -0.2103 -0.4493  0.1063
 5385TIP3    H137570   3.126   1.579  13.950 -0.0491 -0.7315 -0.9493
 5385TIP3    H237571   3.224   1.693  13.972 -0.2153 -0.8174  0.3018
 5386TIP3   OH237572   3.940   6.360  15.101  0.0193  0.0822  0.2440
 5386TIP3    H137573   3.915   6.342  15.011  0.7897  0.9590 -0.1515
 5386TIP3    H237574   4.013   6.421  15.095 -1.3667  1.9750  1.4795
 5387TIP3   OH237575   3.590   5.337  15.531  0.4089  0.0033 -0.3152
 5387TIP3    H137576   3.631   5.281  15.465  0.3557 -0.5596  0.1294
 5387TIP3    H237577   3.593   5.286  15.612 -1.3471 -0.1571 -0.2984
 5388TIP3   OH237578   4.090   0.764   2.613 -0.6010  0.0287 -1.0513
 5388TIP3    H137579   4.078   0.671   2.595  1.9971 -0.4740 -0.5389
 5388TIP3    H237580   4.086   0.770   2.709  1.5687 -0.0009 -0.9153
 5389TIP3   OH237581   0.913   4.680  11.034 -0.1703  0.3873 -0.0483
 5389TIP3    H137582   0.830   4.657  10.993 -0.4337  1.6184 -0.2559
 5389TIP3    H237583   0.964   4.719  10.963  0.1724  0.6190  0.3211
 5390TIP3   OH237584   2.319   5.242  10.812 -0.3804 -0.4273 -0.5198
 5390TIP3    H137585   2.267   5.316  10.779 -1.3148 -0.8414 -0.0083
 5390TIP3    H237586   2.403   5.250  10.767 -1.0600 -0.0491 -1.7779
 5391TIP3   OH237587   5.949   5.098  11.602 -0.1714  0.1766  0.0884
 5391TIP3    H137588   5.861   5.091  11.639 -0.3703 -1.1166 -0.5517
 5391TIP3    H237589   6.002   5.133  11.673 -0.0112 -4.4032  2.6027
 5392TIP3   OH237590   3.598   3.552   3.682 -0.1133  0.5969  0.2928
 5392TIP3    H137591   3.515   3.562   3.635  0.5079 -2.0106 -1.5756
 5392TIP3    H237592   3.630   3.642   3.692 -1.2736  1.4454 -2.5189
 5393TIP3   OH237593   5.285   3.837   0.005  0.7034 -0.4064  0.4359
 5393TIP3    H137594   5.230   3.914   0.018  0.3357 -0.9009  2.0851
 5393TIP3    H237595   5.375   3.871   0.006  0.5902 -0.0811  2.1787
 5394TIP3   OH237596   1.905   4.205   4.988 -0.8209  0.1416 -0.2056
 5394TIP3    H137597   1.975   4.164   5.039 -0.2558 -0.1243 -1.1655
 5394TIP3    H237598   1.912   4.164   4.902 -0.7871  1.6390 -0.9421
 5395TIP3   OH237599   4.421   2.191   3.256 -0.1714 -0.0616  0.6707
 5395TIP3    H137600   4.462   2.175   3.341 -0.1814 -2.0182  0.3753
 5395TIP3    H237601   4.353   2.256   3.273 -0.3807 -0.6475  2.2379
 5396TIP3   OH237602   5.885   5.218  16.582  0.0416 -0.2399  0.1963
 5396TIP3    H137603   5.903   5.201  16.489 -0.8410 -1.4618  0.2151
 5396TIP3    H237604   5.911   5.137  16.626 -1.4454 -0.4401  0.7418
 5397TIP3   OH237605   3.070   1.753  16.189 -0.3969 -0.1094 -0.4329
 5397TIP3    H137606   3.130   1.685  16.159  0.7812  1.8651 -3.0032
 5397TIP3    H237607   2.996   1.749  16.129 -1.6569 -0.8458  1.1141
 5398TIP3   OH237608   1.246   3.262   0.691 -0.4317  0.3171 -0.5501
 5398TIP3    H137609   1.193   3.336   0.661 -2.7544 -0.7689  0.6368
 5398TIP3    H237610   1.184   3.189   0.697  0.9604 -0.7863  1.9151
 5399TIP3   OH237611   4.690   2.281   2.711  0.2854  1.0026 -0.1284
 5399TIP3    H137612   4.761   2.264   2.649 -0.2137 -2.0491 -0.0325
 5399TIP3    H237613   4.617   2.310   2.656  0.2544 -0.3605 -0.8376
 5400TIP3   OH237614   0.860   5.097   5.606 -0.2333 -0.1257 -0.3298
 5400TIP3    H137615   0.857   5.187   5.571  1.0993  0.1802  0.2748
 5400TIP3    H237616   0.951   5.070   5.595 -0.4160 -1.0674  0.3361
 5401TIP3   OH237617   2.937   6.380   0.667  0.6391 -0.4375  0.1668
 5401TIP3    H137618   2.898   6.447   0.612  0.3643  0.2917  1.2209
 5401TIP3    H237619   2.914   6.297   0.624 -0.8682  0.0432  0.0002
 5402TIP3   OH237620   2.975   1.090   3.981  0.0263  0.0630 -0.4808
 5402TIP3    H137621   3.061   1.095   4.022  0.4653 -2.2777 -0.9708
 5402TIP3    H237622   2.917   1.141   4.038  1.3033 -0.1720  1.0780
 5403TIP3   OH237623   0.215   5.499   5.057  0.0748 -0.2505 -0.0318
 5403TIP3    H137624   0.159   5.538   4.990  0.7396  0.4282 -0.2084
 5403TIP3    H237625   0.304   5.510   5.024  0.3393 -1.0246  0.3943
 5404TIP3   OH237626   1.915   0.694   5.355 -0.2834 -0.2544 -0.6231
 5404TIP3    H137627   1.891   0.697   5.263 -2.4654 -2.4474 -0.2176
 5404TIP3    H237628   1.928   0.601   5.375 -1.4671 -0.0192  1.6153
 5405TIP3   OH237629   0.610   5.945   1.164 -0.0397  0.6808 -0.2598
 5405TIP3    H137630   0.539   5.887   1.135  0.3825  0.8334 -1.6841
 5405TIP3    H237631   0.567   6.029   1.180 -0.3568  0.4740 -0.0149
 5406TIP3   OH237632   0.226   6.706  16.889 -0.1938  0.1448  0.1237
 5406TIP3    H137633   0.229   6.800  16.905 -0.1133  0.2080 -0.2419
 5406TIP3    H237634   0.273   6.666  16.962 -1.1983  0.3104  0.8877
 5407TIP3   OH237635   5.078   6.062  16.908 -0.1689  0.0916  0.1683
 5407TIP3    H137636   5.158   6.115  16.905 -0.8382  1.1456  0.4492
 5407TIP3    H237637   5.093   5.993  16.844 -0.1798  1.9563 -2.0066
 5408TIP3   OH237638   1.987   1.747   0.335  0.1166 -0.1236 -0.0138
 5408TIP3    H137639   2.010   1.787   0.251  0.1329 -1.9946 -0.9530
 5408TIP3    H237640   2.002   1.816   0.400  0.0555  1.3824 -1.5405
 5409TIP3   OH237641   0.679   5.717   6.228  0.7269  0.1923  0.1691
 5409TIP3    H137642   0.630   5.705   6.146  0.3343 -0.8008  0.5232
 5409TIP3    H237643   0.688   5.811   6.238  1.3299  0.3197 -1.3349
 5410TIP3   OH237644   4.820   6.040  16.451 -0.2297  0.0080 -0.6321
 5410TIP3    H137645   4.786   6.069  16.535  0.3183 -0.6200 -0.1795
 5410TIP3    H237646   4.800   6.111  16.391  0.3423  0.9431  0.2541
 5411TIP3   OH237647   4.521   0.542   0.036  0.0324 -0.6941 -0.2468
 5411TIP3    H137648   4.594   0.481   0.037  0.5510 -0.1286 -1.8255
 5411TIP3    H237649   4.554   0.620  -0.009 -0.8474  0.4781  1.0552
 5412TIP3   OH237650   3.528   5.944   5.835  0.1661 -0.4754  0.6482
 5412TIP3    H137651   3.598   5.993   5.793  1.0937 -1.2525  1.2418
 5412TIP3    H237652   3.448   5.980   5.798  0.8490  0.8831  0.4390
 5413TIP3   OH237653   1.202   0.293  12.216 -0.5148 -0.1359  0.6218
 5413TIP3    H137654   1.220   0.200  12.231  0.9274 -0.0037 -0.0535
 5413TIP3    H237655   1.215   0.334  12.301  0.6153 -0.3287  0.5607
 5414TIP3   OH237656   4.513   2.871  15.216  0.2424 -0.0067  0.0492
 5414TIP3    H137657   4.570   2.878  15.293 -0.3805  0.9320  0.4379
 5414TIP3    H237658   4.572   2.886  15.142  0.7045 -0.1331  0.3817
 5415TIP3   OH237659   3.361   0.851  13.456 -0.2122 -0.8023  0.3729
 5415TIP3    H137660   3.374   0.768  13.409  0.0152 -0.7474  0.3373
 5415TIP3    H237661   3.405   0.916  13.402  2.1446 -1.0794  1.8014
 5416TIP3   OH237662   1.718   3.774   2.301  0.9179  0.8736 -0.1138
 5416TIP3    H137663   1.713   3.699   2.361 -0.8118  1.4852  0.5738
 5416TIP3    H237664   1.710   3.736   2.214  1.8619  0.1137  0.1180
 5417TIP3   OH237665   4.696   0.215  12.171 -0.9864  0.2275 -0.3732
 5417TIP3    H137666   4.715   0.257  12.087  0.2421  0.5052  0.0129
 5417TIP3    H237667   4.735   0.127  12.163  1.0246  0.9518  0.5881
 5418TIP3   OH237668   0.566   2.439   3.167  0.1038  0.4314  0.4925
 5418TIP3    H137669   0.570   2.488   3.085 -0.7824 -0.1425  0.0971
 5418TIP3    H237670   0.656   2.408   3.181  0.1183 -0.1001 -0.6599
 5419TIP3   OH237671   6.058   2.652  13.387 -0.1948 -0.3087 -0.2107
 5419TIP3    H137672   6.139   2.641  13.438 -1.2042  0.2924  1.6191
 5419TIP3    H237673   6.051   2.747  13.375 -1.0703 -0.2887  0.4159
 5420TIP3   OH237674   5.465   2.774  13.647  0.5103  0.3642 -0.2107
 5420TIP3    H137675   5.495   2.734  13.565  1.4208 -1.0467  0.7847
 5420TIP3    H237676   5.402   2.841  13.618  0.2370 -0.5951 -2.0244
 5421TIP3   OH237677   3.943   0.174   0.826 -0.4965 -0.2876  0.5587
 5421TIP3    H137678   4.002   0.234   0.780 -0.6850  0.0988  0.8168
 5421TIP3    H237679   4.002   0.118   0.877 -0.3395 -0.0040  0.6951
 5422TIP3   OH237680   5.066   0.656  12.593  0.2379 -0.0387  0.4332
 5422TIP3    H137681   5.108   0.741  12.606  1.6127 -0.8278  1.5144
 5422TIP3    H237682   5.096   0.604  12.667 -2.9176 -0.6263  1.4316
 5423TIP3   OH237683   6.257   1.024   5.319 -0.6374  0.2010  0.0440
 5423TIP3    H137684   6.292   1.025   5.408  0.5764  1.4021 -0.4163
 5423TIP3    H237685   6.180   0.968   5.325 -0.3155 -0.1315  1.7444
 5424TIP3   OH237686   1.665   5.399   1.237 -0.0024 -0.1815 -0.3443
 5424TIP3    H137687   1.631   5.443   1.159 -2.2430 -0.5136  0.3673
 5424TIP3    H237688   1.606   5.325   1.251  1.1495 -0.9254  0.9266
 5425TIP3   OH237689   0.026   4.977  17.190 -0.1781  0.5018 -0.1862
 5425TIP3    H137690   0.000   4.922  17.264  0.6370 -0.9694 -0.9588
 5425TIP3    H237691   0.122   4.971  17.188 -0.1487  1.0669 -0.9720
 5426TIP3   OH237692   1.106   0.520  13.130  0.2269  0.0100 -0.0091
 5426TIP3    H137693   1.195   0.503  13.161  0.5998 -0.5807 -1.3211
 5426TIP3    H237694   1.114   0.600  13.079 -0.1543  0.3565  0.4647
 5427TIP3   OH237695   3.383   0.765  12.192  0.8818 -0.3855 -0.0420
 5427TIP3    H137696   3.396   0.828  12.263  2.5684 -0.5373 -0.1645
 5427TIP3    H237697   3.318   0.806  12.135  2.0231  1.3324 -0.1794
 5428TIP3   OH237698   0.515   4.425  16.178  0.1157  0.5769  0.3370
 5428TIP3    H137699   0.491   4.388  16.093  1.4417  1.3758 -0.4245
 5428TIP3    H237700   0.474   4.511  16.179  0.1805  0.6063  0.4757
 5429TIP3   OH237701   3.582   3.683  10.854 -0.5954  0.1082 -0.1029
 5429TIP3    H137702   3.566   3.743  10.781 -0.4749 -0.3415 -0.5037
 5429TIP3    H237703   3.568   3.736  10.932 -0.0734  0.7726 -0.4497
 5430TIP3   OH237704   5.283   3.745   5.153  0.1177  0.4828  0.3768
 5430TIP3    H137705   5.370   3.720   5.185 -0.6936 -1.3946  1.2943
 5430TIP3    H237706   5.287   3.730   5.059  0.9922  1.1185  0.2985
 5431TIP3   OH237707   4.044   5.772   3.273 -0.7261  0.1211 -0.3002
 5431TIP3    H137708   4.023   5.685   3.239  0.1175 -0.3727  0.3996
 5431TIP3    H237709   3.966   5.799   3.322 -0.3739 -1.0051  0.9426
 5432TIP3   OH237710   3.903   0.265   5.226 -0.6131 -0.7421  0.0828
 5432TIP3    H137711   3.893   0.186   5.279 -1.9356 -0.3859  0.4040
 5432TIP3    H237712   3.836   0.257   5.159  0.1908 -0.5592 -0.7659
 5433TIP3   OH237713   0.764   3.867   4.169  0.1233 -0.4065  0.0468
 5433TIP3    H137714   0.856   3.850   4.188  0.0089 -1.3420 -0.1928
 5433TIP3    H237715   0.765   3.908   4.083  0.3305 -0.0675  0.2037
 5434TIP3   OH237716   3.630   1.389  14.164 -0.1376  0.3074 -0.0637
 5434TIP3    H137717   3.699   1.362  14.104  0.2217 -0.6206  0.7421
 5434TIP3    H237718   3.549   1.378  14.114  0.1505 -0.5326 -0.3545
 5435TIP3   OH237719   2.508   4.695   3.315  0.3491  0.0921  0.0063
 5435TIP3    H137720   2.588   4.743   3.336 -0.1293  0.6282  0.6354
 5435TIP3    H237721   2.439   4.742   3.362 -0.6233  0.7456 -1.9940
 5436TIP3   OH237722   5.606   3.651  10.895  0.6091 -0.2390 -0.5055
 5436TIP3    H137723   5.564   3.735  10.914 -0.0144 -0.8149  0.7896
 5436TIP3    H237724   5.692   3.675  10.860  0.5327  0.9423  0.0504
 5437TIP3   OH237725   3.672   2.240  14.106 -0.5557  0.4094  0.1647
 5437TIP3    H137726   3.690   2.146  14.100 -0.3606  0.4785 -0.4066
 5437TIP3    H237727   3.663   2.268  14.015 -0.0388  1.0563  0.3071
 5438TIP3   OH237728   4.037   3.449   3.408  0.9531  0.1103  0.3062
 5438TIP3    H137729   4.104   3.393   3.369 -1.6925 -2.8907 -0.3638
 5438TIP3    H237730   3.996   3.394   3.475  0.5530  2.6290  2.3130
 5439TIP3   OH237731   1.806   2.411   3.164  0.2223 -0.1438 -0.9825
 5439TIP3    H137732   1.874   2.472   3.190 -1.0689  0.5278  1.0714
 5439TIP3    H237733   1.780   2.438   3.076  2.0001  0.0855 -1.4632
 5440TIP3   OH237734   4.166   6.039   1.704 -0.0942 -0.1855  0.2986
 5440TIP3    H137735   4.125   6.125   1.706  0.0192  0.0362 -2.7875
 5440TIP3    H237736   4.252   6.052   1.744 -0.6607  0.7349  1.2712
 5441TIP3   OH237737   2.180   5.933  12.095  0.5088 -0.4006 -0.0246
 5441TIP3    H137738   2.258   5.898  12.139  1.6134  1.0361 -0.7687
 5441TIP3    H237739   2.171   6.022  12.129 -1.7433 -1.0094  1.1829
 5442TIP3   OH237740   4.277   5.461  14.320  0.1942 -0.0870 -1.0543
 5442TIP3    H137741   4.208   5.396  14.329 -0.6715  0.8742 -0.4245
 5442TIP3    H237742   4.352   5.423  14.366 -0.1596 -0.8175 -1.0687
 5443TIP3   OH237743   6.487   5.896  12.420 -0.0614 -0.4138  0.2045
 5443TIP3    H137744   6.494   5.865  12.511  0.8011  1.5003  0.8284
 5443TIP3    H237745   6.542   5.974  12.417  0.3920 -0.7679 -2.1371
 5444TIP3   OH237746   6.374   4.395   5.781  0.2666 -0.7910  0.0408
 5444TIP3    H137747   6.362   4.400   5.686  0.9976  1.0562 -0.0040
 5444TIP3    H237748   6.443   4.460   5.800  1.3714 -2.3228  1.6421
 5445TIP3   OH237749   4.618   3.421   3.760 -0.4791  0.1391  0.1048
 5445TIP3    H137750   4.634   3.337   3.717 -0.7000  0.1810 -0.0612
 5445TIP3    H237751   4.604   3.398   3.852 -1.7474 -0.1440 -0.1391
 5446TIP3   OH237752   2.780   4.368   2.324  0.5710  0.1775  0.2203
 5446TIP3    H137753   2.787   4.288   2.376 -1.2613  1.4898  2.6992
 5446TIP3    H237754   2.860   4.416   2.344  0.5542  0.0196  0.6875
 5447TIP3   OH237755   4.718   4.878  14.486 -0.0235 -0.3431  0.5557
 5447TIP3    H137756   4.673   4.810  14.536 -1.2459  0.1378  0.1454
 5447TIP3    H237757   4.686   4.867  14.396  0.2579  0.3656  0.3629
 5448TIP3   OH237758   2.164   6.748  15.590 -0.7812 -0.0072  0.6524
 5448TIP3    H137759   2.069   6.757  15.588 -0.9458 -1.1890 -2.0630
 5448TIP3    H237760   2.197   6.825  15.543 -0.4933 -0.1720  0.5800
 5449TIP3   OH237761   4.649   4.610  15.482 -0.0079  0.0669 -0.0713
 5449TIP3    H137762   4.717   4.610  15.415 -0.0135 -0.9478 -0.0960
 5449TIP3    H237763   4.656   4.524  15.523 -0.9649  0.1243  0.2447
 5450TIP3   OH237764   3.087   1.657   0.209  0.0278  0.1610 -0.4735
 5450TIP3    H137765   3.180   1.638   0.207 -0.0351 -0.1235 -1.1619
 5450TIP3    H237766   3.062   1.648   0.301  0.6606  0.1721 -0.2980
 5451TIP3   OH237767   5.976   6.115  14.424 -0.4582 -0.4323 -0.0830
 5451TIP3    H137768   5.987   6.021  14.437 -1.1569 -0.5194 -0.0505
 5451TIP3    H237769   6.017   6.155  14.501 -0.6155 -0.7372  0.1628
 5452TIP3   OH237770   0.702   1.621   4.964  0.1192  0.1131 -0.0800
 5452TIP3    H137771   0.749   1.650   5.042 -1.8411  0.6019  1.0013
 5452TIP3    H237772   0.611   1.610   4.994 -1.2376  2.5504 -2.7421
 5453TIP3   OH237773   2.297   4.907  13.367  0.0952  0.0478  0.0197
 5453TIP3    H137774   2.360   4.851  13.322 -2.0798  0.0920 -3.4854
 5453TIP3    H237775   2.277   4.860  13.448  0.5442 -2.7867 -1.3748
 5454TIP3   OH237776   4.014   3.507   0.855 -1.0566  0.7912 -0.8045
 5454TIP3    H137777   4.030   3.600   0.841  2.9792  0.2565 -1.0052
 5454TIP3    H237778   3.985   3.475   0.769 -1.6017  1.6868 -0.9688
 5455TIP3   OH237779   5.593   1.598  14.654  0.3909  0.0193  0.1458
 5455TIP3    H137780   5.607   1.672  14.713  0.6677  1.7642 -2.0231
 5455TIP3    H237781   5.667   1.599  14.595 -0.6925 -0.6423 -1.2937
 5456TIP3   OH237782   1.049   3.286   3.847 -0.2656  0.0732  0.1583
 5456TIP3    H137783   1.056   3.380   3.866 -1.7323  0.0643  0.9282
 5456TIP3    H237784   0.959   3.275   3.816 -0.2444 -1.1385  0.4873
 5457TIP3   OH237785   2.041   5.537   0.890 -0.5961  0.0162  0.3260
 5457TIP3    H137786   2.124   5.493   0.870 -0.9761 -0.5883  0.0253
 5457TIP3    H237787   1.994   5.475   0.946 -0.8567  0.3387  0.4643
 5458TIP3   OH237788   5.967   3.645   1.164  0.3750 -0.7945 -0.3780
 5458TIP3    H137789   6.029   3.580   1.133  0.7969  0.1118 -1.5175
 5458TIP3    H237790   6.020   3.709   1.211 -0.0012 -1.1180  0.5146
 5459TIP3   OH237791   6.023   0.558  14.870 -0.0138  0.3278 -0.1516
 5459TIP3    H137792   5.937   0.585  14.835  0.0306  1.4084  0.5272
 5459TIP3    H237793   6.015   0.568  14.964  0.6221 -0.3239 -0.0202
 5460TIP3   OH237794   2.026   3.349   0.418  1.0886 -0.2140 -0.6358
 5460TIP3    H137795   2.066   3.351   0.505 -1.9327  0.9821  0.8806
 5460TIP3    H237796   1.986   3.262   0.411 -1.0402  0.5825  0.4929
 5461TIP3   OH237797   4.656   0.935   1.623 -0.1953 -0.7092  0.7759
 5461TIP3    H137798   4.567   0.932   1.657 -1.2555 -1.8907 -1.7953
 5461TIP3    H237799   4.700   0.859   1.661 -1.6285 -2.5436 -1.0007
 5462TIP3   OH237800   0.657   4.007   4.430 -0.2236  0.1393 -0.2980
 5462TIP3    H137801   0.684   3.947   4.361 -1.0968  1.2595 -1.6634
 5462TIP3    H237802   0.686   3.965   4.511  0.5053 -1.3825 -1.3038
 5463TIP3   OH237803   3.286   6.067  15.032 -0.4513  0.1894 -0.4085
 5463TIP3    H137804   3.217   6.005  15.059  1.0416 -1.5534 -0.3831
 5463TIP3    H237805   3.294   6.053  14.937 -1.1985  1.5611 -0.7010
 5464TIP3   OH237806   1.902   3.335  12.818 -0.1803 -0.3776 -0.1211
 5464TIP3    H137807   1.811   3.356  12.840 -0.6742 -2.5229  0.1158
 5464TIP3    H237808   1.953   3.402  12.864 -1.6283  1.4718 -1.0526
 5465TIP3   OH237809   2.493   0.232  17.376  0.3817 -0.1134  0.1439
 5465TIP3    H137810   2.398   0.219  17.369  0.5345 -0.6325 -1.4179
 5465TIP3    H237811   2.519   0.266  17.290  1.6347 -0.1263  0.4961
 5466TIP3   OH237812   3.600   4.722   0.660 -0.3574 -0.0892 -0.7332
 5466TIP3    H137813   3.533   4.766   0.713 -0.2028 -0.0027 -0.6081
 5466TIP3    H237814   3.576   4.629   0.664  0.2848 -0.2206  0.4124
 5467TIP3   OH237815   1.739   5.450   3.903 -0.0572  0.3663  0.1769
 5467TIP3    H137816   1.782   5.391   3.964  1.9747  0.3888 -1.1543
 5467TIP3    H237817   1.671   5.493   3.955  0.3148 -1.0247  1.8903
 5468TIP3   OH237818   6.257   1.400   1.975  0.0346 -0.1865 -0.6258
 5468TIP3    H137819   6.181   1.383   1.919  1.0088 -1.0805 -1.7284
 5468TIP3    H237820   6.288   1.487   1.947 -0.2460 -0.0615 -0.5560
 5469TIP3   OH237821   1.060   3.319  15.323 -0.1819  0.3590 -0.3670
 5469TIP3    H137822   1.023   3.408  15.322  1.2179  0.9767  0.1743
 5469TIP3    H237823   1.153   3.332  15.307  0.0869 -0.9966  0.0156
 5470TIP3   OH237824   1.058   1.210  14.198 -0.5761  0.0751  0.2486
 5470TIP3    H137825   1.003   1.135  14.176 -0.8278  0.7561 -1.5602
 5470TIP3    H237826   1.127   1.211  14.131  1.2337 -0.2910  1.9925
 5471TIP3   OH237827   5.061   6.251  11.963  0.9919 -0.5133  0.2556
 5471TIP3    H137828   5.063   6.304  11.884  2.2423 -0.4759  0.2931
 5471TIP3    H237829   4.972   6.214  11.966  0.1927  1.3164  0.0846
 5472TIP3   OH237830   0.801   6.449  14.636  0.3234  0.5535  0.0907
 5472TIP3    H137831   0.748   6.426  14.559  1.3469  0.7315 -0.6868
 5472TIP3    H237832   0.864   6.377  14.643 -0.4713 -0.0339  1.4573
 5473TIP3   OH237833   2.523   3.533   6.094  0.1471 -0.2167  0.4083
 5473TIP3    H137834   2.484   3.614   6.125 -0.6091 -0.3855 -0.0903
 5473TIP3    H237835   2.531   3.479   6.173  1.5090  0.6606  0.9092
 5474TIP3   OH237836   4.873   4.094   4.272  0.6914  0.6463 -0.3452
 5474TIP3    H137837   4.917   4.133   4.196  1.7988  0.4958  0.1908
 5474TIP3    H237838   4.880   4.000   4.258 -2.2823  0.5359 -1.8094
 5475TIP3   OH237839   4.173   0.290  15.279  0.5542 -0.1576 -0.2456
 5475TIP3    H137840   4.241   0.302  15.213 -0.3287 -1.4646 -1.4449
 5475TIP3    H237841   4.162   0.195  15.286 -0.4751  0.0039  0.6152
 5476TIP3   OH237842   1.701   6.291  12.127 -0.1172  0.0455  0.0859
 5476TIP3    H137843   1.650   6.242  12.191 -1.6047  1.6252  0.1855
 5476TIP3    H237844   1.650   6.286  12.046 -0.1331  1.1314  0.0147
 5477TIP3   OH237845   6.164   6.699  11.648  0.1428  0.3756 -0.1830
 5477TIP3    H137846   6.206   6.784  11.632 -0.4430  0.6804 -0.1626
 5477TIP3    H237847   6.158   6.658  11.562 -1.5100  1.2960 -0.5679
 5478TIP3   OH237848   1.955   2.162   5.158 -0.2579 -0.5370  0.6891
 5478TIP3    H137849   1.948   2.223   5.084  0.1860 -0.8492  0.3848
 5478TIP3    H237850   2.045   2.172   5.189 -1.0224  1.1719  2.5814
 5479TIP3   OH237851   3.352   3.848  16.977  0.2241  0.3107 -0.2657
 5479TIP3    H137852   3.324   3.931  16.940 -2.8021 -0.5775 -0.2164
 5479TIP3    H237853   3.379   3.869  17.066  1.2172  1.4423 -0.7969
 5480TIP3   OH237854   5.460   5.724   4.351 -0.5823 -0.1824  0.5541
 5480TIP3    H137855   5.372   5.694   4.372 -0.7858  0.0481  0.0416
 5480TIP3    H237856   5.446   5.807   4.306 -0.1241 -0.3897  0.0281
 5481TIP3   OH237857   2.009   2.260  14.294  0.2519  0.5447  0.4148
 5481TIP3    H137858   2.017   2.340  14.346 -0.6401  1.1552 -0.3503
 5481TIP3    H237859   2.063   2.196  14.340  0.7944  1.5163  1.1796
 5482TIP3   OH237860   6.339   3.427  14.303  0.0123  0.1443  0.2434
 5482TIP3    H137861   6.293   3.506  14.332  0.2865 -0.0263  1.1476
 5482TIP3    H237862   6.297   3.406  14.219 -0.7730  0.6520  0.4922
 5483TIP3   OH237863   3.887   5.281  16.231  0.3741 -0.2304 -0.4224
 5483TIP3    H137864   3.902   5.358  16.285  2.2871 -1.4887  0.9628
 5483TIP3    H237865   3.963   5.278  16.172  2.4750 -3.0223  2.1121
 5484TIP3   OH237866   2.164   4.236   1.654 -0.1016  0.1818 -0.2551
 5484TIP3    H137867   2.121   4.254   1.570 -0.1200 -0.7466 -0.4540
 5484TIP3    H237868   2.095   4.201   1.709 -0.0725  0.7264  0.1354
 5485TIP3   OH237869   2.255   3.714  14.976 -0.5482 -0.3017  0.0049
 5485TIP3    H137870   2.197   3.773  15.025  0.9403  0.4047  1.0043
 5485TIP3    H237871   2.282   3.765  14.899  0.3329  0.1664  0.6039
 5486TIP3   OH237872   0.308   4.800   6.002 -0.1438 -0.1574  0.3128
 5486TIP3    H137873   0.381   4.741   6.018  0.5071  0.6100  0.2508
 5486TIP3    H237874   0.251   4.790   6.078 -0.2136 -1.0970  0.1480
 5487TIP3   OH237875   2.806   6.056   5.949  0.2242  0.0073 -0.2894
 5487TIP3    H137876   2.806   6.044   5.854  1.3283 -0.8183 -0.1978
 5487TIP3    H237877   2.810   5.968   5.984 -1.7674  0.2215  0.5735
 5488TIP3   OH237878   4.078   3.775   0.856  0.2918  0.0421  0.1760
 5488TIP3    H137879   4.146   3.782   0.923  1.4429 -0.2981 -0.9155
 5488TIP3    H237880   4.018   3.848   0.875  0.5293 -0.0999  1.6034
 5489TIP3   OH237881   5.235   0.031  14.738  0.1403 -0.6568 -0.1764
 5489TIP3    H137882   5.175   0.082  14.792 -0.0456 -1.3862  0.3281
 5489TIP3    H237883   5.252  -0.048  14.790 -0.1721 -1.4507 -1.2613
 5490TIP3   OH237884   4.080   5.929   6.844  0.1650  0.0487 -0.4145
 5490TIP3    H137885   4.072   5.858   6.908 -1.4812 -0.8484 -1.5261
 5490TIP3    H237886   4.107   5.886   6.763 -0.0062  0.8138 -0.8932
 5491TIP3   OH237887   2.607   6.628   4.201 -0.1965 -0.2815 -0.1156
 5491TIP3    H137888   2.579   6.550   4.153 -0.9432  0.8952 -1.6896
 5491TIP3    H237889   2.580   6.701   4.146  0.6911  1.1026  1.1982
 5492TIP3   OH237890   3.578   1.408  17.201 -0.1044 -0.1702 -0.0189
 5492TIP3    H137891   3.535   1.323  17.189 -1.7088  0.5967  0.0383
 5492TIP3    H237892   3.542   1.442  17.283 -0.1337  0.9404 -0.4773
 5493TIP3   OH237893   0.959   5.936   6.529 -0.6325  0.3279  0.6024
 5493TIP3    H137894   0.927   5.922   6.618 -1.6282  1.2863  0.4164
 5493TIP3    H237895   0.961   6.031   6.519 -0.7371  0.2264 -0.4732
 5494TIP3   OH237896   4.995   2.388  16.722 -0.2287  0.3395 -0.3422
 5494TIP3    H137897   4.982   2.479  16.748 -1.6137  0.3547 -0.9929
 5494TIP3    H237898   4.917   2.366  16.671 -0.3129 -1.4729  0.4934
 5495TIP3   OH237899   1.383   4.502  12.521  0.4771  0.2362  0.2818
 5495TIP3    H137900   1.421   4.451  12.449  0.5877  1.2143 -0.3728
 5495TIP3    H237901   1.438   4.481  12.597  2.2222  1.4126 -0.5818
 5496TIP3   OH237902   2.251   0.846  12.606 -0.3665  0.0583 -0.0495
 5496TIP3    H137903   2.317   0.876  12.543 -0.0836  2.5346  1.2901
 5496TIP3    H237904   2.297   0.781  12.660  0.2013 -0.0714 -0.6778
 5497TIP3   OH237905   6.670   0.447   6.009 -0.2739  0.3122  0.0498
 5497TIP3    H137906   6.685   0.353   6.003  3.1909  0.7301  0.0739
 5497TIP3    H237907   6.679   0.467   6.102 -0.5107  0.7540 -0.0170
 5498TIP3   OH237908   4.384   4.190   3.380 -0.2935  0.2576 -0.0586
 5498TIP3    H137909   4.342   4.214   3.463  1.0160  0.8853  0.4504
 5498TIP3    H237910   4.379   4.269   3.327  1.6648  0.9205  0.6347
 5499TIP3   OH237911   6.291   1.306   0.797  0.3406 -0.2100 -0.1049
 5499TIP3    H137912   6.252   1.308   0.884  1.3755  1.3412  0.3695
 5499TIP3    H237913   6.385   1.317   0.813  0.4659  0.8713 -1.4445
 5500TIP3   OH237914   1.139   3.581  14.526  0.0471 -0.0320  0.0811
 5500TIP3    H137915   1.200   3.611  14.593 -0.2165 -1.7533  1.1654
 5500TIP3    H237916   1.158   3.487  14.516 -0.6185 -0.0439 -1.5210
 5501TIP3   OH237917   4.240   5.593  10.929  0.0693  0.1770 -0.2656
 5501TIP3    H137918   4.267   5.532  10.860 -0.6829 -0.0262 -0.3943
 5501TIP3    H237919   4.162   5.552  10.967  1.3519 -0.5098  1.7749
 5502TIP3   OH237920   1.258   5.788  11.150 -0.3520 -0.3760 -0.0599
 5502TIP3    H137921   1.188   5.851  11.133  0.9318  1.8676  2.2634
 5502TIP3    H237922   1.229   5.708  11.106 -3.7700  0.7842 -0.2413
 5503TIP3   OH237923   4.636   2.129   0.418 -0.1501  0.9286  0.0325
 5503TIP3    H137924   4.608   2.193   0.353  1.3894  1.1004 -0.4967
 5503TIP3    H237925   4.731   2.140   0.425 -0.1695  0.3867  1.7590
 5504TIP3   OH237926   3.559   6.091   1.320  0.2181  0.4854  0.4734
 5504TIP3    H137927   3.611   6.087   1.401  0.4251 -0.0397  0.3168
 5504TIP3    H237928   3.620   6.065   1.251  0.1197  1.2090  0.1018
 5505TIP3   OH237929   0.030   1.653  12.108 -0.2560 -0.4768  0.6378
 5505TIP3    H137930  -0.046   1.710  12.099  0.9527  1.4284  1.7178
 5505TIP3    H237931   0.012   1.601  12.187 -1.5725 -2.0204 -0.6145
 5506TIP3   OH237932   3.961   1.654  17.296 -0.2065  0.0057 -0.0577
 5506TIP3    H137933   4.043   1.615  17.327  1.0478  0.4645 -2.5522
 5506TIP3    H237934   3.953   1.624  17.205 -1.3989  2.1211 -0.7153
 5507TIP3   OH237935   3.465   5.557   2.912  0.2453  0.1742 -0.2156
 5507TIP3    H137936   3.546   5.535   2.867  0.6358  1.6349 -0.2838
 5507TIP3    H237937   3.452   5.486   2.974  1.0430 -0.5809 -0.8784
 5508TIP3   OH237938   6.320   3.851  15.404  0.2925 -0.0792  0.4164
 5508TIP3    H137939   6.237   3.819  15.439  0.0692 -1.4142 -1.2229
 5508TIP3    H237940   6.299   3.939  15.371 -0.8896 -0.9932 -1.3786
 5509TIP3   OH237941   0.490   4.654   6.283  0.2615 -0.0164 -0.0616
 5509TIP3    H137942   0.445   4.728   6.324  1.4695  1.1581 -0.8185
 5509TIP3    H237943   0.428   4.622   6.217  0.3743  1.3706 -0.8636
 5510TIP3   OH237944   3.722   4.876   2.264  0.4167 -0.1927 -0.1911
 5510TIP3    H137945   3.714   4.808   2.330  0.1053  0.7552  0.7749
 5510TIP3    H237946   3.637   4.878   2.220 -0.2462  0.8617  1.0880
 5511TIP3   OH237947   4.222   5.271  11.010 -0.0803 -0.1530  0.2409
 5511TIP3    H137948   4.183   5.307  10.931 -0.2016  0.4857  0.5841
 5511TIP3    H237949   4.311   5.306  11.012  0.3325 -1.1412 -0.2374
 5512TIP3   OH237950   5.632   4.289  16.430 -0.4859 -0.2252 -0.1046
 5512TIP3    H137951   5.702   4.322  16.374  0.1333 -1.3827 -0.0352
 5512TIP3    H237952   5.551   4.311  16.383 -0.0482  0.3964 -0.5728
 5513TIP3   OH237953   2.464   4.218  14.528 -0.0437 -0.4341 -0.1161
 5513TIP3    H137954   2.500   4.141  14.485  0.6430  0.5450 -1.3644
 5513TIP3    H237955   2.370   4.215  14.510 -0.2200 -1.5747  0.8623
 5514TIP3   OH237956   2.726   2.715   2.483  0.4481 -0.6512  0.4792
 5514TIP3    H137957   2.670   2.726   2.406  1.2834 -0.4585 -0.1177
 5514TIP3    H237958   2.806   2.676   2.449  0.2495 -2.0280  1.5060
 5515TIP3   OH237959   2.381   3.688   4.183 -0.1631  0.6778  0.3178
 5515TIP3    H137960   2.299   3.663   4.140  1.5089 -1.2134 -2.0710
 5515TIP3    H237961   2.379   3.784   4.185 -2.3794  0.6694  0.3055
 5516TIP3   OH237962   4.640   2.395  13.721 -0.0393 -0.3112 -0.1453
 5516TIP3    H137963   4.610   2.305  13.730 -0.9575 -0.0610 -0.5555
 5516TIP3    H237964   4.735   2.390  13.726 -0.0162 -1.4307 -1.2585
 5517TIP3   OH237965   4.739   3.254  13.475 -0.4989 -0.2118 -0.3745
 5517TIP3    H137966   4.700   3.207  13.401 -0.1398  0.3119 -0.9067
 5517TIP3    H237967   4.817   3.203  13.496  1.5059  1.6037 -2.8025
 5518TIP3   OH237968   4.038   5.598  12.539  0.9402 -0.0257 -0.1246
 5518TIP3    H137969   3.992   5.543  12.476  0.0383  0.3672  0.1885
 5518TIP3    H237970   4.118   5.624  12.494  0.7208 -0.4649 -0.7798
 5519TIP3   OH237971   4.761   0.558  15.622 -0.5123  0.1004 -0.0712
 5519TIP3    H137972   4.724   0.627  15.678 -0.3892  1.5560 -1.7057
 5519TIP3    H237973   4.695   0.546  15.553 -0.2034 -0.9200 -0.2010
 5520TIP3   OH237974   2.243   5.399   3.301 -0.7912 -0.1158  0.0024
 5520TIP3    H137975   2.270   5.390   3.209  0.1354  2.8189 -0.1240
 5520TIP3    H237976   2.171   5.337   3.311 -1.0524 -0.3949 -2.7684
 5521TIP3   OH237977   5.580   0.860   4.619  0.6379  0.5351 -0.5944
 5521TIP3    H137978   5.666   0.859   4.660  0.4933 -1.1462 -0.2295
 5521TIP3    H237979   5.540   0.942   4.646  2.0781  1.2907 -0.6906
 5522TIP3   OH237980   4.350   6.556   1.988 -0.1795  0.7887 -0.0014
 5522TIP3    H137981   4.367   6.640   1.946  0.2815  0.5441 -0.3094
 5522TIP3    H237982   4.257   6.558   2.009  0.0171  1.7652  0.8538
 5523TIP3   OH237983   2.944   4.379  13.892 -0.2872 -0.4552  0.0436
 5523TIP3    H137984   2.850   4.390  13.908 -0.3945 -1.5006  0.2396
 5523TIP3    H237985   2.953   4.380  13.797 -0.9065 -2.9497 -0.1333
 5524TIP3   OH237986   1.546   4.522  16.782 -0.5600  0.0451 -0.1874
 5524TIP3    H137987   1.619   4.462  16.766 -1.5962 -1.2803 -0.1403
 5524TIP3    H237988   1.559   4.593  16.719  0.1423 -0.7523 -0.9670
 5525TIP3   OH237989   0.130   3.661   0.002 -0.1128  0.3388  0.0869
 5525TIP3    H137990   0.114   3.590  -0.060 -2.3572  0.7902  0.0621
 5525TIP3    H237991   0.052   3.663   0.057  1.0623  1.0875  1.8148
 5526TIP3   OH237992   4.551   3.438  12.164  0.4143  0.2318  0.1084
 5526TIP3    H137993   4.600   3.376  12.111 -0.2953  0.2443 -0.5814
 5526TIP3    H237994   4.617   3.498  12.199  0.9421 -0.0595 -0.3838
 5527TIP3   OH237995   6.209   1.298  11.876  0.2960  0.2862  0.5821
 5527TIP3    H137996   6.160   1.219  11.850 -1.7481  1.4069  0.8000
 5527TIP3    H237997   6.220   1.346  11.794 -1.4335  1.3113  0.9133
 5528TIP3   OH237998   2.527   2.395  15.278 -0.2080  0.3638 -0.1093
 5528TIP3    H137999   2.597   2.460  15.277  0.9095 -0.7905  0.4875
 5528TIP3    H238000   2.447   2.447  15.285  0.6223  1.6901 -0.0395
 5529TIP3   OH238001   0.903   3.121  17.019 -0.3305 -0.7470  0.6245
 5529TIP3    H138002   0.871   3.039  16.981 -1.0691  0.2634 -1.0615
 5529TIP3    H238003   0.972   3.149  16.958 -0.9981  0.5264  0.4180
 5530TIP3   OH238004   5.079   5.518  17.445 -0.0376 -0.0671 -0.4593
 5530TIP3    H138005   5.066   5.428  17.472  0.9117  0.3120  1.3906
 5530TIP3    H238006   5.026   5.570  17.505  2.1373  0.7964  0.8370
 5531TIP3   OH238007   4.417   3.792  12.028 -0.5180 -0.4869  0.1840
 5531TIP3    H138008   4.357   3.764  11.959 -0.9584 -0.0487  0.3801
 5531TIP3    H238009   4.394   3.738  12.104  0.3621 -1.3861 -0.1677
 5532TIP3   OH238010   3.779   2.266  16.390 -0.0689 -0.1616  0.0283
 5532TIP3    H138011   3.817   2.228  16.311 -0.5645  0.4360 -0.5115
 5532TIP3    H238012   3.686   2.244  16.384 -0.0841 -0.2350  0.5227
 5533TIP3   OH238013   5.699   6.660  13.808  0.6559  0.6820  0.2909
 5533TIP3    H138014   5.747   6.577  13.806  0.5550  0.5803  1.4120
 5533TIP3    H238015   5.670   6.668  13.899 -0.1014  1.5118 -0.0126
 5534TIP3   OH238016   3.847   2.464  15.700  0.2443  0.2706 -0.3240
 5534TIP3    H138017   3.785   2.536  15.691  1.4505  1.3814  0.0546
 5534TIP3    H238018   3.888   2.456  15.613 -0.8295 -0.8929 -0.7684
 5535TIP3   OH238019   3.995   5.663   1.333  0.3079  0.3672 -0.3097
 5535TIP3    H138020   4.080   5.624   1.309  0.2386  0.6407 -1.0365
 5535TIP3    H238021   3.941   5.652   1.255 -0.4836 -0.2157  0.3078
 5536TIP3   OH238022   3.396   0.505   5.068  0.2815  0.2762  0.2519
 5536TIP3    H138023   3.457   0.540   5.004  0.5750 -0.8894 -0.1331
 5536TIP3    H238024   3.427   0.538   5.152  1.1460  0.1163  0.0015
 5537TIP3   OH238025   2.236   6.190  12.243  0.3430 -0.1800 -0.0201
 5537TIP3    H138026   2.148   6.216  12.217  0.3583  0.4464  0.5363
 5537TIP3    H238027   2.229   6.169  12.336  0.4287 -1.7754 -0.3349
 5538TIP3   OH238028   0.279   0.988  11.165 -0.0942 -0.1163  0.8115
 5538TIP3    H138029   0.358   1.036  11.142 -0.9390  0.6244 -0.7511
 5538TIP3    H238030   0.304   0.933  11.238  2.1819 -0.7448 -0.3549
 5539TIP3   OH238031   6.631   5.065  13.084  0.2248 -0.0621 -0.1582
 5539TIP3    H138032   6.674   5.083  13.000  1.0058  0.1768  0.2794
 5539TIP3    H238033   6.694   5.010  13.131  1.7595  3.1397  1.9114
 5540TIP3   OH238034   6.368   6.254  13.049  0.0877 -0.0099  0.2468
 5540TIP3    H138035   6.365   6.349  13.059 -1.0883 -0.0590  0.5074
 5540TIP3    H238036   6.439   6.226  13.107  1.4119  0.8225 -0.9243
 5541TIP3   OH238037   0.263   6.506   1.516  0.1088 -0.3896 -0.0445
 5541TIP3    H138038   0.205   6.432   1.498 -0.0165 -0.9737  2.4077
 5541TIP3    H238039   0.223   6.550   1.591  0.5855  1.7768 -0.9635
 5542TIP3   OH238040   6.385   5.857  15.727  0.6866  0.3179  0.1653
 5542TIP3    H138041   6.292   5.870  15.709  0.5864 -0.4293  0.0943
 5542TIP3    H238042   6.429   5.881  15.645  0.5180  0.2477  0.0531
 5543TIP3   OH238043   3.396   3.355   2.568  0.1224  0.0696 -0.2192
 5543TIP3    H138044   3.489   3.376   2.559 -0.2077  1.5186 -0.4473
 5543TIP3    H238045   3.387   3.319   2.656  1.2209 -2.0632 -0.8964
 5544TIP3   OH238046   5.996   5.807   0.850  0.4315 -0.6624 -0.5842
 5544TIP3    H138047   5.948   5.812   0.933  0.5623 -1.1032 -0.4752
 5544TIP3    H238048   6.088   5.822   0.875  0.2679  1.0870 -0.9151
 5545TIP3   OH238049   1.577   3.088   0.807  0.0856  0.5535  0.1288
 5545TIP3    H138050   1.504   3.038   0.771 -0.6518  0.2164  1.9974
 5545TIP3    H238051   1.578   3.168   0.754 -0.4784 -0.2103 -1.0929
 5546TIP3   OH238052   2.157   4.633  10.746  0.1613 -0.5424 -0.2394
 5546TIP3    H138053   2.249   4.608  10.744 -0.1378 -1.6790 -0.9634
 5546TIP3    H238054   2.157   4.722  10.780  1.5327 -0.4880 -0.3172
 5547TIP3   OH238055   1.312   3.660   4.399  0.2819 -0.6030  0.4036
 5547TIP3    H138056   1.262   3.589   4.359  1.2415 -0.7294 -0.6168
 5547TIP3    H238057   1.397   3.659   4.353  0.9007  0.1626  1.4810
 5548TIP3   OH238058   3.532   1.318   5.694 -0.2800  0.0884 -0.0804
 5548TIP3    H138059   3.503   1.348   5.608  1.2192  0.8218 -0.3578
 5548TIP3    H238060   3.522   1.394   5.751 -1.7298 -0.5316  0.5428
 5549TIP3   OH238061   4.063   6.203   0.310 -0.1913  0.5807 -0.2333
 5549TIP3    H138062   3.978   6.242   0.290 -0.1511  0.3133 -0.9622
 5549TIP3    H238063   4.055   6.173   0.401  0.2616  3.5318  0.8840
 5550TIP3   OH238064   1.279   0.832   5.189 -0.6579 -0.2798  0.4904
 5550TIP3    H138065   1.266   0.864   5.099  1.5701 -1.3803 -0.2990
 5550TIP3    H238066   1.282   0.911   5.242  0.2503  0.5594 -0.7550
 5551TIP3   OH238067   3.968   1.194  16.254 -0.2034 -0.4231 -0.1800
 5551TIP3    H138068   3.963   1.187  16.350 -0.9960  1.3963 -0.0517
 5551TIP3    H238069   4.060   1.178  16.234 -0.3694 -2.9215  0.6262
 5552TIP3   OH238070   4.271   3.163   1.001  0.1654  0.3936 -0.1372
 5552TIP3    H138071   4.205   3.115   0.951 -1.1510  0.8011  1.1398
 5552TIP3    H238072   4.347   3.167   0.942  0.2515 -2.8978 -0.4540
 5553TIP3   OH238073   3.895   4.029  15.798 -0.3039 -0.3661  0.5164
 5553TIP3    H138074   3.986   4.013  15.824  0.1962  1.0758 -0.2402
 5553TIP3    H238075   3.858   3.942  15.785  1.3142 -0.9613 -0.3480
 5554TIP3   OH238076   2.264   3.532   0.443 -0.4138  0.9465  0.2213
 5554TIP3    H138077   2.236   3.474   0.514 -2.4677 -0.2131 -1.3847
 5554TIP3    H238078   2.331   3.588   0.482  0.5871 -1.4731  2.2908
 5555TIP3   OH238079   5.156   0.214  11.651  0.9280  0.2929  0.7852
 5555TIP3    H138080   5.209   0.191  11.575 -1.3123 -0.2686 -0.7071
 5555TIP3    H238081   5.135   0.130  11.692 -1.6109  0.0652 -0.7179
 5556TIP3   OH238082   4.167   4.596  15.518  0.2094 -0.8064  0.6515
 5556TIP3    H138083   4.224   4.540  15.570  0.5411  0.5706  1.8680
 5556TIP3    H238084   4.079   4.581  15.553  0.3959 -0.0824  1.4814
 5557TIP3   OH238085   4.397   5.008  14.937 -0.2461  0.1552 -0.1996
 5557TIP3    H138086   4.464   5.046  14.993 -0.5443 -0.0242  0.2847
 5557TIP3    H238087   4.428   4.919  14.919 -1.3027 -0.6621  1.7052
 5558TIP3   OH238088   2.446   0.554  12.892 -0.3341 -0.3189  0.2536
 5558TIP3    H138089   2.472   0.466  12.866 -0.9020 -0.5502  0.4515
 5558TIP3    H238090   2.467   0.608  12.816 -1.1892 -0.8516 -0.3900
 5559TIP3   OH238091   0.362   4.317  14.576  0.3004  0.0499  0.3857
 5559TIP3    H138092   0.383   4.410  14.586 -0.6362  0.0765  2.8562
 5559TIP3    H238093   0.266   4.315  14.576  0.3113 -0.8758 -0.3229
 5560TIP3   OH238094   1.658   2.707   4.421  0.0412 -0.1208  0.2658
 5560TIP3    H138095   1.735   2.675   4.468 -0.2012  0.9323  1.4548
 5560TIP3    H238096   1.657   2.801   4.441 -1.4756 -0.1015  0.1693
 5561TIP3   OH238097   5.129   0.708  14.683 -0.3909 -0.2768  0.3329
 5561TIP3    H138098   5.171   0.728  14.767 -0.3866 -0.4246  0.3657
 5561TIP3    H238099   5.050   0.761  14.682  0.6488  1.3371 -0.4609
 5562TIP3   OH238100   5.324   4.264   1.509  0.6677 -0.0033 -0.4039
 5562TIP3    H138101   5.338   4.358   1.502 -0.1852  0.1141 -0.6789
 5562TIP3    H238102   5.258   4.255   1.578 -0.6603 -0.2456 -1.6486
 5563TIP3   OH238103   6.577   4.891   2.829 -0.5263 -0.3513 -0.4539
 5563TIP3    H138104   6.482   4.898   2.833 -0.5351  0.1425 -1.3127
 5563TIP3    H238105   6.594   4.840   2.750 -0.0343  1.3791 -1.5294
 5564TIP3   OH238106   1.990   3.035   5.072 -0.1136  0.3129  0.3258
 5564TIP3    H138107   1.994   3.112   5.129 -0.7694  1.6589 -1.3779
 5564TIP3    H238108   1.987   2.961   5.133  1.5484  1.5415  2.0117
 5565TIP3   OH238109   0.102   1.874  12.459  0.0443 -0.0734  0.6292
 5565TIP3    H138110   0.180   1.919  12.490 -0.2928  0.9186  0.0917
 5565TIP3    H238111   0.086   1.912  12.372 -2.7401  2.0117  1.8657
 5566TIP3   OH238112   0.322   0.259  13.766  1.0549  0.3346  0.1061
 5566TIP3    H138113   0.411   0.292  13.755  1.3649 -0.3753  0.3636
 5566TIP3    H238114   0.314   0.244  13.860 -0.3375  3.0463  0.4907
 5567TIP3   OH238115   5.470   1.652   5.045  0.1945  0.4474 -0.0485
 5567TIP3    H138116   5.375   1.656   5.043  0.0421 -1.7629 -0.3101
 5567TIP3    H238117   5.490   1.560   5.026  2.3501  0.6615  0.9239
 5568TIP3   OH238118   2.662   3.926  15.539 -0.0633 -0.0651 -0.7913
 5568TIP3    H138119   2.574   3.888  15.539 -0.1644  0.1075  0.4783
 5568TIP3    H238120   2.721   3.851  15.531 -0.3216 -0.2072 -1.3681
 5569TIP3   OH238121   1.466   4.339  17.367 -0.2181  0.3325 -0.1172
 5569TIP3    H138122   1.375   4.367  17.356 -0.6407 -0.3129  1.4503
 5569TIP3    H238123   1.466   4.247  17.340 -1.0405 -0.9520  3.6359
 5570TIP3   OH238124   6.382   5.861  11.779 -0.6036 -0.4403  0.6812
 5570TIP3    H138125   6.388   5.768  11.801 -1.3648 -0.9819 -1.1978
 5570TIP3    H238126   6.357   5.863  11.687  0.3049  1.6477  0.4069
 5571TIP3   OH238127   5.271   2.814   3.765 -0.3218  0.0558  0.0150
 5571TIP3    H138128   5.358   2.846   3.791 -0.5319  0.1298  0.6510
 5571TIP3    H238129   5.212   2.886   3.786 -0.5259  0.0372 -0.5037
 5572TIP3   OH238130   1.913   3.108   3.821  0.7130  0.0342 -0.5044
 5572TIP3    H138131   1.895   3.174   3.888  1.2916  2.7069 -2.8214
 5572TIP3    H238132   2.005   3.085   3.834  0.7427  0.3135 -0.2172
 5573TIP3   OH238133   1.665   2.464  16.034 -0.1160  0.1055 -0.1313
 5573TIP3    H138134   1.628   2.391  15.985  1.0249 -0.1821 -0.6090
 5573TIP3    H238135   1.754   2.436  16.056  0.2561  1.2395 -0.0994
 5574TIP3   OH238136   0.236   0.622  13.984  0.0943  0.1375  0.1896
 5574TIP3    H138137   0.302   0.561  13.949 -0.4884  0.7461 -2.1862
 5574TIP3    H238138   0.175   0.567  14.033  1.2948 -0.7083  0.7824
 5575TIP3   OH238139   3.532   5.388   2.204 -0.0212 -0.2710  0.0970
 5575TIP3    H138140   3.620   5.350   2.209 -0.5199 -1.4408  0.4657
 5575TIP3    H238141   3.475   5.319   2.239 -1.0887  0.4567 -0.1744
 5576TIP3   OH238142   6.085   3.008  11.589 -0.4127 -0.6266  0.4916
 5576TIP3    H138143   6.082   2.919  11.626  1.4543 -1.3492 -0.9064
 5576TIP3    H238144   6.175   3.037  11.606  0.1572 -0.5200 -2.2555
 5577TIP3   OH238145   3.988   6.349  16.259  0.3233  0.4292 -0.4455
 5577TIP3    H138146   3.960   6.322  16.346 -0.9920  1.7519 -0.4053
 5577TIP3    H238147   3.998   6.444  16.266  0.5827  0.5070 -1.6396
 5578TIP3   OH238148   2.351   4.764   1.847  0.3166  0.2044  0.2487
 5578TIP3    H138149   2.328   4.679   1.810 -0.7668  0.8041 -0.5142
 5578TIP3    H238150   2.443   4.777   1.824 -0.2815  0.4943 -2.2089
 5579TIP3   OH238151   3.075   5.490   4.522  0.1318  0.2215 -0.6564
 5579TIP3    H138152   3.071   5.570   4.574 -2.1843 -0.6639  0.6501
 5579TIP3    H238153   3.034   5.513   4.439  0.6976  0.7120 -0.8091
 5580TIP3   OH238154   2.875   5.568  13.049 -0.1919 -0.3418 -0.0447
 5580TIP3    H138155   2.961   5.590  13.086 -0.3064 -1.4217  0.9039
 5580TIP3    H238156   2.815   5.630  13.091 -0.2277 -1.1652  1.1498
 5581TIP3   OH238157   2.631   5.220   2.009  0.2242  0.2272 -0.7710
 5581TIP3    H138158   2.665   5.309   2.008 -1.2222  0.8022 -0.8282
 5581TIP3    H238159   2.538   5.229   1.986  0.2749 -1.3966 -1.8035
 5582TIP3   OH238160   3.565   3.413  10.501 -0.8225  0.0245  0.3975
 5582TIP3    H138161   3.480   3.418  10.458 -0.3129  1.5912 -0.5352
 5582TIP3    H238162   3.628   3.429  10.430  0.2352 -0.7953  1.1257
 5583TIP3   OH238163   2.826   1.885  13.845 -0.6172  0.3766  0.7173
 5583TIP3    H138164   2.897   1.885  13.781 -0.9627 -1.2616  0.2775
 5583TIP3    H238165   2.808   1.977  13.862 -1.0414  0.9044 -2.1325
 5584TIP3   OH238166   0.894   0.389   4.336  0.1153  0.7477 -0.1459
 5584TIP3    H138167   0.981   0.383   4.297  0.0385  2.5397 -0.6675
 5584TIP3    H238168   0.836   0.408   4.263 -0.5388  0.7936  0.3757
 5585TIP3   OH238169   3.538   5.405   0.334 -0.1261  0.0861 -0.0584
 5585TIP3    H138170   3.628   5.371   0.332 -0.4253 -0.7104 -0.3325
 5585TIP3    H238171   3.531   5.460   0.256 -0.1371 -0.5496 -0.5111
 5586TIP3   OH238172   5.670   1.825  13.718  0.1725 -0.5467  0.0951
 5586TIP3    H138173   5.659   1.802  13.810 -1.9654 -0.4872 -0.0948
 5586TIP3    H238174   5.679   1.741  13.673 -3.5290 -1.0001 -0.1136
 5587TIP3   OH238175   4.239   5.758  11.163 -0.5671 -0.0933  0.3862
 5587TIP3    H138176   4.318   5.724  11.121 -1.2185 -0.8411 -0.2678
 5587TIP3    H238177   4.167   5.712  11.119 -1.4171  1.2180  0.3466
 5588TIP3   OH238178   3.433   2.672   1.300 -0.4176 -0.1171  0.1251
 5588TIP3    H138179   3.450   2.702   1.211  0.7115 -0.0290  0.3672
 5588TIP3    H238180   3.518   2.673   1.344 -1.0780  0.7108  1.4799
 5589TIP3   OH238181   1.133   2.298  16.317 -0.6522 -0.3161  0.2459
 5589TIP3    H138182   1.115   2.324  16.227 -0.0365 -0.5628  0.0455
 5589TIP3    H238183   1.175   2.374  16.357 -0.4764 -0.3787  0.1797
 5590TIP3   OH238184   1.123   6.395   6.776  0.2021  0.1944 -0.0654
 5590TIP3    H138185   1.072   6.476   6.778  0.9059  0.6853 -0.9843
 5590TIP3    H238186   1.090   6.344   6.850 -0.3614  1.2499  0.4376
 5591TIP3   OH238187   6.429   2.688  11.864 -0.3791  0.3599  0.0088
 5591TIP3    H138188   6.511   2.728  11.835 -0.9390  1.6025  0.0360
 5591TIP3    H238189   6.444   2.594  11.858  1.1395  0.5563  0.2986
 5592TIP3   OH238190   1.590   1.473  15.922 -0.7555  0.2046  0.0029
 5592TIP3    H138191   1.645   1.528  15.977 -0.5588 -0.6508  0.6760
 5592TIP3    H238192   1.525   1.534  15.885  1.1832  1.4369 -1.6189
 5593TIP3   OH238193   3.838   4.979  15.222 -0.5016  0.3046 -0.4335
 5593TIP3    H138194   3.858   5.023  15.140  2.0316  3.1331  1.4678
 5593TIP3    H238195   3.881   4.894  15.214  0.0978  0.7100 -1.8624
 5594TIP3   OH238196   5.437   2.985   3.901 -0.0450  0.7550  0.4887
 5594TIP3    H138197   5.513   3.042   3.907 -0.9993  2.1285  0.0731
 5594TIP3    H238198   5.370   3.027   3.956 -1.3831  1.1083 -1.3107
 5595TIP3   OH238199   6.655   1.365   4.735  0.1474 -0.5662 -0.0963
 5595TIP3    H138200   6.681   1.408   4.816  0.4892 -1.4053  0.2491
 5595TIP3    H238201   6.699   1.280   4.738  0.6979 -0.3592 -1.4535
 5596TIP3   OH238202   6.498   0.368   4.560 -0.0716  0.3739 -0.6084
 5596TIP3    H138203   6.514   0.343   4.469  0.8528  1.9667 -0.9196
 5596TIP3    H238204   6.437   0.442   4.554  0.8513  1.2078 -0.0315
 5597TIP3   OH238205   4.888   5.329   5.628  0.4564  0.1979  0.2151
 5597TIP3    H138206   4.878   5.392   5.700  0.3763  0.1237  0.2691
 5597TIP3    H238207   4.810   5.275   5.632 -0.1936  1.0300 -0.7589
 5598TIP3   OH238208   4.479   0.751   3.680  0.3522  1.1603  0.0346
 5598TIP3    H138209   4.444   0.664   3.699  1.7031  0.6736  0.4517
 5598TIP3    H238210   4.407   0.811   3.699 -0.0738  0.2540  1.4220
 5599TIP3   OH238211   4.052   5.727  13.933 -0.0510  0.1553  0.2981
 5599TIP3    H138212   4.035   5.819  13.957  0.8962  0.2655  0.5767
 5599TIP3    H238213   3.973   5.700  13.887 -0.3732  1.0956  0.2706
 5600TIP3   OH238214   4.603   3.032   1.064  0.1170 -0.9608 -0.1557
 5600TIP3    H138215   4.638   3.084   1.135 -1.0859 -1.6520  0.9850
 5600TIP3    H238216   4.587   3.095   0.993 -1.9651  0.3799  1.4159
 5601TIP3   OH238217   6.138   5.195  12.542  0.1168  0.4994 -0.2108
 5601TIP3    H138218   6.114   5.273  12.591  0.4654  1.9087 -2.1529
 5601TIP3    H238219   6.071   5.130  12.564 -1.3541  2.0140 -0.0878
 5602TIP3   OH238220   1.272   5.135   1.469 -0.6461  0.6497  0.0551
 5602TIP3    H138221   1.243   5.181   1.391 -0.5525 -2.1666 -1.8033
 5602TIP3    H238222   1.193   5.094   1.504  0.0012 -3.0974 -2.2629
 5603TIP3   OH238223   0.056   0.702  16.917 -0.0620 -0.2107  0.1800
 5603TIP3    H138224   0.046   0.678  16.825 -0.8072 -0.7718  0.3992
 5603TIP3    H238225  -0.009   0.649  16.963  0.9695 -0.6655  1.1489
 5604TIP3   OH238226   5.745   4.554   2.880  0.3507  0.4797 -1.0051
 5604TIP3    H138227   5.723   4.544   2.972  1.8418  0.8607 -0.5890
 5604TIP3    H238228   5.674   4.607   2.844 -1.0791 -0.9971 -0.4607
 5605TIP3   OH238229   1.521   6.655  11.966  0.0604 -0.3540 -0.0250
 5605TIP3    H138230   1.613   6.629  11.966  0.5172  1.0899 -0.7078
 5605TIP3    H238231   1.523   6.748  11.943 -1.5325 -0.1088  0.6840
 5606TIP3   OH238232   1.957   2.879  12.091  0.3325 -0.2545 -0.4994
 5606TIP3    H138233   2.017   2.918  12.154 -0.9860  0.9221  0.0808
 5606TIP3    H238234   1.885   2.942  12.085 -0.9531 -1.7243 -0.9845
 5607TIP3   OH238235   1.150   5.145  14.956  0.3073  0.2032 -0.4385
 5607TIP3    H138236   1.145   5.223  14.902 -2.7415  0.1028 -0.4744
 5607TIP3    H238237   1.211   5.168  15.026  0.4766  2.1125 -1.1616
 5608TIP3   OH238238   0.241   0.058  15.351 -0.2330 -0.2486  0.1636
 5608TIP3    H138239   0.278   0.041  15.265  0.7367  0.4105  0.4318
 5608TIP3    H238240   0.300   0.013  15.412 -0.3565  0.1029  0.5492
 5609TIP3   OH238241   4.604   2.419   4.341  0.0098  0.1694 -0.4514
 5609TIP3    H138242   4.512   2.406   4.322  0.3484 -1.5739 -1.0340
 5609TIP3    H238243   4.650   2.358   4.283  1.6212  1.9981 -1.2325
 5610TIP3   OH238244   5.129   4.021   5.571 -0.1494 -0.2898 -0.4603
 5610TIP3    H138245   5.100   3.983   5.488 -0.1575  0.9518 -1.0424
 5610TIP3    H238246   5.195   4.086   5.545  0.2329 -0.2615  0.5534
 5611TIP3   OH238247   0.119   6.407  15.936 -0.3410  0.2690 -0.0638
 5611TIP3    H138248   0.073   6.491  15.938 -1.1832 -0.1976  0.5791
 5611TIP3    H238249   0.173   6.407  16.015  1.5579  1.2196 -1.2868
 5612TIP3   OH238250   1.350   0.480  11.560 -0.2540  0.9351  0.2436
 5612TIP3    H138251   1.262   0.445  11.577  0.6742 -1.8942 -0.1718
 5612TIP3    H238252   1.409   0.417  11.602  1.6365  1.8250 -0.9556
 5613TIP3   OH238253   6.261   4.548   4.229 -0.2603  0.0256  0.3439
 5613TIP3    H138254   6.317   4.545   4.307 -0.7931 -1.4588  0.6949
 5613TIP3    H238255   6.319   4.529   4.156 -0.3970 -2.4053  0.7901
 5614TIP3   OH238256   1.558   2.317   2.191  0.5014  0.2338  0.4842
 5614TIP3    H138257   1.590   2.228   2.204  1.6330  0.8007  1.8797
 5614TIP3    H238258   1.636   2.367   2.166  0.0427  1.0026  0.5575
 5615TIP3   OH238259   6.158   5.766  12.688  0.9389 -0.1239  0.6128
 5615TIP3    H138260   6.073   5.737  12.654  2.1836 -0.6142 -2.4626
 5615TIP3    H238261   6.136   5.830  12.755 -1.8653 -0.2431 -0.0482
 5616TIP3   OH238262   0.399   2.240  11.114 -0.1522 -0.2728 -0.3493
 5616TIP3    H138263   0.335   2.187  11.065  0.9711 -0.6039 -1.5164
 5616TIP3    H238264   0.482   2.223  11.070  0.6970  0.3978  0.9440
 5617TIP3   OH238265   2.616   0.832  10.747 -0.5165  0.3209 -0.0393
 5617TIP3    H138266   2.646   0.759  10.692  1.0787  0.7585  0.2059
 5617TIP3    H238267   2.550   0.792  10.805 -1.2136 -0.4412 -1.3184
 5618TIP3   OH238268   6.699   5.220   0.314  0.0712  0.0166 -0.1066
 5618TIP3    H138269   6.619   5.171   0.336 -0.8949  1.3959 -0.4228
 5618TIP3    H238270   6.764   5.188   0.376 -0.4776 -1.7410 -0.3680
 5619TIP3   OH238271   0.155   6.048  14.102  0.6628 -0.0211 -0.5013
 5619TIP3    H138272   0.163   6.101  14.022  0.3638  2.5046  1.0451
 5619TIP3    H238273   0.061   6.039  14.115  0.7120 -1.0286 -0.7696
 5620TIP3   OH238274   3.186   2.856  12.623 -0.1278  0.1731  0.0724
 5620TIP3    H138275   3.248   2.798  12.666 -1.8701 -0.7979  1.4275
 5620TIP3    H238276   3.126   2.884  12.693  0.1220  2.9587 -0.7025
 5621TIP3   OH238277   5.680   0.884   6.443 -0.3323 -0.1051  0.5424
 5621TIP3    H138278   5.592   0.874   6.479 -0.9228  0.5607 -0.6487
 5621TIP3    H238279   5.728   0.807   6.475 -1.2849 -0.3745  1.3667
 5622TIP3   OH238280   4.003   4.108   1.442  0.1427  0.0898  0.6751
 5622TIP3    H138281   3.950   4.188   1.436 -2.0067 -1.2521  0.9091
 5622TIP3    H238282   4.000   4.071   1.354 -0.3784 -0.6425  0.9957
 5623TIP3   OH238283   2.542   1.739  15.261 -0.6609  0.4784 -0.2724
 5623TIP3    H138284   2.595   1.699  15.193 -2.7914 -1.3671 -0.9808
 5623TIP3    H238285   2.605   1.783  15.318  1.7960 -2.5946 -0.3180
 5624TIP3   OH238286   1.183   3.617  16.558  0.2918 -0.6185 -0.0283
 5624TIP3    H138287   1.161   3.583  16.644 -0.8424  0.0194 -0.0509
 5624TIP3    H238288   1.198   3.711  16.573  0.1469 -0.5172 -0.5183
 5625TIP3   OH238289   5.469   6.188   5.625  0.1276  0.1149  0.0088
 5625TIP3    H138290   5.464   6.113   5.566 -0.8473  0.8828 -0.9510
 5625TIP3    H238291   5.537   6.244   5.587  1.0633 -0.4147  0.8913
 5626TIP3   OH238292   0.253   4.957  12.695  0.1300 -0.1453  0.0671
 5626TIP3    H138293   0.327   4.985  12.641 -1.6919  0.0560 -2.4905
 5626TIP3    H238294   0.190   4.920  12.632 -1.6946 -0.8815  2.2068
 5627TIP3   OH238295   6.392   5.086   0.688 -0.0931  0.2393  0.1642
 5627TIP3    H138296   6.458   5.154   0.673  1.1665 -0.8050  0.8342
 5627TIP3    H238297   6.315   5.116   0.639  0.6891  1.7477 -0.1948
 5628TIP3   OH238298   2.482   6.670  15.805  0.3686 -0.1649 -0.0123
 5628TIP3    H138299   2.434   6.591  15.778  1.0036 -0.3903 -0.5209
 5628TIP3    H238300   2.416   6.724  15.848 -0.2604 -0.6257 -0.3620
 5629TIP3   OH238301   3.500   1.028  11.544 -0.3435  0.3168  0.2145
 5629TIP3    H138302   3.436   1.091  11.513  0.1296  1.3857  1.3083
 5629TIP3    H238303   3.479   1.016  11.637 -0.1633 -0.8303  0.1324
 5630TIP3   OH238304   6.495   6.680   0.742 -0.0215  0.0242 -0.0459
 5630TIP3    H138305   6.516   6.751   0.803 -0.2702  1.5548 -1.6395
 5630TIP3    H238306   6.444   6.723   0.674 -1.3814 -2.0002 -0.3756
 5631TIP3   OH238307   5.444   4.113  12.698  1.1522 -0.2601 -0.9304
 5631TIP3    H138308   5.535   4.087  12.710  1.3156  0.6324  0.0121
 5631TIP3    H238309   5.404   4.098  12.784  0.0765 -1.8355 -1.6798
 5632TIP3   OH238310   0.966   6.051   4.720  0.1259 -0.2007  0.4861
 5632TIP3    H138311   1.035   6.007   4.671  0.0816  0.7794 -0.4972
 5632TIP3    H238312   0.893   5.989   4.719  0.0228 -0.0982 -0.9705
 5633TIP3   OH238313   0.214   5.128   0.325  0.5809  0.0229 -0.1411
 5633TIP3    H138314   0.306   5.152   0.310  0.3639  1.1712  0.2925
 5633TIP3    H238315   0.171   5.148   0.241  0.6824 -0.2896 -0.2679
 5634TIP3   OH238316   0.075   4.726  13.386 -0.1488 -0.4122  0.3193
 5634TIP3    H138317   0.119   4.784  13.448  0.3346 -0.4278 -0.0054
 5634TIP3    H238318   0.013   4.676  13.439 -0.6778  0.5083  0.5784
 5635TIP3   OH238319   3.071   4.373  14.717  0.1759  0.0046  0.3859
 5635TIP3    H138320   3.049   4.315  14.790 -0.4129  1.8344  1.7577
 5635TIP3    H238321   2.988   4.386  14.671  0.1271  0.3957  0.5796
 5636TIP3   OH238322   4.670   1.537  12.413 -0.2410  0.8786  0.0325
 5636TIP3    H138323   4.603   1.476  12.380  0.1818  0.8787 -0.8451
 5636TIP3    H238324   4.631   1.574  12.493 -0.4959 -0.5533  0.6104
 5637TIP3   OH238325   1.925   5.387   0.417 -0.0027  0.3170  0.0646
 5637TIP3    H138326   1.867   5.417   0.487 -0.4564 -1.8296  0.6777
 5637TIP3    H238327   1.985   5.461   0.402 -0.5497  1.2119  1.9972
 5638TIP3   OH238328   1.740   5.837  14.544 -0.5322 -0.4167 -0.2078
 5638TIP3    H138329   1.659   5.870  14.507  0.0315  0.7215 -0.4553
 5638TIP3    H238330   1.772   5.773  14.480 -0.6855 -0.0819 -0.6175
 5639TIP3   OH238331   2.744   4.332  14.570 -0.4844  0.0763  0.1033
 5639TIP3    H138332   2.774   4.249  14.607  0.1796  0.2524 -0.0234
 5639TIP3    H238333   2.649   4.325  14.569 -0.4019 -1.1652 -1.0149
 5640TIP3   OH238334   6.016   3.246   1.517 -0.1191  0.1846  0.2401
 5640TIP3    H138335   5.952   3.242   1.588 -1.1353  0.7009 -0.6148
 5640TIP3    H238336   5.968   3.285   1.443  1.0281  0.0781 -0.5963
 5641TIP3   OH238337   5.050   5.329   3.513  0.1799  0.0273  0.0635
 5641TIP3    H138338   5.116   5.396   3.534  0.2033  0.1845 -0.4908
 5641TIP3    H238339   5.053   5.322   3.418  0.0147 -0.6034  0.0983
 5642TIP3   OH238340   6.212   5.851   1.042 -0.8938  0.1720 -0.3739
 5642TIP3    H138341   6.294   5.833   1.089 -2.1131 -2.2174  1.0798
 5642TIP3    H238342   6.178   5.931   1.081  0.2873  0.6694 -0.3438
 5643TIP3   OH238343   5.901   2.984  13.042  0.6677 -0.0063  0.0679
 5643TIP3    H138344   5.812   2.949  13.043 -0.3281  2.3673  0.5508
 5643TIP3    H238345   5.937   2.961  13.127 -0.6218  1.6283  1.1032
 5644TIP3   OH238346   6.022   3.481  15.497 -0.3904 -0.2592  0.0708
 5644TIP3    H138347   6.044   3.572  15.520 -0.5313 -0.1518 -0.2114
 5644TIP3    H238348   5.934   3.468  15.533 -0.1609 -0.4533  0.5665
 5645TIP3   OH238349   1.309   2.547  15.951 -0.1698 -0.0230  0.0449
 5645TIP3    H138350   1.379   2.601  15.986  1.4318 -0.7116 -1.9152
 5645TIP3    H238351   1.310   2.563  15.857 -2.8714  0.1436 -0.0477
 5646TIP3   OH238352   3.487   2.378   3.617  0.7910  0.3078 -0.0194
 5646TIP3    H138353   3.461   2.301   3.565 -0.7012  0.6803  0.1148
 5646TIP3    H238354   3.454   2.359   3.705  1.7590  0.4444  0.3757
 5647TIP3   OH238355   2.186   5.135  11.111  0.2192 -0.3623  0.2817
 5647TIP3    H138356   2.110   5.119  11.054  0.1825 -1.0810  0.5221
 5647TIP3    H238357   2.262   5.117  11.056  0.1769 -1.4822  0.5724
 5648TIP3   OH238358   5.966   4.183   4.844 -0.4393  0.3248 -0.5014
 5648TIP3    H138359   5.964   4.235   4.764  2.0003 -1.4361 -1.8438
 5648TIP3    H238360   6.046   4.211   4.889 -2.2107  1.9213  1.8956
 5649TIP3   OH238361   5.826   4.207   4.439  0.2077  0.2463 -0.3384
 5649TIP3    H138362   5.831   4.120   4.478  1.7557 -0.2564 -1.5562
 5649TIP3    H238363   5.838   4.267   4.513 -2.0316 -0.4804  0.6939
 5650TIP3   OH238364   5.681   5.543   5.363 -0.2145  0.4832  0.4867
 5650TIP3    H138365   5.648   5.494   5.288  0.2728  1.1115 -0.1580
 5650TIP3    H238366   5.607   5.549   5.423 -0.7707  0.4223 -0.1815
 5651TIP3   OH238367   2.166   6.424  16.339 -0.0599 -0.5198 -0.0325
 5651TIP3    H138368   2.158   6.486  16.267 -0.1005 -0.7905 -0.2620
 5651TIP3    H238369   2.103   6.355  16.319  1.0329 -1.3974 -0.5614
 5652TIP3   OH238370   0.283   6.212   2.678  0.1423  0.4905 -0.3150
 5652TIP3    H138371   0.281   6.259   2.761  0.0323  2.4479 -1.3681
 5652TIP3    H238372   0.310   6.123   2.701  0.6744  1.1396  1.7326
 5653TIP3   OH238373   0.831   1.597   2.938 -0.2018 -0.3841  0.1197
 5653TIP3    H138374   0.861   1.653   3.010  0.0145  1.0051 -0.9956
 5653TIP3    H238375   0.843   1.651   2.859 -0.1402 -1.9553 -1.0022
 5654TIP3   OH238376   6.110   3.722   0.791  0.2597  0.1479 -0.0278
 5654TIP3    H138377   6.183   3.762   0.744 -0.1021  0.5319 -0.2692
 5654TIP3    H238378   6.106   3.632   0.757 -0.6886  0.7352 -1.5633
 5655TIP3   OH238379   3.703   1.167   5.843  0.1159  0.0836  0.1714
 5655TIP3    H138380   3.646   1.095   5.870  0.2215 -0.6267 -1.4555
 5655TIP3    H238381   3.646   1.226   5.794  0.8603 -1.0222 -2.1641
 5656TIP3   OH238382   4.496   2.151   2.358  0.4030  0.0963  0.6905
 5656TIP3    H138383   4.579   2.131   2.316  0.5921  1.1026  0.5610
 5656TIP3    H238384   4.513   2.230   2.409 -0.1488 -0.4083  1.6891
 5657TIP3   OH238385   6.413   5.496   4.360  0.2777  0.2668  0.3473
 5657TIP3    H138386   6.348   5.529   4.422 -0.5595  0.8644 -0.8172
 5657TIP3    H238387   6.417   5.562   4.291 -0.4611 -1.4044 -1.3848
 5658TIP3   OH238388   5.325   5.282   3.699  0.2437 -0.4640 -0.5417
 5658TIP3    H138389   5.415   5.301   3.726  0.3732 -0.8361 -0.6946
 5658TIP3    H238390   5.282   5.367   3.694  0.2434 -0.3760  0.7279
 5659TIP3   OH238391   2.524   5.081  16.903  0.2043  0.3615  0.0612
 5659TIP3    H138392   2.487   5.141  16.838  1.7303 -0.4417 -1.6540
 5659TIP3    H238393   2.450   5.030  16.934 -0.4825  0.2795 -1.6147
 5660TIP3   OH238394   4.192   5.173  10.601 -0.0791  0.2981  0.2063
 5660TIP3    H138395   4.263   5.139  10.655 -1.5899 -0.4989  1.7742
 5660TIP3    H238396   4.126   5.203  10.664 -0.6178  2.2238 -1.1816
 5661TIP3   OH238397   2.265   0.833  17.391  0.0296 -0.1639  0.1649
 5661TIP3    H138398   2.295   0.833  17.482  1.4719  0.4531 -0.2851
 5661TIP3    H238399   2.280   0.743  17.361 -0.1713 -0.2896  0.4352
 5662TIP3   OH238400   5.418   0.769  12.247 -0.6381 -0.1032  0.3490
 5662TIP3    H138401   5.368   0.850  12.255 -0.6677 -0.2201  1.5185
 5662TIP3    H238402   5.504   0.796  12.215 -0.2847  0.5386  1.7829
 5663TIP3   OH238403   0.318   5.450   2.429  0.0707 -0.2045  0.0951
 5663TIP3    H138404   0.331   5.508   2.354 -0.2537 -1.4319 -0.9455
 5663TIP3    H238405   0.405   5.441   2.468  0.2899  0.2629 -0.2755
 5664TIP3   OH238406   5.755   4.718   2.084 -0.4457 -0.0745 -0.3958
 5664TIP3    H138407   5.761   4.624   2.073 -1.6710 -0.2830  0.5496
 5664TIP3    H238408   5.807   4.736   2.163  1.1715  0.2979 -1.4788
 5665TIP3   OH238409   6.136   4.744   1.578  0.4257  0.3132  0.5275
 5665TIP3    H138410   6.054   4.727   1.531  1.7098 -0.4857 -1.5500
 5665TIP3    H238411   6.127   4.695   1.659 -1.6010  1.1874  0.9062
 5666TIP3   OH238412   1.363   0.258  16.388 -0.1945 -0.3284 -0.2877
 5666TIP3    H138413   1.274   0.238  16.417 -1.3304 -0.5114 -3.5541
 5666TIP3    H238414   1.358   0.347  16.355  0.5404 -0.6988 -1.4500
 5667TIP3   OH238415   1.549   1.598   4.613 -0.2318  0.0797 -0.4043
 5667TIP3    H138416   1.563   1.625   4.522 -2.9608  0.0654 -0.9264
 5667TIP3    H238417   1.464   1.637   4.637 -0.0707 -0.7582  1.7987
 5668TIP3   OH238418   4.585   5.304  15.973  0.3349  0.0276 -0.2614
 5668TIP3    H138419   4.612   5.238  16.037 -1.1555  0.0393  0.4315
 5668TIP3    H238420   4.616   5.270  15.889 -0.4741 -1.6357  0.0616
 5669TIP3   OH238421   3.339   0.563  14.859  0.9920 -0.5113  0.1184
 5669TIP3    H138422   3.349   0.654  14.831  2.7444 -1.2912 -2.2033
 5669TIP3    H238423   3.244   0.551  14.867  0.7404  1.6455  1.1128
 5670TIP3   OH238424   1.213   6.317  13.491 -0.0509 -0.2788  0.4796
 5670TIP3    H138425   1.163   6.329  13.572  0.7265  1.3139  0.7657
 5670TIP3    H238426   1.302   6.343  13.514  0.2345 -0.0480 -0.8160
 5671TIP3   OH238427   6.594   5.821   2.594  0.5000  0.0609  0.0451
 5671TIP3    H138428   6.539   5.890   2.630  0.2497  0.1384 -0.4817
 5671TIP3    H238429   6.586   5.750   2.658  0.3957  0.3483  0.3582
 5672TIP3   OH238430   4.629   0.556   6.112  0.6380  0.0800  0.5394
 5672TIP3    H138431   4.721   0.536   6.130  1.0483  0.4184 -1.0187
 5672TIP3    H238432   4.632   0.630   6.052 -0.6539  0.0072  0.3525
 5673TIP3   OH238433   3.152   3.140   3.985 -0.4528  0.2038 -0.4132
 5673TIP3    H138434   3.066   3.160   4.022  0.2382  1.2191  0.7466
 5673TIP3    H238435   3.170   3.214   3.926  0.6641  1.3640  1.2864
 5674TIP3   OH238436   1.701   2.072   2.269  0.0935  0.2904 -0.4240
 5674TIP3    H138437   1.661   2.045   2.352 -0.5967 -0.1809 -0.9001
 5674TIP3    H238438   1.782   2.020   2.264 -0.8132 -1.1376 -0.9386
 5675TIP3   OH238439   4.678   4.953   2.871 -0.8407 -0.5101  0.6775
 5675TIP3    H138440   4.768   4.983   2.884 -0.8578  0.2646 -0.7834
 5675TIP3    H238441   4.673   4.870   2.919  0.8624 -0.9134  0.2100
 5676TIP3   OH238442   1.304   1.264  16.889 -0.5596  0.2869  0.6024
 5676TIP3    H138443   1.292   1.334  16.825 -0.6168  1.9903  2.3720
 5676TIP3    H238444   1.226   1.267  16.944  0.2713  0.1014  1.8566
 5677TIP3   OH238445   3.361   0.377  11.601  0.7998 -0.2605  0.2285
 5677TIP3    H138446   3.330   0.367  11.511  0.4647  0.8092  0.2104
 5677TIP3    H238447   3.288   0.347  11.655  1.3406 -1.7797  0.1510
 5678TIP3   OH238448   6.508   5.571  14.339 -0.5051  0.1858  0.1274
 5678TIP3    H138449   6.558   5.643  14.379  0.1079 -0.4394  0.5089
 5678TIP3    H238450   6.446   5.545  14.407  1.2906 -1.6311  1.1701
 5679TIP3   OH238451   0.646   2.702  15.724 -0.1197  0.2085  0.0584
 5679TIP3    H138452   0.724   2.665  15.682  1.1564  3.0730 -0.3469
 5679TIP3    H238453   0.600   2.748  15.655 -0.1633  1.6244  0.9848
 5680TIP3   OH238454   4.037   1.382  11.454 -0.2572  0.6260  0.4871
 5680TIP3    H138455   4.069   1.398  11.543  0.7304  0.8822  0.1007
 5680TIP3    H238456   4.065   1.460  11.405  0.4914 -0.1581 -0.3619
 5681TIP3   OH238457   0.058   5.925   3.610  0.3041 -0.1423  0.1836
 5681TIP3    H138458   0.101   5.895   3.530 -0.5238  0.0866 -0.3554
 5681TIP3    H238459   0.017   5.846   3.646  3.6803 -1.1448  2.4291
 5682TIP3   OH238460   5.789   5.800  15.200  0.8141 -0.5672 -0.0841
 5682TIP3    H138461   5.812   5.879  15.249  0.7985 -0.5876 -0.0429
 5682TIP3    H238462   5.695   5.791  15.214  0.1342  1.2013 -2.6730
 5683TIP3   OH238463   6.065   3.853  13.728 -0.4714  0.0233  0.1890
 5683TIP3    H138464   6.084   3.763  13.752  0.7811  0.7212  2.1261
 5683TIP3    H238465   6.088   3.859  13.635 -1.1943 -1.7647 -0.1476
 5684TIP3   OH238466   2.528   0.462   3.113  0.6910 -0.4046  0.0446
 5684TIP3    H138467   2.491   0.497   3.032  0.6370 -0.4873  0.0342
 5684TIP3    H238468   2.619   0.442   3.091  0.8494  0.1575  0.1744
 5685TIP3   OH238469   3.686   3.935   1.381 -0.0657  0.2635  0.0446
 5685TIP3    H138470   3.656   3.963   1.467 -0.1362 -0.2178  0.1778
 5685TIP3    H238471   3.662   3.842   1.376 -0.1616  0.3148 -0.5335
 5686TIP3   OH238472   0.993   6.026   5.724  0.9592  0.2390 -0.0385
 5686TIP3    H138473   0.930   6.064   5.785  0.3793 -0.3466 -0.2575
 5686TIP3    H238474   0.954   6.041   5.637  1.6664  0.8649 -0.2612
 5687TIP3   OH238475   3.384   6.466  16.230  0.5351  0.5843 -0.3835
 5687TIP3    H138476   3.410   6.505  16.314 -0.4229  0.3309  0.0410
 5687TIP3    H238477   3.408   6.374  16.237  0.8947  0.6569 -0.5872
 5688TIP3   OH238478   4.178   0.755   6.591  0.1024 -0.1267 -0.5371
 5688TIP3    H138479   4.089   0.735   6.564 -0.1311 -1.6138  1.2142
 5688TIP3    H238480   4.227   0.762   6.508 -1.6834  1.2840 -1.5513
 5689TIP3   OH238481   4.574   1.625   5.129 -0.0527 -0.1979  0.0535
 5689TIP3    H138482   4.515   1.686   5.174  0.6013 -0.5611  1.4431
 5689TIP3    H238483   4.517   1.576   5.070 -1.4864 -1.7038  2.5496
 5690TIP3   OH238484   0.334   4.688  11.632 -0.4824 -0.2174 -0.5291
 5690TIP3    H138485   0.337   4.710  11.539  1.4590 -0.5976 -0.6065
 5690TIP3    H238486   0.345   4.593  11.634  1.1627 -0.0549  0.0909
 5691TIP3   OH238487   3.481   2.553   4.235 -0.0596 -0.8364  0.1635
 5691TIP3    H138488   3.403   2.505   4.264 -0.5546 -0.1194  0.0634
 5691TIP3    H238489   3.448   2.615   4.170  0.3385  0.4664  1.1497
 5692TIP3   OH238490   2.500   0.423  16.852  0.3227  0.9601 -0.4692
 5692TIP3    H138491   2.539   0.446  16.768 -0.5760  0.3156 -1.0861
 5692TIP3    H238492   2.407   0.412  16.833  0.0502  1.1131  0.6795
 5693TIP3   OH238493   6.588   6.028  13.768  0.1655  0.4136  0.3738
 5693TIP3    H138494   6.524   5.963  13.796 -0.7754  1.2479  0.2091
 5693TIP3    H238495   6.666   5.977  13.746 -0.0114 -0.5124  1.7696
 5694TIP3   OH238496   6.202   4.402   0.010 -0.2522 -0.5467 -0.5655
 5694TIP3    H138497   6.142   4.442  -0.053  0.3374  0.1031 -0.7307
 5694TIP3    H238498   6.232   4.321  -0.032 -0.0568 -0.2427 -1.0214
 5695TIP3   OH238499   6.257   1.675   4.613  0.6116  0.5242 -0.8187
 5695TIP3    H138500   6.244   1.723   4.695 -0.4601 -1.5192  0.2925
 5695TIP3    H238501   6.352   1.660   4.609  0.4018 -3.5429  2.7645
 5696TIP3   OH238502   5.740   4.698  13.843  0.5888 -0.5079  0.2615
 5696TIP3    H138503   5.758   4.608  13.816 -0.1747  0.0589 -2.3260
 5696TIP3    H238504   5.781   4.753  13.776  0.8038  1.1134  1.6379
 5697TIP3   OH238505   3.660   0.437   1.563  0.0145 -0.4029  0.4026
 5697TIP3    H138506   3.717   0.360   1.569  0.6815  0.1177  0.7910
 5697TIP3    H238507   3.719   0.509   1.540 -0.8227 -0.2878 -1.6618
 5698TIP3   OH238508   0.006   3.048  16.595 -0.3987 -0.4679  0.2746
 5698TIP3    H138509   0.032   3.036  16.687 -0.8648 -1.0175  0.3446
 5698TIP3    H238510   0.004   3.143  16.583 -0.1017 -0.3942  0.7651
 5699TIP3   OH238511   5.336   5.846   2.888  0.4660  0.1202  0.2383
 5699TIP3    H138512   5.339   5.753   2.868 -0.7623 -0.1585  1.2029
 5699TIP3    H238513   5.243   5.867   2.889  0.5949  0.8301  2.2378
 5700TIP3   OH238514   0.015   3.340  16.573 -0.4389 -0.4198  0.5429
 5700TIP3    H138515   0.008   3.414  16.513  1.2642 -1.9238 -1.6703
 5700TIP3    H238516   0.105   3.345  16.605 -0.1480 -1.7647 -0.0202
 5701TIP3   OH238517   3.727   6.540   4.639 -0.1001 -0.0232  0.1644
 5701TIP3    H138518   3.745   6.628   4.607  2.5461 -0.3113  0.6434
 5701TIP3    H238519   3.729   6.549   4.735 -2.1313 -0.2327  0.2689
 5702TIP3   OH238520   0.123   4.776   4.316  0.1248 -0.1737  0.0142
 5702TIP3    H138521   0.094   4.829   4.390  1.4727  0.7503 -0.0911
 5702TIP3    H238522   0.051   4.783   4.252 -0.4159  0.1790  0.6488
 5703TIP3   OH238523   2.464   1.366   0.237 -0.6245 -0.3538  0.1316
 5703TIP3    H138524   2.414   1.288   0.214  2.0290 -1.4994 -2.3236
 5703TIP3    H238525   2.441   1.430   0.170  1.9804 -1.3458 -1.8646
 5704TIP3   OH238526   2.380   2.084   5.025 -0.5389  0.0367  0.3269
 5704TIP3    H138527   2.364   2.071   4.931  0.4819  3.4150 -0.4626
 5704TIP3    H238528   2.469   2.052   5.038 -0.8898 -0.9856  0.3207
 5705TIP3   OH238529   4.737   0.575  14.301  0.0043  0.5289  0.0617
 5705TIP3    H138530   4.818   0.602  14.344 -0.2937  1.2832  0.1600
 5705TIP3    H238531   4.669   0.631  14.339 -0.4819  0.2651 -0.3980
 5706TIP3   OH238532   2.586   4.626  11.435 -0.2306  0.2066 -0.4916
 5706TIP3    H138533   2.508   4.572  11.418 -1.5907  0.8939  2.6971
 5706TIP3    H238534   2.576   4.702  11.378 -0.4226 -0.9684 -2.0914
 5707TIP3   OH238535   6.224   6.006  15.247  0.1031  0.1300 -0.8800
 5707TIP3    H138536   6.152   6.058  15.282  1.2799  0.7080  0.7863
 5707TIP3    H238537   6.239   6.042  15.160 -1.5886  0.0012 -1.2618
 5708TIP3   OH238538   5.227   1.798  17.105  0.0204  0.3407 -0.5340
 5708TIP3    H138539   5.147   1.851  17.097 -0.9319 -0.9672 -0.1295
 5708TIP3    H238540   5.260   1.819  17.192 -0.7334 -0.1908 -0.0990
 5709TIP3   OH238541   4.427   4.931  16.948  0.0687  0.5029 -0.1427
 5709TIP3    H138542   4.438   4.926  16.853 -0.7213 -1.7967 -0.1863
 5709TIP3    H238543   4.512   4.906  16.984 -0.5378 -2.0728 -0.3323
 5710TIP3   OH238544   4.401   1.359  11.898  0.4011 -0.2339  0.2384
 5710TIP3    H138545   4.488   1.371  11.935  1.0351  0.2909 -1.3498
 5710TIP3    H238546   4.347   1.424  11.942  1.0624  0.1808  0.4480
 5711TIP3   OH238547   2.245   1.611  13.179 -0.1486 -0.7409 -0.0303
 5711TIP3    H138548   2.204   1.525  13.167  1.0847 -1.3543 -0.0277
 5711TIP3    H238549   2.228   1.634  13.270  0.3171 -1.4293  0.2373
 5712TIP3   OH238550   4.170   5.382   1.337  0.1779 -0.5130  0.3677
 5712TIP3    H138551   4.148   5.357   1.247  1.2665 -2.4781  0.5910
 5712TIP3    H238552   4.263   5.361   1.345 -0.4151 -2.7213  2.6457
 5713TIP3   OH238553   3.419   2.046   0.601  0.5610  0.1210  0.0293
 5713TIP3    H138554   3.413   1.965   0.651 -0.2240  0.0465 -0.1711
 5713TIP3    H238555   3.344   2.043   0.541  0.9146  0.6739 -0.4547
 5714TIP3   OH238556   5.205   2.835  15.360 -0.9190 -0.0401 -0.7337
 5714TIP3    H138557   5.221   2.857  15.452 -1.6601  0.2703 -0.6758
 5714TIP3    H238558   5.159   2.911  15.324  0.3706  0.3330 -1.6719
 5715TIP3   OH238559   4.322   6.155   2.594  0.2229  0.0171 -0.2305
 5715TIP3    H138560   4.403   6.174   2.641 -0.5722  0.6178  0.9587
 5715TIP3    H238561   4.294   6.070   2.629 -2.5381  2.2376  3.7383
 5716TIP3   OH238562   0.204   5.449   3.434 -0.0318  0.2891  0.3871
 5716TIP3    H138563   0.134   5.505   3.467 -0.7908 -1.2973  1.6114
 5716TIP3    H238564   0.273   5.510   3.407 -2.2157  1.9906 -1.8797
 5717TIP3   OH238565   6.035   4.394  14.140  0.5842 -0.3578 -0.5689
 5717TIP3    H138566   6.005   4.309  14.108 -0.5452  0.5912 -2.1950
 5717TIP3    H238567   5.970   4.457  14.107  0.9080  1.0641  1.2896
 5718TIP3   OH238568   1.438   2.298  14.454  0.5274 -0.7328  0.2185
 5718TIP3    H138569   1.406   2.388  14.453  0.1523 -0.8603 -0.7133
 5718TIP3    H238570   1.424   2.268  14.544  0.2750  0.0051  0.4309
 5719TIP3   OH238571   2.751   6.564  10.677  0.4761 -0.3558 -0.1708
 5719TIP3    H138572   2.827   6.605  10.719 -0.1047 -0.0165  0.5845
 5719TIP3    H238573   2.788   6.499  10.618  1.3418 -0.5803  0.5936
 5720TIP3   OH238574   6.663   4.079  14.606  0.2802  0.3817 -0.3625
 5720TIP3    H138575   6.661   4.036  14.521  0.1959 -0.4177  0.0354
 5720TIP3    H238576   6.685   4.009  14.668 -1.0089  0.6524  0.4458
 5721TIP3   OH238577   5.661   4.004  12.823  0.3237  0.4692  0.9135
 5721TIP3    H138578   5.724   3.973  12.758  0.9270  0.3942  1.5305
 5721TIP3    H238579   5.637   3.926  12.873 -2.7221 -0.2243 -1.2919
 5722TIP3   OH238580   5.246   5.492  16.914  0.2561  0.1471 -0.2876
 5722TIP3    H138581   5.306   5.546  16.965 -1.2022  2.7025 -1.0826
 5722TIP3    H238582   5.286   5.487  16.827  0.4762 -0.2557 -0.1678
 5723TIP3   OH238583   2.969   3.517  14.915  0.0615 -0.6385  0.7248
 5723TIP3    H138584   2.948   3.608  14.894 -2.5674 -1.0712  1.1740
 5723TIP3    H238585   2.992   3.518  15.008 -0.3723 -0.4831  0.8307
 5724TIP3   OH238586   0.514   1.279   3.569  0.1963 -0.6125  0.3252
 5724TIP3    H138587   0.507   1.373   3.588  0.0486 -0.0257 -2.2631
 5724TIP3    H238588   0.449   1.238   3.627 -0.9366  1.0825  0.3318
 5725TIP3   OH238589   0.670   6.430  14.947  0.2888  0.5069 -0.3284
 5725TIP3    H138590   0.670   6.387  14.861  2.6587  0.1914 -0.2256
 5725TIP3    H238591   0.714   6.513  14.933  1.0885  0.2657  0.6533
 5726TIP3   OH238592   0.368   3.314  17.405  0.1460 -0.8347 -0.3530
 5726TIP3    H138593   0.409   3.228  17.409 -0.0513 -0.8748  1.3487
 5726TIP3    H238594   0.431   3.373  17.445 -0.5635 -0.5478  0.3588
 5727TIP3   OH238595   3.370   2.978   5.142 -0.0566  0.1271 -0.7225
 5727TIP3    H138596   3.439   3.038   5.171 -1.2912  1.9108 -1.3123
 5727TIP3    H238597   3.392   2.959   5.051 -0.9611  1.7415 -1.3291
 5728TIP3   OH238598   4.163   6.620   2.464  0.4257  0.2376 -0.2424
 5728TIP3    H138599   4.199   6.679   2.397  2.7141 -1.1783 -0.3594
 5728TIP3    H238600   4.082   6.588   2.426  1.9876 -1.0416 -2.7252
 5729TIP3   OH238601   4.348   3.330  14.069  0.6478 -0.5658 -0.3542
 5729TIP3    H138602   4.278   3.339  14.005  0.9434 -1.9483 -0.9155
 5729TIP3    H238603   4.410   3.270  14.028  1.3462 -0.6742  0.8160
 5730TIP3   OH238604   3.892   2.328   4.884 -0.5755 -0.2830  0.5015
 5730TIP3    H138605   3.812   2.289   4.919  0.0188  0.0182  2.3573
 5730TIP3    H238606   3.896   2.415   4.925  0.1414  0.1342 -0.4189
 5731TIP3   OH238607   4.838   4.823  15.624  0.1658  0.8171 -0.3998
 5731TIP3    H138608   4.838   4.771  15.705  1.5120 -0.3851 -1.1058
 5731TIP3    H238609   4.766   4.787  15.572 -0.3649  1.2360  0.0320
 5732TIP3   OH238610   1.874   0.175   2.761 -0.4675  0.2917  0.7037
 5732TIP3    H138611   1.872   0.269   2.774  0.5251  0.5190 -0.5598
 5732TIP3    H238612   1.944   0.144   2.817  0.9289  0.6855 -0.7482
 5733TIP3   OH238613   2.582   3.604  16.078  0.7080 -0.0917  0.2834
 5733TIP3    H138614   2.516   3.654  16.125 -0.0177 -0.2331 -0.5645
 5733TIP3    H238615   2.610   3.537  16.141  0.3964  0.2571  0.8061
 5734TIP3   OH238616   6.439   1.873   2.784  0.1246  0.2476 -0.3427
 5734TIP3    H138617   6.508   1.858   2.849 -0.0335 -1.0637 -0.4487
 5734TIP3    H238618   6.451   1.964   2.758  0.2149  0.7945  1.4776
 5735TIP3   OH238619   2.272   0.341   0.690 -0.0038  0.3855 -0.5619
 5735TIP3    H138620   2.239   0.393   0.617  0.3032  0.5056 -0.6140
 5735TIP3    H238621   2.216   0.263   0.690  0.3553  0.1163 -1.2802
 5736TIP3   OH238622   2.978   5.919  16.230 -0.3582 -0.4486  0.1421
 5736TIP3    H138623   3.046   5.852  16.221 -0.0838  0.0415 -1.9040
 5736TIP3    H238624   3.027   6.002  16.235 -0.7607 -0.2406  0.8585
 5737TIP3   OH238625   5.184   2.933  12.391 -0.3203 -0.2609 -0.1176
 5737TIP3    H138626   5.179   2.888  12.307  1.1941 -1.7801  0.5521
 5737TIP3    H238627   5.250   3.001  12.378  0.3526 -0.8892  0.0132
 5738TIP3   OH238628   0.604   0.611  11.766  0.0945 -0.5899  0.0769
 5738TIP3    H138629   0.672   0.550  11.737  1.9158  0.8692  1.0875
 5738TIP3    H238630   0.599   0.598  11.861 -0.9141 -0.5268  0.0425
 5739TIP3   OH238631   2.324   1.542   1.428 -0.6419  0.2686 -0.1208
 5739TIP3    H138632   2.338   1.469   1.368  0.1655  0.2704  0.0516
 5739TIP3    H238633   2.366   1.515   1.509 -2.3339 -0.0280  0.7005
 5740TIP3   OH238634   4.762   1.653  12.175  0.1324  0.5911 -0.4867
 5740TIP3    H138635   4.826   1.702  12.226  1.3645 -0.3991 -1.0434
 5740TIP3    H238636   4.709   1.607  12.240  2.0257 -1.0888 -0.0610
 5741TIP3   OH238637   0.569   5.580   2.289 -0.1617  0.0250 -0.0295
 5741TIP3    H138638   0.567   5.511   2.223  2.3782 -0.2389  0.0760
 5741TIP3    H238639   0.627   5.546   2.357 -1.7984  0.7733  1.8253
 5742TIP3   OH238640   1.015   0.850  17.273 -0.6234  0.5762 -0.0292
 5742TIP3    H138641   1.016   0.767  17.321 -0.1893  0.7654  0.2941
 5742TIP3    H238642   1.001   0.825  17.182 -1.7956  0.2332  0.2349
 5743TIP3   OH238643   5.340   3.653  14.342  0.2083  0.4180  0.3049
 5743TIP3    H138644   5.413   3.708  14.370 -1.1176  1.6277  1.5516
 5743TIP3    H238645   5.362   3.629  14.252  1.7439  1.3953  0.3705
 5744TIP3   OH238646   1.273   4.079  16.482 -0.0921  0.0886 -0.4879
 5744TIP3    H138647   1.314   4.154  16.524 -0.7893  0.5707 -0.6398
 5744TIP3    H238648   1.256   4.018  16.553 -1.1021  0.8224 -0.0751
 5745TIP3   OH238649   0.659   1.317   1.046 -0.8839 -0.0854  0.2037
 5745TIP3    H138650   0.593   1.379   1.078 -3.2991 -1.9579 -0.8543
 5745TIP3    H238651   0.672   1.340   0.955 -1.6157 -0.9245 -0.1298
 5746TIP3   OH238652   5.168   2.524  13.127  0.4103 -0.5373  0.0015
 5746TIP3    H138653   5.223   2.599  13.106  0.4139 -0.7936 -0.9503
 5746TIP3    H238654   5.227   2.461  13.167  1.1976 -1.4186 -2.3681
 5747TIP3   OH238655   5.058   4.908   3.451  0.1297 -0.4575 -0.2651
 5747TIP3    H138656   5.049   4.948   3.365 -0.5948  0.2451  0.1118
 5747TIP3    H238657   5.115   4.833   3.438  0.7644  0.1696 -1.1801
 5748TIP3   OH238658   2.283   1.831   4.343 -0.4636  0.0467 -0.3152
 5748TIP3    H138659   2.268   1.765   4.275  0.2951 -0.1546 -0.2944
 5748TIP3    H238660   2.366   1.806   4.383 -0.3732  0.7807 -0.0296
 5749TIP3   OH238661   3.999   2.839  13.212 -0.1125 -0.3951 -0.0514
 5749TIP3    H138662   4.013   2.749  13.183  0.5612 -1.0526  2.0989
 5749TIP3    H238663   3.973   2.886  13.133 -0.2261 -2.4057 -1.2882
 5750TIP3   OH238664   5.994   0.229   2.352  0.2035 -0.1425  0.1307
 5750TIP3    H138665   5.945   0.153   2.321  1.7103 -1.1676  0.1496
 5750TIP3    H238666   5.949   0.256   2.432 -0.8651 -0.4618 -0.3465
 5751TIP3   OH238667   4.942   3.208   3.398 -0.4347 -0.2405  0.4811
 5751TIP3    H138668   4.869   3.146   3.399 -0.8796  0.2695 -0.1153
 5751TIP3    H238669   4.975   3.204   3.308  0.6644 -0.9096  0.8862
 5752TIP3   OH238670   3.367   0.394   4.101  0.5116  0.0306 -0.0927
 5752TIP3    H138671   3.432   0.454   4.063  0.9076  0.5519  1.3155
 5752TIP3    H238672   3.420   0.330   4.149  0.0070  0.1105  0.5740
 5753TIP3   OH238673   1.083   0.868  13.208 -0.2428  0.1855  0.2266
 5753TIP3    H138674   1.054   0.847  13.119  0.5462 -0.8664  0.1941
 5753TIP3    H238675   1.044   0.953  13.227 -0.5685  0.3392 -1.0563
 5754TIP3   OH238676   0.758   4.956   1.327  0.1005 -0.3620 -0.1348
 5754TIP3    H138677   0.689   4.997   1.379 -0.1932 -0.4395 -0.4622
 5754TIP3    H238678   0.770   5.015   1.253  1.2852  0.3190  0.5760
 5755TIP3   OH238679   4.506   3.677   6.352 -0.0829 -0.2308  0.2242
 5755TIP3    H138680   4.586   3.655   6.302 -0.1461 -1.8727  0.7809
 5755TIP3    H238681   4.515   3.770   6.371  0.8623  0.0146 -1.2224
 5756TIP3   OH238682   3.738   5.848   4.241  0.3110 -0.0734 -0.3462
 5756TIP3    H138683   3.776   5.761   4.230  0.7478  0.1023 -0.2710
 5756TIP3    H238684   3.790   5.887   4.312  0.4268  0.4168 -0.6981
 5757TIP3   OH238685   3.869   6.293  16.019 -0.2437 -0.0729 -0.3133
 5757TIP3    H138686   3.790   6.347  16.013 -0.4294 -0.2687  0.3051
 5757TIP3    H238687   3.912   6.323  16.099  0.6094  0.4252 -0.9466
 5758TIP3   OH238688   6.740   0.619  12.380 -0.3659 -0.5336  0.0721
 5758TIP3    H138689   6.769   0.598  12.468  0.5789 -2.1677 -0.5922
 5758TIP3    H238690   6.820   0.626  12.328 -0.9685 -1.6479 -1.0738
 5759TIP3   OH238691   5.126   0.286  12.898  0.0834 -0.1688  0.1933
 5759TIP3    H138692   5.195   0.333  12.850 -0.5497  0.4796 -0.0919
 5759TIP3    H238693   5.147   0.193  12.885  1.1464  0.0136  0.4703
 5760TIP3   OH238694   6.386   0.343  16.527  0.1278  0.1603  0.6554
 5760TIP3    H138695   6.351   0.386  16.449  1.6289 -0.2868 -0.3082
 5760TIP3    H238696   6.441   0.410  16.569  2.0282 -0.5501 -0.5508
 5761TIP3   OH238697   4.022   1.533  13.466  0.8323  0.5030 -0.1509
 5761TIP3    H138698   4.007   1.623  13.496  0.5554  0.7402 -0.9701
 5761TIP3    H238699   4.117   1.526  13.458  0.9207  0.3814  0.9243
 5762TIP3   OH238700   3.236   0.834  16.427 -0.0400  0.3574  0.1040
 5762TIP3    H138701   3.322   0.803  16.456 -1.3656 -0.8277  3.3155
 5762TIP3    H238702   3.233   0.814  16.334  2.2598 -1.8167  0.3974
 5763TIP3   OH238703   4.818   1.235   6.563  0.4054  0.0455  0.0057
 5763TIP3    H138704   4.826   1.305   6.627 -0.1595 -0.0495  0.1819
 5763TIP3    H238705   4.880   1.259   6.493  0.4075  0.5780  0.1867
 5764TIP3   OH238706   0.354   4.355   0.911 -0.1980 -0.5420 -0.7575
 5764TIP3    H138707   0.414   4.291   0.949  0.5152 -0.0776 -1.0861
 5764TIP3    H238708   0.267   4.324   0.936  0.0724 -2.1289 -1.6482
 5765TIP3   OH238709   4.715   6.731  15.281 -0.2700  0.0134 -0.3332
 5765TIP3    H138710   4.769   6.739  15.360 -0.3830  0.4914 -0.3040
 5765TIP3    H238711   4.765   6.774  15.212  0.0363 -0.7979 -0.6342
 5766TIP3   OH238712   5.308   1.211   5.794  0.9168  0.0282  0.0320
 5766TIP3    H138713   5.288   1.187   5.703 -1.4424 -1.2469  0.8249
 5766TIP3    H238714   5.265   1.145   5.847  3.3272 -0.0035  2.1187
 5767TIP3   OH238715   1.924   4.327  14.503  0.1502 -0.2627 -0.2183
 5767TIP3    H138716   1.925   4.248  14.557  1.2056 -1.1852 -1.5120
 5767TIP3    H238717   1.845   4.320  14.450 -1.0457  0.7877  1.3177
 5768TIP3   OH238718   1.201   1.656  16.194  0.3050  0.1404 -0.0510
 5768TIP3    H138719   1.262   1.725  16.220 -0.3793  0.0298  2.0164
 5768TIP3    H238720   1.195   1.598  16.270  0.5649 -2.0438 -1.5918
 5769TIP3   OH238721   0.273   3.027   2.907 -0.4086 -0.1233 -0.2644
 5769TIP3    H138722   0.361   3.006   2.938 -0.5351  2.3924  2.2080
 5769TIP3    H238723   0.243   3.097   2.966 -4.9717 -2.3828  0.5308
 5770TIP3   OH238724   0.260   5.895  11.848  0.0188  0.1709 -0.3750
 5770TIP3    H138725   0.183   5.869  11.898  2.1897 -3.7382  1.3387
 5770TIP3    H238726   0.274   5.824  11.786  1.1807  1.7680 -2.0587
 5771TIP3   OH238727   4.696   2.218   4.172  0.2639 -0.2704 -0.6278
 5771TIP3    H138728   4.682   2.147   4.234 -1.1492  0.4790 -0.0256
 5771TIP3    H238729   4.790   2.237   4.178  0.3112 -0.7830  0.6598
 5772TIP3   OH238730   5.996   0.766  12.160  0.7744 -0.1139  0.1565
 5772TIP3    H138731   6.079   0.726  12.188  0.6826 -1.3815 -1.2499
 5772TIP3    H238732   5.937   0.752  12.234  1.3392 -0.7561  0.5047
 5773TIP3   OH238733   3.612   3.670  12.340 -0.1245 -0.3136 -0.2821
 5773TIP3    H138734   3.596   3.576  12.328  0.2701 -0.4174 -0.0129
 5773TIP3    H238735   3.554   3.713  12.276 -0.2295 -0.7431 -0.4766
 5774TIP3   OH238736   6.432   5.555   3.883 -0.0720  0.2761 -0.0698
 5774TIP3    H138737   6.391   5.597   3.807 -0.7570 -1.1917 -0.5597
 5774TIP3    H238738   6.453   5.467   3.852  1.9939  0.4640  0.6900
 5775TIP3   OH238739   6.323   4.205  16.146  0.0287 -0.3045 -0.1234
 5775TIP3    H138740   6.278   4.284  16.175  1.5785 -0.5169  3.2793
 5775TIP3    H238741   6.293   4.192  16.056 -1.4999  3.2172 -0.2665
 5776TIP3   OH238742   4.396   3.557  13.064 -0.2299 -0.0482 -0.4448
 5776TIP3    H138743   4.342   3.490  13.105  2.0880 -0.8538  1.4956
 5776TIP3    H238744   4.470   3.509  13.027 -0.0115  1.1700 -1.6856
 5777TIP3   OH238745   4.439   0.094   6.982  0.1400 -0.5109  0.0129
 5777TIP3    H138746   4.399   0.050   6.906  1.5145 -2.0760  0.1348
 5777TIP3    H238747   4.529   0.063   6.982  0.5710  0.6768  1.4108
 5778TIP3   OH238748   1.003   4.049   0.660  0.2839  0.0837  0.0832
 5778TIP3    H138749   0.950   3.987   0.711 -1.3306  1.1061 -0.2836
 5778TIP3    H238750   0.955   4.059   0.577  1.5858  0.3058 -0.6666
 5779TIP3   OH238751   2.121   3.127   4.273  0.0846 -0.2954 -0.0452
 5779TIP3    H138752   2.118   3.206   4.328 -2.0477 -1.2388  1.2978
 5779TIP3    H238753   2.179   3.068   4.320  1.3263  0.2588 -0.8259
 5780TIP3   OH238754   3.689   6.089  11.640  0.0501  0.3838  0.3061
 5780TIP3    H138755   3.671   5.999  11.667 -1.5243  0.7697  0.6138
 5780TIP3    H238756   3.603   6.129  11.632  0.7392  1.9377  0.4001
 5781TIP3   OH238757   4.761   0.531   2.502  0.0328  0.2270  0.2972
 5781TIP3    H138758   4.840   0.511   2.452  0.9578  1.3198  1.2490
 5781TIP3    H238759   4.775   0.489   2.586 -0.5150  0.2314  0.3910
 5782TIP3   OH238760   0.325   4.378   5.250 -0.2544 -0.3535  0.3974
 5782TIP3    H138761   0.357   4.302   5.298  1.5895  0.5477  0.7128
 5782TIP3    H238762   0.315   4.446   5.317 -1.5054 -0.1934  0.0689
 5783TIP3   OH238763   2.256   5.325   4.114  0.4490 -0.4879  0.2210
 5783TIP3    H138764   2.172   5.316   4.159 -1.0421  1.0752 -2.0046
 5783TIP3    H238765   2.245   5.275   4.033  1.8614 -0.6511  0.1015
 5784TIP3   OH238766   0.798   1.057  11.344 -0.3200 -0.1777 -0.0082
 5784TIP3    H138767   0.731   1.069  11.276 -0.6395 -1.3465  0.0824
 5784TIP3    H238768   0.798   1.139  11.393 -3.6161 -1.0285  1.7069
 5785TIP3   OH238769   0.510   0.009  11.418 -0.5647 -0.1035 -0.2434
 5785TIP3    H138770   0.467  -0.053  11.476 -1.9023  0.8420 -0.1833
 5785TIP3    H238771   0.569  -0.044  11.365 -1.9423 -1.4878 -0.4525
 5786TIP3   OH238772   3.171   1.089  14.136  0.4790 -0.3849 -0.7175
 5786TIP3    H138773   3.253   1.105  14.184 -0.3262 -1.2449  1.0463
 5786TIP3    H238774   3.132   1.176  14.125  0.0572 -0.2346  1.4600
 5787TIP3   OH238775   0.969   4.014   5.981  0.2855  0.2402 -0.1682
 5787TIP3    H138776   0.873   4.016   5.982  0.2358 -0.1408  2.8338
 5787TIP3    H238777   0.992   3.928   6.016  1.7698  0.1602 -1.2462
 5788TIP3   OH238778   2.159   6.735   3.286  0.4687  0.1896  0.6392
 5788TIP3    H138779   2.124   6.690   3.208 -1.8459  0.5610  1.3855
 5788TIP3    H238780   2.231   6.680   3.315  0.0286 -1.0932 -0.5723
 5789TIP3   OH238781   0.530   4.585  12.157 -0.2862 -0.2378  0.5493
 5789TIP3    H138782   0.489   4.507  12.194  2.3661 -0.9446  2.2871
 5789TIP3    H238783   0.507   4.583  12.064 -2.0007 -1.9100  0.9567
 5790TIP3   OH238784   3.139   2.844  10.657  0.1035  0.0739 -0.0211
 5790TIP3    H138785   3.143   2.786  10.733  0.2993 -0.2838 -0.3063
 5790TIP3    H238786   3.175   2.927  10.690 -0.4373  0.1256  0.4589
 5791TIP3   OH238787   4.792   1.983  16.404 -0.0964  0.9503 -0.2743
 5791TIP3    H138788   4.736   2.031  16.344 -0.2786 -0.2376 -1.0965
 5791TIP3    H238789   4.829   1.913  16.350  1.1396  0.9204  0.5737
 5792TIP3   OH238790   4.376   1.791   5.633 -0.1233 -0.0518  0.0117
 5792TIP3    H138791   4.352   1.708   5.592 -2.1054  0.9898 -1.1025
 5792TIP3    H238792   4.342   1.785   5.722  1.4347 -1.1141  0.5856
 5793TIP3   OH238793   6.687   1.274   5.713 -0.0938 -0.1949  0.2969
 5793TIP3    H138794   6.770   1.321   5.710  0.8052 -1.7897 -1.5360
 5793TIP3    H238795   6.632   1.327   5.772  1.7534  1.5904  0.5294
 5794TIP3   OH238796   3.111   2.715  11.847  0.4914 -0.5501 -0.3839
 5794TIP3    H138797   3.056   2.657  11.899  0.3023  0.7346  0.8972
 5794TIP3    H238798   3.058   2.738  11.772  0.7266 -2.3442 -1.1599
 5795TIP3   OH238799   6.680   5.224  17.220  0.4143  0.3009  0.0450
 5795TIP3    H138800   6.695   5.130  17.219  1.2981  0.4326 -0.7423
 5795TIP3    H238801   6.755   5.261  17.173 -0.1617  1.3603 -0.0801
 5796TIP3   OH238802   4.584   1.326   6.410 -0.2890 -0.2064 -0.0063
 5796TIP3    H138803   4.648   1.300   6.476  1.5482 -2.5850 -2.4790
 5796TIP3    H238804   4.635   1.371   6.343 -1.0437 -2.3109 -2.1359
 5797TIP3   OH238805   5.097   5.721  13.126  0.0026 -0.5661  0.5722
 5797TIP3    H138806   5.082   5.766  13.210  1.5248  0.7400  0.1996
 5797TIP3    H238807   5.038   5.765  13.065  0.7610  0.2898  0.4294
 5798TIP3   OH238808   6.400   5.804  17.060 -0.1630  0.4800 -0.2131
 5798TIP3    H138809   6.360   5.869  17.001  0.8960  1.3105 -0.0538
 5798TIP3    H238810   6.455   5.751  17.003 -2.4186 -1.5543 -0.6744
 5799TIP3   OH238811   3.764   2.698  12.236  0.8880 -0.2229  0.0821
 5799TIP3    H138812   3.803   2.659  12.314  0.5071  0.8185  0.8193
 5799TIP3    H238813   3.673   2.667  12.236  1.2941 -1.5008 -0.8504
 5800TIP3   OH238814   5.320   6.321  15.027  0.3310  0.1155  0.1594
 5800TIP3    H138815   5.277   6.298  15.109  0.8484  0.0812  0.4288
 5800TIP3    H238816   5.268   6.392  14.991 -0.2133 -0.2304  0.2473
 5801TIP3   OH238817   0.805   3.803  13.834 -0.0811  0.1344 -0.0265
 5801TIP3    H138818   0.865   3.822  13.906 -2.3355 -3.3036  3.0779
 5801TIP3    H238819   0.718   3.824  13.869 -1.5180 -3.9863 -0.5854
 5802TIP3   OH238820   5.002   2.113  17.415 -0.1175  0.8540 -0.2473
 5802TIP3    H138821   5.049   2.107  17.498 -0.3878  1.1998 -0.0660
 5802TIP3    H238822   4.928   2.052  17.425  0.7367 -0.3320 -0.8476
 5803TIP3   OH238823   5.567   5.562  15.425  0.0235 -0.3155  0.4763
 5803TIP3    H138824   5.531   5.513  15.352 -0.4970 -1.6559  1.5904
 5803TIP3    H238825   5.662   5.549  15.419 -0.0216 -0.4631  0.0786
 5804TIP3   OH238826   4.393   5.011   5.125  0.3371 -0.0774  0.0764
 5804TIP3    H138827   4.444   4.971   5.055  2.6047 -0.6260  1.9333
 5804TIP3    H238828   4.440   5.092   5.145 -1.5254  1.2022 -0.4205
 5805TIP3   OH238829   1.148   4.513   3.675 -0.1398  0.3998  0.3590
 5805TIP3    H138830   1.150   4.596   3.724 -0.9254  0.6047  0.0626
 5805TIP3    H238831   1.104   4.535   3.593 -1.5087 -0.5617  0.7905
 5806TIP3   OH238832   1.114   5.576  17.408  0.1168  0.7414  0.0935
 5806TIP3    H138833   1.044   5.606  17.350  0.9401  2.1357 -0.2351
 5806TIP3    H238834   1.182   5.543  17.348  0.7186  1.6187  0.2833
 5807TIP3   OH238835   5.721   3.591  13.494  0.1031  0.2124  0.1512
 5807TIP3    H138836   5.792   3.602  13.430 -1.4128  0.7352 -1.5253
 5807TIP3    H238837   5.714   3.676  13.537  0.9127 -0.0399  0.7994
 5808TIP3   OH238838   4.469   2.988   5.992  0.1722 -0.3779 -0.5371
 5808TIP3    H138839   4.488   2.897   6.016  0.6479 -0.1254  0.0855
 5808TIP3    H238840   4.554   3.024   5.966  0.3114  0.3527  0.8585
 5809TIP3   OH238841   1.318   5.255   1.991  0.3572  0.3091 -0.1136
 5809TIP3    H138842   1.295   5.347   2.007  4.1674  1.5306 -0.6743
 5809TIP3    H238843   1.332   5.250   1.897 -1.2188 -1.3353 -0.3246
 5810TIP3   OH238844   2.731   3.997   4.130  0.1553 -0.1261 -0.4264
 5810TIP3    H138845   2.787   4.035   4.198 -1.0899  0.3868  0.3329
 5810TIP3    H238846   2.730   4.063   4.060  1.4567 -0.6650 -1.0015
 5811TIP3   OH238847   5.602   5.301   1.656 -0.1785 -0.0572 -0.1123
 5811TIP3    H138848   5.596   5.209   1.633  2.3702 -0.3940  0.3159
 5811TIP3    H238849   5.642   5.343   1.580 -0.3090  0.5115  0.1215
 5812TIP3   OH238850   1.612   5.356   1.911  0.1327  0.7008 -1.0197
 5812TIP3    H138851   1.595   5.283   1.852  0.0508  0.7838 -1.0974
 5812TIP3    H238852   1.657   5.316   1.986 -0.8051  0.4024 -0.5985
 5813TIP3   OH238853   5.776   4.589   5.929 -0.4805 -0.1587 -0.4778
 5813TIP3    H138854   5.812   4.540   6.003 -1.1021  0.8767  0.5393
 5813TIP3    H238855   5.798   4.536   5.852 -0.8963 -1.9038  0.5476
 5814TIP3   OH238856   3.040   4.763  11.357  0.0415  0.0570  0.1055
 5814TIP3    H138857   3.078   4.795  11.276 -1.1021 -0.1848 -0.5499
 5814TIP3    H238858   2.987   4.688  11.331  0.2689 -0.5077  1.1921
 5815TIP3   OH238859   3.219   2.500   0.390  0.3008  0.3671 -0.3353
 5815TIP3    H138860   3.268   2.581   0.377  0.6662  0.2139  0.0214
 5815TIP3    H238861   3.188   2.476   0.303 -1.3914  1.8509 -0.1886
 5816TIP3   OH238862   4.879   4.711   5.716  0.1177  0.2053  0.4081
 5816TIP3    H138863   4.920   4.788   5.675  2.1591 -0.5627  0.8557
 5816TIP3    H238864   4.788   4.714   5.688  0.5068  1.9404 -0.8421
 5817TIP3   OH238865   6.366   6.378   0.286  0.1044  0.3780  0.4804
 5817TIP3    H138866   6.435   6.325   0.246 -0.3294  0.0406  0.1688
 5817TIP3    H238867   6.290   6.320   0.288 -0.2853  0.8831  0.4373
 5818TIP3   OH238868   0.021   1.773   0.804 -0.0704 -0.5704 -0.4251
 5818TIP3    H138869  -0.015   1.846   0.855  2.7480  1.0634 -0.5700
 5818TIP3    H238870  -0.023   1.696   0.839 -2.6054  1.0587  0.3053
 5819TIP3   OH238871   3.203   6.011  11.607 -0.2528 -0.3114  0.1689
 5819TIP3    H138872   3.146   6.008  11.530 -0.1947  0.9481  0.0514
 5819TIP3    H238873   3.148   6.046  11.677 -0.2852 -1.3877  0.6970
 5820TIP3   OH238874   0.036   4.603   4.834 -0.6869 -0.0278 -0.1610
 5820TIP3    H138875   0.086   4.580   4.912 -2.2110 -2.6816  0.1726
 5820TIP3    H238876   0.060   4.537   4.770 -1.0608  0.8465 -1.2331
 5821TIP3   OH238877   6.072   3.112  16.312 -1.5550 -0.1830 -0.4636
 5821TIP3    H138878   6.145   3.127  16.252 -2.0410 -0.6117 -1.1789
 5821TIP3    H238879   6.110   3.068  16.387 -0.2936  3.2015  1.1125
 5822TIP3   OH238880   0.695   6.584   2.610  0.6349 -0.2920 -0.1833
 5822TIP3    H138881   0.733   6.616   2.692  0.4765  1.1796 -0.6562
 5822TIP3    H238882   0.672   6.493   2.628 -0.2492  0.2618  1.7185
 5823TIP3   OH238883   2.888   5.024   3.126  0.2610 -0.0831 -0.8441
 5823TIP3    H138884   2.948   5.004   3.054  0.0122 -0.1524 -1.0350
 5823TIP3    H238885   2.802   4.993   3.095  0.0875  0.2135 -0.6647
 5824TIP3   OH238886   6.083   3.333   3.340 -0.1412 -0.0893  0.1519
 5824TIP3    H138887   6.173   3.342   3.371 -0.1442 -0.5052  0.2901
 5824TIP3    H238888   6.074   3.399   3.272 -0.0998  0.7520  0.9495
 5825TIP3   OH238889   3.851   1.432   0.925 -0.0770 -0.2904  0.2053
 5825TIP3    H138890   3.916   1.477   0.871 -1.6593 -0.7091 -2.2012
 5825TIP3    H238891   3.897   1.356   0.961  0.8578 -0.3818 -1.1323
 5826TIP3   OH238892   4.870   5.784   2.351  0.0997  0.1713 -0.7044
 5826TIP3    H138893   4.924   5.705   2.357  0.1115  0.2874  2.0633
 5826TIP3    H238894   4.933   5.856   2.360 -0.3781  0.3021  3.1807
 5827TIP3   OH238895   2.486   2.836   3.251  0.4933 -0.3651 -0.0525
 5827TIP3    H138896   2.411   2.783   3.279  0.8094 -1.0463 -0.4567
 5827TIP3    H238897   2.479   2.840   3.156  1.1860 -0.7820 -0.1317
 5828TIP3   OH238898   0.324   2.892   2.331 -0.3275  0.1342  0.5758
 5828TIP3    H138899   0.332   2.914   2.424 -1.1310 -2.7200  1.4180
 5828TIP3    H238900   0.329   2.796   2.329  0.3243  0.1517 -2.4232
 5829TIP3   OH238901   3.061   2.578  16.974  0.2709  0.4841 -0.0858
 5829TIP3    H138902   3.138   2.634  16.963  0.4113  0.1448 -0.9149
 5829TIP3    H238903   3.012   2.587  16.892  0.3697 -0.6908 -0.2972
 5830TIP3   OH238904   0.180   4.526  15.575 -1.0296 -0.8601 -0.4226
 5830TIP3    H138905   0.090   4.531  15.607 -0.6143 -0.1635  0.6707
 5830TIP3    H238906   0.220   4.609  15.602  0.8892 -2.4830  2.0390
 5831TIP3   OH238907   0.658   5.148   3.002  0.4148  0.3029 -0.2666
 5831TIP3    H138908   0.739   5.197   3.015  0.2957  0.5870 -0.5782
 5831TIP3    H238909   0.627   5.175   2.915 -0.0991  0.3188 -0.0818
 5832TIP3   OH238910   1.328   1.903  15.923  0.0079  0.2657 -0.7419
 5832TIP3    H138911   1.347   1.955  15.845 -0.6276 -0.3428 -1.3190
 5832TIP3    H238912   1.239   1.926  15.947  0.1933  0.4365 -0.1963
 5833TIP3   OH238913   2.519   1.275   6.199 -0.6255 -0.6216  0.4906
 5833TIP3    H138914   2.499   1.192   6.155 -1.9262  0.7579 -1.7293
 5833TIP3    H238915   2.534   1.337   6.128  0.5365  1.0315  2.0825
 5834TIP3   OH238916   0.773   2.082   0.659  0.2617  0.2082 -0.3179
 5834TIP3    H138917   0.754   2.064   0.751  0.4328 -0.0133 -0.3247
 5834TIP3    H238918   0.795   1.996   0.622  0.0933  0.2812 -0.5901
 5835TIP3   OH238919   4.548   0.301  15.644 -0.8251 -0.1890  0.2236
 5835TIP3    H138920   4.471   0.268  15.598 -0.6710 -0.5949  0.2494
 5835TIP3    H238921   4.526   0.391  15.667 -0.2972  0.5985 -2.0728
 5836TIP3   OH238922   6.225   1.937   1.130 -0.0925 -0.0775 -0.3947
 5836TIP3    H138923   6.232   1.920   1.223 -0.3830 -2.1635 -0.7111
 5836TIP3    H238924   6.131   1.945   1.114 -0.1832 -1.7215 -0.7992
 5837TIP3   OH238925   1.061   5.376  15.123 -0.4563  0.2717 -0.1624
 5837TIP3    H138926   1.084   5.434  15.050 -0.2257 -0.8490 -0.9959
 5837TIP3    H238927   1.140   5.327  15.141 -1.1777 -1.2030 -0.8134
 5838TIP3   OH238928   0.877   4.048   5.700  0.2721 -0.2034 -0.0767
 5838TIP3    H138929   0.929   4.003   5.633 -0.5642  0.2540 -1.0568
 5838TIP3    H238930   0.918   4.023   5.783  0.7964 -1.4693 -0.6988
 5839TIP3   OH238931   6.210   4.046  11.632  0.0140  0.0460  0.1679
 5839TIP3    H138932   6.212   4.131  11.676 -3.5596 -0.1361  1.0267
 5839TIP3    H238933   6.258   3.988  11.690  0.6945  1.0595  0.6468
 5840TIP3   OH238934   5.603   4.099   3.480 -0.2114  0.2509  0.0077
 5840TIP3    H138935   5.515   4.125   3.507 -0.8454 -0.0601 -1.6924
 5840TIP3    H238936   5.590   4.024   3.423  1.2758 -0.7036  0.8548
 5841TIP3   OH238937   0.098   4.950   4.520  0.3489  0.2670  0.4515
 5841TIP3    H138938   0.093   5.045   4.528  3.1092  0.6286 -0.7901
 5841TIP3    H238939   0.102   4.919   4.610  0.2421  1.3981  0.8679
 5842TIP3   OH238940   0.635   0.586  17.276 -0.3623 -0.1136  0.0615
 5842TIP3    H138941   0.573   0.633  17.333  0.4583  2.2484 -0.8677
 5842TIP3    H238942   0.718   0.588  17.324 -0.1875 -0.0794 -0.2392
 5843TIP3   OH238943   2.907   0.623  15.195  0.1912  0.5743 -0.2296
 5843TIP3    H138944   2.946   0.539  15.168 -1.0888  0.2570 -1.2184
 5843TIP3    H238945   2.968   0.689  15.162  0.5466  0.0594 -0.6238
 5844TIP3   OH238946   2.408   0.930  12.992 -0.0916  0.3195 -0.2470
 5844TIP3    H138947   2.446   0.940  12.904 -0.4596  0.6069 -0.3726
 5844TIP3    H238948   2.483   0.936  13.051  0.5566 -2.3216 -0.6476
 5845TIP3   OH238949   4.457   2.736  13.471  0.6562 -0.0365  0.3384
 5845TIP3    H138950   4.413   2.730  13.556  0.8285 -1.1547  0.3685
 5845TIP3    H238951   4.386   2.728  13.407  0.6455 -0.3110  0.3827
 5846TIP3   OH238952   1.633   2.237  11.578 -0.2490 -0.1302  0.4489
 5846TIP3    H138953   1.634   2.187  11.660 -0.0989 -1.1053 -0.1241
 5846TIP3    H238954   1.594   2.177  11.515  0.5707  0.2310 -0.4232
 5847TIP3   OH238955   4.928   4.853  16.764  0.5105  0.0822  0.1079
 5847TIP3    H138956   4.858   4.788  16.761 -0.8927  1.5228  0.1214
 5847TIP3    H238957   4.928   4.891  16.676  2.3328 -0.9140 -0.3669
 5848TIP3   OH238958   4.508   1.404  12.241 -0.3176 -0.5848  0.5648
 5848TIP3    H138959   4.583   1.389  12.182 -0.9255 -1.5353  0.0017
 5848TIP3    H238960   4.436   1.426  12.183 -0.2550  1.4414  1.1805
 5849TIP3   OH238961   6.358   2.346  15.743  0.5518  0.4003 -0.1166
 5849TIP3    H138962   6.346   2.365  15.650  2.0383 -0.5222 -0.5404
 5849TIP3    H238963   6.434   2.398  15.769 -0.1421  1.0103  0.7079
 5850TIP3   OH238964   0.123   4.260  13.241  0.1074  0.3221  0.0922
 5850TIP3    H138965   0.100   4.311  13.318 -1.2903  0.2847 -0.2571
 5850TIP3    H238966   0.134   4.171  13.273  0.1428  0.4196  0.3496
 5851TIP3   OH238967   4.648   6.066   2.461 -0.2125 -0.4720  0.0913
 5851TIP3    H138968   4.581   6.018   2.510 -0.9204 -1.0234 -1.3574
 5851TIP3    H238969   4.652   6.151   2.503 -2.0904 -0.3022  0.0054
 5852TIP3   OH238970   5.595   1.990   0.774 -0.4698 -0.6572 -0.3684
 5852TIP3    H138971   5.499   1.997   0.769 -0.5661 -1.3480  0.1998
 5852TIP3    H238972   5.625   2.078   0.795 -0.9694 -0.4029 -0.6992
 5853TIP3   OH238973   4.113   0.635  12.084  0.0676  0.3074 -0.2671
 5853TIP3    H138974   4.130   0.680  12.001 -0.4123  1.8679  0.4352
 5853TIP3    H238975   4.060   0.697  12.134 -0.1404 -0.8388  0.9832
 5854TIP3   OH238976   3.893   0.715   0.726  0.2099 -0.1964  0.2934
 5854TIP3    H138977   3.866   0.769   0.800 -0.1095 -0.0312  0.0591
 5854TIP3    H238978   3.816   0.661   0.706  0.6325 -0.9871  0.7424
 5855TIP3   OH238979   2.551   5.951  12.479  0.0255  0.1793  0.3089
 5855TIP3    H138980   2.498   5.872  12.469 -0.1280  0.5089 -2.0234
 5855TIP3    H238981   2.634   5.920  12.516 -0.5097 -0.8670  0.6509
 5856TIP3   OH238982   6.665   1.576   3.111 -0.0602  0.0603 -0.2013
 5856TIP3    H138983   6.689   1.514   3.042  2.8918  0.4427  0.3627
 5856TIP3    H238984   6.651   1.522   3.188 -1.3501 -0.1885 -0.5875
 5857TIP3   OH238985   4.567   5.766  13.105  0.1983  0.1016  0.5965
 5857TIP3    H138986   4.562   5.848  13.154  0.1873  0.4326  0.0493
 5857TIP3    H238987   4.518   5.783  13.025 -2.3529 -1.3474  1.7069
 5858TIP3   OH238988   3.911   1.809   6.679 -0.2904 -0.4924 -0.0770
 5858TIP3    H138989   3.864   1.787   6.760 -0.7330 -1.3744 -0.5537
 5858TIP3    H238990   3.990   1.756   6.682 -0.6152 -1.0133 -0.5099
 5859TIP3   OH238991   6.025   1.488   0.388  0.2932 -0.3657 -0.4238
 5859TIP3    H138992   6.107   1.447   0.414  1.0193  1.5747  0.4978
 5859TIP3    H238993   6.039   1.581   0.401 -2.1558  0.0085  0.0055
 5860TIP3   OH238994   6.271   5.754  12.314 -0.0988  0.2337  0.1070
 5860TIP3    H138995   6.309   5.759  12.227  1.7254 -0.7241  0.7977
 5860TIP3    H238996   6.340   5.786  12.372 -0.9138 -0.0969  1.2966
 5861TIP3   OH238997   4.496   3.877  13.406 -0.4442  0.2518 -0.1150
 5861TIP3    H138998   4.474   3.868  13.499 -0.7738  0.0401 -0.2120
 5861TIP3    H238999   4.550   3.801  13.386 -0.0478  0.4982 -0.0066
 5862TIP3   OH239000   2.336   0.583  14.434 -0.1807  0.2593 -0.1936
 5862TIP3    H139001   2.388   0.656  14.400  0.8153 -0.6634 -0.7057
 5862TIP3    H239002   2.355   0.583  14.528 -0.6561  1.0056 -0.0829
 5863TIP3   OH239003   1.572   0.093  16.393 -0.0498 -0.0041  0.1049
 5863TIP3    H139004   1.507   0.158  16.368 -0.6470 -0.8538 -0.6295
 5863TIP3    H239005   1.641   0.143  16.435  1.1623  1.6397 -3.4007
 5864TIP3   OH239006   3.996   1.067  16.775 -0.5467  0.0256  0.6023
 5864TIP3    H139007   4.015   1.080  16.868 -3.3372  1.4089  1.1037
 5864TIP3    H239008   4.032   1.144  16.732 -1.1267  0.4629  0.8856
 5865TIP3   OH239009   2.625   3.369   3.973  0.2622  0.1339  0.2796
 5865TIP3    H139010   2.600   3.393   4.062 -0.6329 -1.7783  0.5931
 5865TIP3    H239011   2.561   3.412   3.916  0.6557  1.1079  0.5462
 5866TIP3   OH239012   1.174   5.929  16.438 -0.4540  0.1611  0.4112
 5866TIP3    H139013   1.152   5.888  16.354 -1.6208  0.7189  0.4215
 5866TIP3    H239014   1.117   5.887  16.502 -0.5566  0.7090  0.6858
 5867TIP3   OH239015   3.781   1.305  11.330 -0.2196 -0.0683  0.4627
 5867TIP3    H139016   3.869   1.309  11.367  0.5629  1.4661 -1.3657
 5867TIP3    H239017   3.790   1.249  11.253 -1.0575 -0.6170  0.7522
 5868TIP3   OH239018   6.418   0.551  15.691 -0.1574  0.0841 -0.1922
 5868TIP3    H139019   6.324   0.539  15.693 -0.0875 -0.4499 -0.1507
 5868TIP3    H239020   6.454   0.465  15.671  0.3226  0.2795 -0.1969
 5869TIP3   OH239021   4.834   4.189  16.893  0.3248  0.3900  0.2021
 5869TIP3    H139022   4.847   4.113  16.949  1.0260 -0.1612 -0.6710
 5869TIP3    H239023   4.783   4.250  16.946 -0.7419 -0.9167  0.7326
 5870TIP3   OH239024   5.645   5.033  15.268 -0.2264  0.1155  0.3238
 5870TIP3    H139025   5.599   4.986  15.337 -1.9874 -1.1900 -1.6106
 5870TIP3    H239026   5.732   4.994  15.266  0.1583  0.7963  2.3377
 5871TIP3   OH239027   0.366   1.243  17.246 -0.4234 -0.2197  0.5316
 5871TIP3    H139028   0.335   1.321  17.201 -0.4268 -1.2788 -1.3648
 5871TIP3    H239029   0.292   1.217  17.302 -0.2803  1.3083  1.5116
 5872TIP3   OH239030   4.442   3.448   2.965 -0.3514 -0.3265 -0.0897
 5872TIP3    H139031   4.474   3.467   3.053 -1.7715 -0.4754  0.4814
 5872TIP3    H239032   4.392   3.367   2.974 -0.7635 -0.1855 -0.9659
 5873TIP3   OH239033   3.945   1.533   4.226  0.6030 -0.5871 -0.2542
 5873TIP3    H139034   3.869   1.569   4.270  0.1530 -1.5350 -0.2398
 5873TIP3    H239035   3.975   1.462   4.283  0.6051 -1.1783 -0.9689
 5874TIP3   OH239036   4.023   0.854   2.253 -0.2687  0.7550 -0.2506
 5874TIP3    H139037   3.952   0.802   2.290  0.5499 -2.2168 -2.4775
 5874TIP3    H239038   4.090   0.856   2.322 -2.1233  3.1990  1.6943
 5875TIP3   OH239039   6.562   2.556  12.816 -0.4957  0.4527  0.0145
 5875TIP3    H139040   6.471   2.531  12.800 -0.2027  0.1166 -1.2028
 5875TIP3    H239041   6.589   2.500  12.889 -1.7650  1.7900  1.6031
 5876TIP3   OH239042   3.699   4.622  11.667 -0.4251  0.4602 -0.1960
 5876TIP3    H139043   3.791   4.643  11.680 -0.1156  0.5420 -2.1020
 5876TIP3    H239044   3.675   4.670  11.587 -1.6434 -0.8372 -0.6621
 5877TIP3   OH239045   3.828   5.287  15.933  0.3320  0.3650 -0.5865
 5877TIP3    H139046   3.829   5.296  16.028 -0.1457 -0.6751 -0.4737
 5877TIP3    H239047   3.909   5.241  15.912 -0.3684 -0.9737 -0.4901
 5878TIP3   OH239048   1.263   1.417   4.702 -0.1441 -0.6035 -0.4690
 5878TIP3    H139049   1.303   1.349   4.758 -0.5795 -1.9586 -1.7354
 5878TIP3    H239050   1.322   1.492   4.710  2.5150 -2.3476 -1.9265
 5879TIP3   OH239051   4.934   1.853   3.918  0.1195 -0.1505 -0.4659
 5879TIP3    H139052   4.952   1.936   3.963 -1.7275  0.3033 -0.4990
 5879TIP3    H239053   4.876   1.805   3.978  2.7104 -2.3527  0.4858
 5880TIP3   OH239054   4.456   2.380  16.097 -0.1427  0.2941 -0.2071
 5880TIP3    H139055   4.478   2.471  16.078  1.3440 -0.3639 -1.8898
 5880TIP3    H239056   4.521   2.329  16.049  0.5935 -1.6635  2.6643
 5881TIP3   OH239057   1.874   4.035  14.330  0.1968  0.0479 -0.1250
 5881TIP3    H139058   1.961   4.013  14.364  0.7609  1.4418 -0.5810
 5881TIP3    H239059   1.886   4.120  14.288 -1.1344 -0.2596 -1.2117
 5882TIP3   OH239060   4.936   6.166   0.552  0.1580  0.0476 -0.2719
 5882TIP3    H139061   4.919   6.257   0.531  0.1198 -0.0165 -0.5238
 5882TIP3    H239062   4.943   6.164   0.647 -0.2150  0.2489 -0.2387
 5883TIP3   OH239063   5.320   2.886  15.622 -0.6011  0.1232  0.3581
 5883TIP3    H139064   5.284   2.949  15.684 -2.6974 -0.8397  0.1994
 5883TIP3    H239065   5.305   2.801  15.662 -2.4669 -0.5554 -1.6167
 5884TIP3   OH239066   2.386   6.625   3.381 -0.3879  0.0369 -0.3283
 5884TIP3    H139067   2.415   6.539   3.354  0.8438  0.3670 -0.1001
 5884TIP3    H239068   2.424   6.685   3.318 -0.8399  0.4636 -0.2060
 5885TIP3   OH239069   3.065   5.523  17.222  0.4182  0.0477 -0.0191
 5885TIP3    H139070   3.030   5.496  17.307 -0.9534 -0.5766 -0.7536
 5885TIP3    H239071   3.057   5.619  17.222  0.2306  0.0359  0.4650
 5886TIP3   OH239072   1.750   3.582   3.613  0.0906 -0.6578  0.8837
 5886TIP3    H139073   1.837   3.583   3.654 -0.3041 -1.8918  1.7945
 5886TIP3    H239074   1.768   3.574   3.519  0.9652 -1.3493  1.0956
 5887TIP3   OH239075   1.989   0.941  12.635  0.7284  0.3303 -0.0676
 5887TIP3    H139076   1.976   1.008  12.702 -1.5447 -1.5100  1.5151
 5887TIP3    H239077   2.078   0.955  12.603  0.8810  3.0666  1.2779
 5888TIP3   OH239078   6.141   3.355  16.465  0.0637  0.2053 -0.5708
 5888TIP3    H139079   6.106   3.441  16.440 -1.2235  0.0048  0.4839
 5888TIP3    H239080   6.224   3.349  16.417 -0.3228  1.5879 -1.4791
 5889TIP3   OH239081   5.293   6.052  15.600  0.6841 -0.0043 -0.0271
 5889TIP3    H139082   5.257   6.140  15.595  2.2202  0.6740  0.3803
 5889TIP3    H239083   5.221   5.995  15.571 -0.6612  1.2751  0.6731
 5890TIP3   OH239084   1.046   2.463  11.504  0.0796 -0.4480  0.1851
 5890TIP3    H139085   1.031   2.532  11.439 -0.2701 -1.0399 -0.3795
 5890TIP3    H239086   1.121   2.494  11.555 -0.3769  0.5680  0.2586
 5891TIP3   OH239087   2.028   1.434   0.092 -0.6043  0.0863 -0.3554
 5891TIP3    H139088   2.031   1.519   0.048 -0.2182  0.2609  0.0013
 5891TIP3    H239089   2.049   1.370   0.024 -1.8811  0.1808 -0.8677
 5892TIP3   OH239090   4.359   0.281   5.753  0.1567 -0.3476  0.2254
 5892TIP3    H139091   4.373   0.187   5.758  0.9186 -0.1939  1.1890
 5892TIP3    H239092   4.433   0.314   5.702  0.1801 -0.2021  0.3541
 5893TIP3   OH239093   6.466   1.771   4.376  0.0029 -0.1938  0.2350
 5893TIP3    H139094   6.487   1.721   4.455 -0.4510 -0.3321  0.2725
 5893TIP3    H239095   6.372   1.786   4.381 -0.1914 -0.9902 -0.7275
 5894TIP3   OH239096   5.877   5.328   5.369 -0.4532  0.1347  0.1693
 5894TIP3    H139097   5.880   5.308   5.463  0.4947  3.3452  0.9503
 5894TIP3    H239098   5.819   5.404   5.363  0.2269  0.5607 -1.7338
 5895TIP3   OH239099   1.908   6.047  13.778 -0.2164  0.0050 -0.0649
 5895TIP3    H139100   1.969   6.117  13.796  0.2338 -0.2966 -0.3831
 5895TIP3    H239101   1.846   6.084  13.714 -1.1598  0.7199  1.2254
 5896TIP3   OH239102   0.008   6.237   0.723  0.5153  0.1692  0.1068
 5896TIP3    H139103   0.010   6.142   0.733  3.5536  0.2670  1.4322
 5896TIP3    H239104  -0.083   6.261   0.745 -0.7323 -2.4698 -1.6573
 5897TIP3   OH239105   3.009   2.492  11.528  0.2682  0.0776  0.4170
 5897TIP3    H139106   2.940   2.558  11.532  0.1876  0.1059 -0.9792
 5897TIP3    H239107   3.084   2.538  11.491  0.6349 -0.2955  0.6796
 5898TIP3   OH239108   1.929   4.150   0.929  0.4610  0.2091 -0.4673
 5898TIP3    H139109   1.857   4.102   0.970  0.9707  2.1884  3.1026
 5898TIP3    H239110   2.005   4.132   0.984  0.7988  4.3733  0.7876
 5899TIP3   OH239111   4.688   1.133  11.177  0.1106 -0.6564 -0.3754
 5899TIP3    H139112   4.672   1.169  11.090 -2.5367  2.0024  1.0484
 5899TIP3    H239113   4.602   1.103  11.208  0.7367 -0.4505  1.7725
 5900TIP3   OH239114   3.014   1.258   0.172  0.1449 -0.1049 -0.1616
 5900TIP3    H139115   2.951   1.316   0.129 -0.3789 -0.9380 -0.5398
 5900TIP3    H239116   3.025   1.295   0.260 -2.5245 -1.0904  0.7082
 5901TIP3   OH239117   0.750   2.739  14.552 -0.5163  0.9144 -0.0945
 5901TIP3    H139118   0.800   2.711  14.629 -0.5034 -1.8904 -1.0430
 5901TIP3    H239119   0.671   2.779  14.589  0.1873  1.0356  1.3609
 5902TIP3   OH239120   1.919   1.562  13.587  0.2129 -0.0335 -0.2873
 5902TIP3    H139121   1.995   1.581  13.642  0.6142  1.1047 -1.1882
 5902TIP3    H239122   1.948   1.492  13.529 -0.3841 -1.6225  1.2418
 5903TIP3   OH239123   4.152   4.165   0.839 -0.1175 -0.7501 -0.0904
 5903TIP3    H139124   4.160   4.173   0.934 -0.7623 -2.4393  0.1439
 5903TIP3    H239125   4.171   4.252   0.805 -0.2180 -0.0423  1.6113
 5904TIP3   OH239126   0.481   1.164   2.133  0.0134  0.0171 -0.1667
 5904TIP3    H139127   0.423   1.230   2.094  1.3715  1.0698 -0.5024
 5904TIP3    H239128   0.475   1.179   2.227 -0.8702 -0.4299 -0.1450
 5905TIP3   OH239129   5.715   6.284   0.236  0.0323 -0.2010  0.0572
 5905TIP3    H139130   5.639   6.229   0.214  0.1523 -0.0226 -0.8225
 5905TIP3    H239131   5.771   6.280   0.159 -0.7075  2.4404 -0.7338
 5906TIP3   OH239132   5.306   1.106   1.711  0.7076 -0.5515  0.4873
 5906TIP3    H139133   5.349   1.093   1.795  1.3623  2.3476  0.7296
 5906TIP3    H239134   5.369   1.077   1.646  3.4729  3.7532  0.8211
 5907TIP3   OH239135   1.754   6.679   4.768 -0.1086 -0.1628  0.3227
 5907TIP3    H139136   1.718   6.730   4.696  0.2095  0.8702  0.8670
 5907TIP3    H239137   1.682   6.624   4.798 -0.7520  0.6641  0.3280
 5908TIP3   OH239138   5.464   5.954   1.308 -0.1701 -0.5085 -0.2342
 5908TIP3    H139139   5.421   5.870   1.291 -1.0762 -0.4161  1.3700
 5908TIP3    H239140   5.392   6.017   1.313  0.3825  0.1272 -0.1068
 5909TIP3   OH239141   2.506   4.286  11.427  0.2313 -0.2873  0.6432
 5909TIP3    H139142   2.479   4.242  11.346 -0.2557  0.9227  0.1284
 5909TIP3    H239143   2.590   4.326  11.405 -1.5037  3.0906 -0.4990
 5910TIP3   OH239144   3.583   6.222  14.279 -0.8300 -0.0217 -0.2024
 5910TIP3    H139145   3.534   6.152  14.236 -3.7670 -0.7749  3.7968
 5910TIP3    H239146   3.656   6.177  14.323 -0.8666 -0.0850 -0.2060
 5911TIP3   OH239147   5.096   1.637  14.711 -0.2264  0.7663  0.0593
 5911TIP3    H139148   5.019   1.683  14.745 -1.9133  1.2841 -3.8922
 5911TIP3    H239149   5.069   1.545  14.708 -0.8146  0.9471 -1.3206
 5912TIP3   OH239150   3.549   1.317  11.826 -0.7054 -0.2624  0.5228
 5912TIP3    H139151   3.552   1.257  11.751  0.6953  0.1379  0.2227
 5912TIP3    H239152   3.477   1.376  11.807 -0.6949 -0.4904 -0.2627
 5913TIP3   OH239153   3.535   6.090   4.178  0.4289 -0.3611  0.4687
 5913TIP3    H139154   3.495   6.076   4.093 -1.0588  1.2763  0.8250
 5913TIP3    H239155   3.545   6.003   4.216 -0.6923 -0.9647 -0.5915
 5914TIP3   OH239156   0.333   0.703  15.031 -0.3648  0.2786 -0.2186
 5914TIP3    H139157   0.333   0.618  14.987 -1.0114  0.0231  0.2577
 5914TIP3    H239158   0.423   0.735  15.021 -0.2990 -0.1184 -1.0408
 5915TIP3   OH239159   4.879   4.871  14.727  0.7060 -0.1400 -0.2614
 5915TIP3    H139160   4.820   4.892  14.654  0.4790  0.6819  0.1453
 5915TIP3    H239161   4.872   4.946  14.786 -0.0816 -1.3263  1.2286
 5916TIP3   OH239162   2.997   3.758  11.213 -0.0940 -0.3647 -0.0514
 5916TIP3    H139163   3.018   3.851  11.219 -1.1787 -0.0784 -0.4101
 5916TIP3    H239164   2.920   3.748  11.269 -0.4985 -0.8705 -0.6829
 5917TIP3   OH239165   3.896   5.065  12.342 -0.3767 -0.4962  0.0885
 5917TIP3    H139166   3.846   5.147  12.338  0.8107  0.2058 -1.2300
 5917TIP3    H239167   3.982   5.090  12.374  0.7046 -0.8148 -2.3906
 5918TIP3   OH239168   3.686   4.954   0.935 -0.1559  0.5559  0.0536
 5918TIP3    H139169   3.740   5.014   0.882 -1.3894 -0.5612 -2.6636
 5918TIP3    H239170   3.615   5.009   0.968  0.0482  1.0794 -0.3563
 5919TIP3   OH239171   3.631   0.486   3.265  0.0266  0.4033 -0.4407
 5919TIP3    H139172   3.652   0.549   3.333  0.4702  1.8414 -1.8492
 5919TIP3    H239173   3.535   0.479   3.267  0.0397  0.3469  0.3631
 5920TIP3   OH239174   0.490   2.578  14.292  0.0889  0.2979  0.0640
 5920TIP3    H139175   0.558   2.598  14.229 -0.3979 -0.1484 -0.6167
 5920TIP3    H239176   0.419   2.639  14.273 -0.4947 -0.5440 -0.5526
 5921TIP3   OH239177   3.595   4.541   6.045  0.7370 -0.2389  0.0045
 5921TIP3    H139178   3.516   4.497   6.076 -0.4361  1.1166 -0.9590
 5921TIP3    H239179   3.639   4.476   5.990 -0.8260 -0.3503 -1.1732
 5922TIP3   OH239180   4.278   5.256   2.097 -0.0039  0.4084  0.0405
 5922TIP3    H139181   4.194   5.219   2.070  1.3937 -1.0622 -2.6443
 5922TIP3    H239182   4.330   5.179   2.122  1.2221  1.0850 -0.3953
 5923TIP3   OH239183   6.395   6.544  12.525  0.5694 -0.3361  0.3542
 5923TIP3    H139184   6.312   6.499  12.537  0.7636 -0.5194  1.0289
 5923TIP3    H239185   6.400   6.559  12.431 -1.7421  2.5494  0.5523
 5924TIP3   OH239186   4.331   0.764  16.923 -0.1358 -0.1721  0.2989
 5924TIP3    H139187   4.333   0.673  16.953 -1.8199 -0.2391  0.3030
 5924TIP3    H239188   4.360   0.815  16.999 -0.0946 -0.6449  0.6031
 5925TIP3   OH239189   3.715   3.458  15.198  0.3483  0.2036 -0.5953
 5925TIP3    H139190   3.641   3.519  15.191  0.2820  0.1186 -0.6354
 5925TIP3    H239191   3.776   3.501  15.258  0.2866  0.2946 -0.5975
 5926TIP3   OH239192   3.493   0.989   2.744 -0.3255 -0.6360  0.2074
 5926TIP3    H139193   3.544   0.971   2.823  0.0255  0.9825  0.3873
 5926TIP3    H239194   3.418   0.930   2.750 -0.6509 -0.1138  2.1072
 5927TIP3   OH239195   4.872   4.375   4.249 -0.2771 -0.5378 -0.3935
 5927TIP3    H139196   4.946   4.365   4.308 -0.3139 -0.9710 -0.4195
 5927TIP3    H239197   4.902   4.439   4.184 -0.0777 -0.3980 -0.1635
 5928TIP3   OH239198   3.539   5.718  15.464  0.7995  0.0817 -0.2571
 5928TIP3    H139199   3.539   5.678  15.377  1.0164 -0.6723  0.0724
 5928TIP3    H239200   3.631   5.715  15.491  0.7372  0.3290 -0.0156
 5929TIP3   OH239201   6.628   4.329  13.123 -0.2401  0.3066  0.1865
 5929TIP3    H139202   6.653   4.297  13.037  0.6421  0.3174  0.4302
 5929TIP3    H239203   6.710   4.333  13.172 -0.6277  0.9858  0.8010
 5930TIP3   OH239204   2.058   2.376  11.768  0.2744 -0.5767  0.2316
 5930TIP3    H139205   1.990   2.371  11.700  0.6142 -0.1703 -0.1439
 5930TIP3    H239206   2.075   2.285  11.791 -0.1244 -0.7013  0.0521
 5931TIP3   OH239207   0.140   0.804   3.802 -0.5198 -0.3178  0.3765
 5931TIP3    H139208   0.140   0.745   3.727  1.3511 -2.1102  1.6677
 5931TIP3    H239209   0.192   0.759   3.869 -1.0147  1.7566  2.3177
 5932TIP3   OH239210   6.348   3.427   6.152 -0.3989  0.0197 -0.2686
 5932TIP3    H139211   6.288   3.394   6.218 -0.9282  1.1359 -0.1657
 5932TIP3    H239212   6.434   3.426   6.195 -0.6379  0.1197  0.2170
 5933TIP3   OH239213   5.294   0.672   5.904 -0.0311 -0.0583  0.4430
 5933TIP3    H139214   5.245   0.725   5.968  0.4409  3.0077 -1.5006
 5933TIP3    H239215   5.233   0.662   5.831  0.6036 -0.3977 -0.0477
 5934TIP3   OH239216   1.642   3.272  14.816 -0.0175 -0.1237 -0.4549
 5934TIP3    H139217   1.663   3.184  14.846  1.1346  0.0670 -0.6586
 5934TIP3    H239218   1.549   3.268  14.793 -0.0665 -1.1811 -0.1208
 5935TIP3   OH239219   4.622   1.847   4.887 -0.5714 -0.3902 -0.3491
 5935TIP3    H139220   4.603   1.795   4.965 -1.5959  0.8397  0.2579
 5935TIP3    H239221   4.626   1.937   4.919  1.8966 -0.0975 -1.2346
 5936TIP3   OH239222   6.625   3.124   2.504 -0.1602 -0.0872 -0.5333
 5936TIP3    H139223   6.539   3.167   2.507  0.8221  1.9266  2.2989
 5936TIP3    H239224   6.630   3.075   2.586  0.5294 -2.2201 -1.7598
 5937TIP3   OH239225   5.418   1.023  11.968  0.1416 -0.3719 -1.2739
 5937TIP3    H139226   5.379   1.101  11.929  1.5522  0.5871 -0.8763
 5937TIP3    H239227   5.494   1.005  11.913  0.0728 -1.2018 -1.1025
 5938TIP3   OH239228   2.180   4.131   1.063 -0.0054  0.2766  0.5161
 5938TIP3    H139229   2.156   4.119   1.155  0.7906  0.1067  0.7112
 5938TIP3    H239230   2.178   4.042   1.026  1.4612  0.0739  0.8400
 5939TIP3   OH239231   3.823   1.038   6.323 -0.0346  0.3644  0.4905
 5939TIP3    H139232   3.732   1.011   6.332 -0.0040  0.5389  1.4838
 5939TIP3    H239233   3.847   1.070   6.411  1.3113 -0.7087  0.5473
 5940TIP3   OH239234   1.987   5.409   2.488 -0.5122 -0.2599 -0.2176
 5940TIP3    H139235   1.903   5.366   2.504  0.1499 -1.3027  0.5161
 5940TIP3    H239236   1.967   5.503   2.498 -1.7806 -0.4147 -1.0135
 5941TIP3   OH239237   2.246   0.900   5.306  0.6987 -0.1694  0.2348
 5941TIP3    H139238   2.189   0.922   5.233  0.3400  0.5117  0.7109
 5941TIP3    H239239   2.190   0.852   5.368  1.0446 -0.9049 -0.0082
 5942TIP3   OH239240   0.469   1.385  14.704  0.1924 -0.0349  0.1096
 5942TIP3    H139241   0.554   1.403  14.744  0.4773 -1.1050  0.0250
 5942TIP3    H239242   0.467   1.438  14.624  0.4141  0.6457  0.5471
 5943TIP3   OH239243   0.672   6.077  16.459  0.3208  0.1734  0.3356
 5943TIP3    H139244   0.766   6.089  16.444  0.5175 -2.0302 -0.4918
 5943TIP3    H239245   0.631   6.153  16.418  1.5918 -0.1339 -1.6066
 5944TIP3   OH239246   5.165   4.494   1.642  0.3489  0.1185  0.4333
 5944TIP3    H139247   5.200   4.517   1.728  0.6789 -0.2697  0.4033
 5944TIP3    H239248   5.124   4.575   1.611 -0.6208 -0.0015  1.3611
 5945TIP3   OH239249   1.669   4.913  12.745 -0.5571  0.4126  0.3273
 5945TIP3    H139250   1.746   4.872  12.783  0.4849  1.8120 -0.1788
 5945TIP3    H239251   1.605   4.915  12.816 -0.2983 -1.1726  0.6253
 5946TIP3   OH239252   5.798   2.202   3.461 -0.4996  0.3664  0.3802
 5946TIP3    H139253   5.757   2.126   3.502  0.9594 -0.3265  0.6005
 5946TIP3    H239254   5.880   2.169   3.425  0.0348  1.7881  0.2268
 5947TIP3   OH239255   2.363   1.543  13.866 -0.1629  0.4057 -0.3754
 5947TIP3    H139256   2.394   1.469  13.918 -0.5718  0.3380 -0.2242
 5947TIP3    H239257   2.417   1.616  13.894 -1.3554  0.7180  1.2370
 5948TIP3   OH239258   0.652   6.045  12.225  0.8083  0.0773 -0.8052
 5948TIP3    H139259   0.616   6.025  12.312 -1.4468 -0.4776 -1.7866
 5948TIP3    H239260   0.626   5.971  12.171  0.6819  1.2075 -2.3448
 5949TIP3   OH239261   1.609   1.143  17.116  0.7867  0.0984 -0.4247
 5949TIP3    H139262   1.561   1.095  17.183 -0.1197  1.6726  0.1255
 5949TIP3    H239263   1.550   1.147  17.041  0.5594  0.8939 -0.2200
 5950TIP3   OH239264   6.178   3.862  15.105  0.1114 -0.8004  0.5410
 5950TIP3    H139265   6.134   3.780  15.084 -0.2963 -0.3083 -0.6100
 5950TIP3    H239266   6.271   3.843  15.097  0.1983 -1.8714  3.0578
 5951TIP3   OH239267   3.238   1.683  10.982  0.4372  0.0875  0.5355
 5951TIP3    H139268   3.226   1.591  11.005 -0.4801 -0.0557 -0.4581
 5951TIP3    H239269   3.156   1.708  10.938  1.6901  0.6174 -1.6300
 5952TIP3   OH239270   5.727   3.297   6.469 -0.3216  0.0292 -0.1294
 5952TIP3    H139271   5.665   3.230   6.442 -0.4225 -0.3155  0.9205
 5952TIP3    H239272   5.800   3.248   6.507  1.1382  0.3554 -2.3036
 5953TIP3   OH239273   4.082   0.369  11.681 -0.2464  0.6638 -0.2643
 5953TIP3    H139274   4.164   0.410  11.709  0.4821 -1.4671  0.9622
 5953TIP3    H239275   4.028   0.367  11.760 -0.9769  0.8846 -0.7487
 5954TIP3   OH239276   1.685   4.128   0.687  0.1339  0.4226 -0.2166
 5954TIP3    H139277   1.686   4.155   0.596 -1.7256  0.9504 -0.1381
 5954TIP3    H239278   1.693   4.210   0.737  0.5710  0.1955  0.0953
 5955TIP3   OH239279   4.889   5.944   1.393  0.2023 -0.1212  0.2252
 5955TIP3    H139280   4.958   5.902   1.444  1.0753 -0.5099 -1.2269
 5955TIP3    H239281   4.920   5.939   1.302 -1.5723  0.0273 -0.4145
 5956TIP3   OH239282   5.065   1.403   1.536  0.0678 -0.1154 -0.5119
 5956TIP3    H139283   5.104   1.400   1.448  0.0344 -3.4201 -0.5476
 5956TIP3    H239284   4.972   1.387   1.520 -0.5494  2.5033 -0.0174
 5957TIP3   OH239285   4.285   6.045   4.688  0.0388  0.5309 -0.0656
 5957TIP3    H139286   4.309   6.135   4.668  2.5846 -0.2474 -0.8698
 5957TIP3    H239287   4.268   6.045   4.782 -0.9330  2.0090 -0.2143
 5958TIP3   OH239288   4.837   0.169  16.508  0.4498  0.1683  0.3528
 5958TIP3    H139289   4.747   0.150  16.483  0.8787 -1.0907 -0.2998
 5958TIP3    H239290   4.870   0.226  16.439  0.1359  0.6919  0.6318
 5959TIP3   OH239291   3.636   0.841  11.759  0.1710 -0.2523  0.5835
 5959TIP3    H139292   3.555   0.891  11.767  0.6437  0.8408 -0.8467
 5959TIP3    H239293   3.610   0.762  11.712  0.0053  0.4025 -0.4790
 5960TIP3   OH239294   4.227   6.279   0.879  0.7500  0.4674 -0.2599
 5960TIP3    H139295   4.174   6.249   0.805  1.0355  4.3148 -2.2564
 5960TIP3    H239296   4.305   6.223   0.877 -0.2777 -1.0211 -1.3508
 5961TIP3   OH239297   4.271   6.670  11.679 -0.1856 -0.5221  0.2332
 5961TIP3    H139298   4.300   6.760  11.668  0.2050 -0.7751 -0.9727
 5961TIP3    H239299   4.346   6.625  11.719  0.7489 -0.9149 -1.8052
 5962TIP3   OH239300   6.241   2.975  16.125  0.4912 -0.0166  0.4911
 5962TIP3    H139301   6.202   2.889  16.112  0.1192  0.0550  1.0735
 5962TIP3    H239302   6.335   2.959  16.128  0.6419 -0.0339 -2.2161
 5963TIP3   OH239303   1.802   5.444  16.698  0.9203  0.1124  0.7928
 5963TIP3    H139304   1.755   5.417  16.777 -0.9455 -0.1969 -0.3778
 5963TIP3    H239305   1.841   5.528  16.722  0.4308  0.0076  2.0615
 5964TIP3   OH239306   6.393   3.683  16.106  0.0788 -0.2064 -0.2259
 5964TIP3    H139307   6.384   3.592  16.078 -1.1674 -0.1050 -0.2120
 5964TIP3    H239308   6.363   3.734  16.031 -1.1297  0.1209  0.4498
 5965TIP3   OH239309   4.980   0.046   6.414 -1.1797  0.0821 -0.0730
 5965TIP3    H139310   5.049  -0.020   6.406 -2.9476 -2.0946  1.7011
 5965TIP3    H239311   4.972   0.083   6.325  2.9070  1.2636 -0.1760
 5966TIP3   OH239312   1.255   4.477  11.800 -1.1925 -0.4452 -0.4060
 5966TIP3    H139313   1.181   4.525  11.763  0.2551  0.5385 -2.2027
 5966TIP3    H239314   1.292   4.429  11.727  0.4190 -0.2901  0.2640
 5967TIP3   OH239315   5.994   4.533   4.308  0.0958 -0.2322  0.1838
 5967TIP3    H139316   5.979   4.559   4.398 -1.1057  1.3479 -0.4344
 5967TIP3    H239317   6.086   4.555   4.292 -0.3700  2.0336  0.2649
 5968TIP3   OH239318   6.589   3.937   0.749 -0.2693 -0.7986 -0.8580
 5968TIP3    H139319   6.606   4.010   0.808  0.1562  0.7407 -2.7516
 5968TIP3    H239320   6.675   3.901   0.730 -0.3944 -1.2429 -0.5717
 5969TIP3   OH239321   0.890   6.320   5.448 -0.9797 -0.2634 -0.4733
 5969TIP3    H139322   0.882   6.370   5.367 -0.0965 -1.5375 -1.3992
 5969TIP3    H239323   0.974   6.274   5.439 -0.7341 -0.2255  1.2975
 5970TIP3   OH239324   4.837   3.986  13.582 -0.3953  0.2606  0.0606
 5970TIP3    H139325   4.869   3.900  13.553  2.3195  0.8836  0.9516
 5970TIP3    H239326   4.809   3.971  13.672 -1.3500  0.0261 -0.2610
 5971TIP3   OH239327   2.826   0.552  16.699  0.4814 -0.4666  0.1408
 5971TIP3    H139328   2.739   0.576  16.667  0.9175  2.0624  0.6014
 5971TIP3    H239329   2.887   0.596  16.639  1.3975 -0.7616  0.8312
 5972TIP3   OH239330   1.093   3.003   1.373  0.3961  0.3507  0.2140
 5972TIP3    H139331   1.009   2.964   1.400  0.5343  0.0319  0.1921
 5972TIP3    H239332   1.089   3.003   1.277  0.3007  0.6052  0.2173
 5973TIP3   OH239333   1.178   5.525  13.875  0.4343  0.8356 -0.4286
 5973TIP3    H139334   1.230   5.547  13.798  0.4013 -0.7223 -0.9289
 5973TIP3    H239335   1.242   5.487  13.936  0.0614 -0.2444 -0.6904
 5974TIP3   OH239336   3.815   0.213   0.283  0.1117  0.4610  0.2303
 5974TIP3    H139337   3.909   0.203   0.298 -0.0413  0.0939  0.9747
 5974TIP3    H239338   3.774   0.158   0.349 -0.6324  0.6190 -0.0908
 5975TIP3   OH239339   0.999   1.237  15.459  0.1420  0.4795 -0.2244
 5975TIP3    H139340   0.992   1.262  15.551  0.0371 -0.6250  0.0829
 5975TIP3    H239341   0.915   1.197  15.438  0.5311 -0.2336 -0.4841
 5976TIP3   OH239342   3.998   2.142   4.304 -0.1086 -0.4127  0.0034
 5976TIP3    H139343   4.058   2.071   4.328 -1.6513 -2.0604 -0.7564
 5976TIP3    H239344   3.928   2.137   4.369 -0.7785 -0.3252 -0.6972
 5977TIP3   OH239345   4.529   2.017  11.623 -0.2619 -0.0097  0.3947
 5977TIP3    H139346   4.604   1.982  11.573 -1.2142  0.5626 -1.5430
 5977TIP3    H239347   4.467   1.944  11.626 -1.0195  0.5467 -1.0383
 5978TIP3   OH239348   1.215   2.058  17.436 -0.2436  0.9249 -0.0308
 5978TIP3    H139349   1.270   1.993  17.391 -0.2825  0.9162 -0.0663
 5978TIP3    H239350   1.170   2.008  17.504 -0.1649  0.9429  0.0343
 5979TIP3   OH239351   1.906   4.549  15.038 -0.5711  0.2748  0.1049
 5979TIP3    H139352   1.813   4.560  15.059 -0.3607 -0.3287  1.4582
 5979TIP3    H239353   1.909   4.466  14.991 -0.5950 -0.3262  1.1222
 5980TIP3   OH239354   3.562   1.031  13.253 -0.0846 -0.3749 -0.6397
 5980TIP3    H139355   3.611   0.984  13.321 -1.9961  0.6978  1.6222
 5980TIP3    H239356   3.601   1.118  13.250 -1.6895  0.4920  1.1887
 5981TIP3   OH239357   2.358   2.160   2.461 -0.2232  0.0215 -0.4749
 5981TIP3    H139358   2.295   2.186   2.529  0.0927  0.3552 -0.3114
 5981TIP3    H239359   2.439   2.203   2.485 -0.3367  0.9106 -1.5757
 5982TIP3   OH239360   0.213   2.247  12.455  0.0036 -0.6579 -0.1197
 5982TIP3    H139361   0.180   2.222  12.368  1.5153  0.1766 -0.9766
 5982TIP3    H239362   0.149   2.310  12.487 -0.1362 -0.3286 -1.0019
 5983TIP3   OH239363   1.271   5.017   2.823  0.6426  0.2064 -0.0814
 5983TIP3    H139364   1.296   4.926   2.806 -0.3866 -0.6697  2.6146
 5983TIP3    H239365   1.177   5.020   2.802 -0.0555 -0.2522  2.5804
 5984TIP3   OH239366   4.599   2.762   0.754  0.6734  0.0709  0.2247
 5984TIP3    H139367   4.517   2.799   0.787  1.0303 -0.0582  1.2843
 5984TIP3    H239368   4.657   2.837   0.745  0.7944  0.0144  0.5429
 5985TIP3   OH239369   3.433   1.021  12.357 -0.0501  0.8445 -0.5616
 5985TIP3    H139370   3.484   1.047  12.280  0.9220  1.8576  0.3830
 5985TIP3    H239371   3.432   1.099  12.413  0.6357 -0.3011  1.1623
 5986TIP3   OH239372   6.691   1.289   2.036  1.1619 -0.2765 -0.4867
 5986TIP3    H139373   6.615   1.306   2.091 -1.3589  0.1006 -3.7933
 5986TIP3    H239374   6.750   1.363   2.053  0.6510 -0.3041  1.7583
 5987TIP3   OH239375   3.669   1.309  12.273 -0.1429 -0.1105 -0.1992
 5987TIP3    H139376   3.644   1.264  12.354 -3.6166  0.5107 -0.7822
 5987TIP3    H239377   3.608   1.276  12.208  1.7265  0.3845 -2.3319
 5988TIP3   OH239378   0.295   0.180  13.313  0.3185  0.8456  0.4217
 5988TIP3    H139379   0.255   0.093  13.301  1.6621  0.2924 -0.2363
 5988TIP3    H239380   0.316   0.183  13.406  1.6925 -0.2186  0.1846
 5989TIP3   OH239381   3.559   2.143  11.718  0.4253 -0.3395 -0.5255
 5989TIP3    H139382   3.524   2.182  11.638  0.1338  0.6368  0.0655
 5989TIP3    H239383   3.642   2.188  11.733 -0.0745  0.3378  0.3480
 5990TIP3   OH239384   0.034   5.489   1.169  0.3609 -0.4867 -0.2071
 5990TIP3    H139385   0.081   5.463   1.248 -0.0908  0.5345  0.4210
 5990TIP3    H239386   0.101   5.526   1.112  0.3288  1.2653  0.8138
 5991TIP3   OH239387   5.229   5.355   2.841  0.4394 -0.5156 -0.2860
 5991TIP3    H139388   5.160   5.291   2.825 -0.5894  0.3670  0.4764
 5991TIP3    H239389   5.309   5.303   2.849 -0.3762 -1.7108  0.3142
 5992TIP3   OH239390   3.342   5.542  16.289  0.0592 -0.4411  0.2191
 5992TIP3    H139391   3.360   5.541  16.383  0.8254 -1.9659  0.0827
 5992TIP3    H239392   3.410   5.599  16.252 -0.5193  0.5350  0.6097
 5993TIP3   OH239393   0.576   4.948   6.190 -0.4156 -0.0921 -0.2056
 5993TIP3    H139394   0.487   4.926   6.217 -0.3611 -1.7114 -1.2046
 5993TIP3    H239395   0.632   4.909   6.258 -0.4400  0.0023 -0.1319
 5994TIP3   OH239396   6.079   6.387  16.261 -0.2445 -0.3004 -0.1586
 5994TIP3    H139397   6.011   6.367  16.197 -0.0083  1.0997 -0.8812
 5994TIP3    H239398   6.147   6.321  16.246 -0.6093 -0.5478 -0.7245
 5995TIP3   OH239399   1.703   1.884  15.109 -0.1558  0.0228  0.1807
 5995TIP3    H139400   1.737   1.846  15.028  0.0242  0.1964  0.1743
 5995TIP3    H239401   1.627   1.935  15.082 -1.0915 -1.2299  0.3254
 5996TIP3   OH239402   2.671   5.530  16.301  0.2237 -0.2220  1.0111
 5996TIP3    H139403   2.717   5.514  16.219  0.4076  1.7442  0.6795
 5996TIP3    H239404   2.693   5.455  16.357 -0.5041 -1.9900 -0.9527
 5997TIP3   OH239405   1.477   1.264  16.042 -0.3302  0.2083 -0.0354
 5997TIP3    H139406   1.512   1.342  15.999  0.0633 -0.0500 -0.1883
 5997TIP3    H239407   1.404   1.296  16.095 -0.4425  0.6154 -0.4326
 5998TIP3   OH239408   6.509   6.401   0.703  0.3765  0.1463 -0.8389
 5998TIP3    H139409   6.474   6.423   0.790  0.6047 -2.3835 -0.0182
 5998TIP3    H239410   6.458   6.456   0.643 -2.0567 -0.2917  0.6356
 5999TIP3   OH239411   0.605   4.479   5.800  0.7139 -0.7467 -0.1146
 5999TIP3    H139412   0.601   4.534   5.879 -2.5486 -1.7092  0.5539
 5999TIP3    H239413   0.672   4.413   5.821  1.3511  0.1993  0.9904
 6000TIP3   OH239414   4.665   2.211   3.045 -0.2372  0.1879  0.1274
 6000TIP3    H139415   4.681   2.139   3.106  0.4526  2.7379  3.2656
 6000TIP3    H239416   4.752   2.242   3.021 -0.5293  0.1305 -1.0628
 6001TIP3   OH239417   5.624   2.143   1.079 -0.2769  0.2160  0.2132
 6001TIP3    H139418   5.606   2.168   1.170 -2.2911  1.6856 -0.5110
 6001TIP3    H239419   5.692   2.204   1.051 -0.4879  0.5412  0.3976
 6002TIP3   OH239420   1.874   6.065   4.293 -0.2390 -0.4155 -0.4299
 6002TIP3    H139421   1.819   6.137   4.261 -0.1207 -1.2637 -2.6917
 6002TIP3    H239422   1.961   6.104   4.302 -0.2922 -0.1359 -1.0989
 6003TIP3   OH239423   3.915   6.635  16.244 -0.2223  0.2505 -0.7419
 6003TIP3    H139424   3.935   6.728  16.231 -1.4849  1.0299  2.2142
 6003TIP3    H239425   3.820   6.632  16.257 -0.2777 -1.5620 -1.1823
 6004TIP3   OH239426   0.955   3.232   4.386 -0.2600  0.3087  0.0794
 6004TIP3    H139427   0.863   3.244   4.408 -0.0656  2.5275 -0.1420
 6004TIP3    H239428   0.967   3.281   4.305  0.7221 -1.5344 -0.9744
 6005TIP3   OH239429   5.801   2.702   2.257 -0.1599  0.8468  0.0913
 6005TIP3    H139430   5.734   2.714   2.324 -1.1409  1.1432 -0.9022
 6005TIP3    H239431   5.792   2.779   2.200 -0.9787 -0.5170 -1.7275
 6006TIP3   OH239432   3.910   2.091   0.754 -0.0563 -0.3155  0.2392
 6006TIP3    H139433   3.985   2.110   0.810  1.0166  1.4639 -1.6337
 6006TIP3    H239434   3.867   2.176   0.741  0.1787 -0.4740 -2.1343
 6007TIP3   OH239435   5.980   6.362   0.510  0.6967  0.2234 -0.0849
 6007TIP3    H139436   5.910   6.298   0.495 -0.2935  1.4653 -1.0603
 6007TIP3    H239437   6.060   6.317   0.486  0.2327 -1.1961  0.9036
 6008TIP3   OH239438   3.393   0.243   2.942  0.3699 -0.3441  0.0113
 6008TIP3    H139439   3.418   0.161   2.985  0.0767 -1.0476 -1.1185
 6008TIP3    H239440   3.299   0.251   2.960  0.4046 -0.2345  0.1470
 6009TIP3   OH239441   0.518   1.861  14.863 -0.3204 -0.4861 -0.4347
 6009TIP3    H139442   0.429   1.897  14.864  0.2055  0.8404  0.0625
 6009TIP3    H239443   0.574   1.934  14.837  0.6577 -1.2432 -0.5105
 6010TIP3   OH239444   2.715   1.853  16.057  0.5287  0.2986 -0.0787
 6010TIP3    H139445   2.642   1.914  16.047  0.8356  0.4443 -1.8262
 6010TIP3    H239446   2.725   1.842  16.151 -0.1680  2.1916  0.2576
 6011TIP3   OH239447   4.789   1.226   1.193  0.3240  0.3341 -0.3106
 6011TIP3    H139448   4.847   1.242   1.119  1.6172  0.9722  0.8033
 6011TIP3    H239449   4.821   1.145   1.233 -0.3587 -0.0039 -0.4356
 6012TIP3   OH239450   5.389   3.645  13.017  0.0152 -0.3042  0.2965
 6012TIP3    H139451   5.471   3.694  13.002 -1.9804  2.6976 -1.9980
 6012TIP3    H239452   5.356   3.679  13.100  0.2484 -0.2202  0.3554
 6013TIP3   OH239453   5.320   3.297  10.859  0.0867 -0.3906  0.1656
 6013TIP3    H139454   5.232   3.312  10.893 -0.0635 -1.9928  0.5529
 6013TIP3    H239455   5.305   3.254  10.775  0.4958  1.4400 -0.9028
 6014TIP3   OH239456   4.114   2.156  13.137 -0.2909  0.2389 -0.1419
 6014TIP3    H139457   4.120   2.161  13.041 -0.0331  3.7881 -0.0819
 6014TIP3    H239458   4.199   2.188  13.167 -0.4380 -0.6620  1.3097
 6015TIP3   OH239459   5.453   0.667  12.514  0.3330  0.5270 -0.5097
 6015TIP3    H139460   5.409   0.676  12.430 -1.1612  1.2222  0.3142
 6015TIP3    H239461   5.538   0.627  12.492  0.8111  2.4733 -2.5488
 6016TIP3   OH239462   6.158   2.818  14.760  0.6944 -0.0659 -0.3786
 6016TIP3    H139463   6.201   2.862  14.833 -0.7904  0.8537 -0.0110
 6016TIP3    H239464   6.191   2.864  14.682  2.2455 -1.0225 -0.3207
 6017TIP3   OH239465   6.329   1.265   6.091  0.5014  0.0701  0.9012
 6017TIP3    H139466   6.337   1.333   6.157 -0.7889 -0.4066  1.5865
 6017TIP3    H239467   6.284   1.193   6.135  0.0909 -0.4723 -0.3360
 6018TIP3   OH239468   6.360   6.517   6.051  0.2417 -0.0302  0.1140
 6018TIP3    H139469   6.290   6.480   6.104  0.1449  1.4056  1.0349
 6018TIP3    H239470   6.420   6.444   6.036 -0.6846 -0.9126  0.5857
 6019TIP3   OH239471   4.074   1.395  11.958 -0.4265  0.4335  0.0005
 6019TIP3    H139472   4.010   1.456  11.921  0.1368  1.1855  0.2236
 6019TIP3    H239473   4.121   1.360  11.882 -0.7675  0.2625 -0.1322
 6020TIP3   OH239474   5.800   4.609  14.209 -0.1770  0.2306 -0.1822
 6020TIP3    H139475   5.869   4.649  14.157 -0.1516  0.5873  0.1209
 6020TIP3    H239476   5.722   4.616  14.154 -0.1290  0.5124 -0.2175
 6021TIP3   OH239477   2.534   1.058  13.280  0.5612 -0.1763  0.5602
 6021TIP3    H139478   2.561   1.150  13.272 -0.8563  0.1949 -0.3679
 6021TIP3    H239479   2.476   1.056  13.356  1.3251 -0.5173  1.1552
 6022TIP3   OH239480   6.549   0.699   5.070  0.2209 -0.7475 -0.3364
 6022TIP3    H139481   6.531   0.788   5.039 -0.6920 -1.3854 -1.7788
 6022TIP3    H239482   6.484   0.684   5.139  1.6912  0.3809  1.3660
 6023TIP3   OH239483   2.827   5.464  15.689 -0.5425 -0.0020 -0.0382
 6023TIP3    H139484   2.906   5.492  15.735 -0.4757 -0.8867  0.4049
 6023TIP3    H239485   2.794   5.390  15.740 -1.9600  0.6831  0.0929
 6024TIP3   OH239486   2.881   4.819   3.690 -0.0049  0.1740 -0.7912
 6024TIP3    H139487   2.793   4.789   3.669 -0.4817  1.6102 -0.9133
 6024TIP3    H239488   2.908   4.872   3.615  0.1773  1.3717  0.1028
 6025TIP3   OH239489   6.391   2.274   1.919 -0.5072  0.3709 -0.2569
 6025TIP3    H139490   6.390   2.242   2.009 -0.4366 -2.2009 -1.0899
 6025TIP3    H239491   6.476   2.317   1.909  0.1069 -0.6208  0.5091
 6026TIP3   OH239492   2.514   2.254  13.317 -0.1846 -0.0646  0.8122
 6026TIP3    H139493   2.482   2.186  13.259 -1.4842  0.9916  0.2344
 6026TIP3    H239494   2.576   2.210  13.374  0.9804 -1.1925 -1.2191
 6027TIP3   OH239495   1.085   3.171  13.889 -0.5992 -0.3110  0.6257
 6027TIP3    H139496   1.102   3.077  13.884 -0.5551 -0.2662 -0.1478
 6027TIP3    H239497   1.040   3.183  13.973  1.1662 -0.7500  1.6896
 6028TIP3   OH239498   1.190   3.840   4.017 -0.1211  0.3994 -0.2860
 6028TIP3    H139499   1.227   3.821   3.931 -3.3080  0.6518 -1.8874
 6028TIP3    H239500   1.234   3.921   4.044  1.6865 -0.2369 -1.1655
 6029TIP3   OH239501   3.297   0.885  12.595 -0.3047 -0.1376  0.1828
 6029TIP3    H139502   3.216   0.896  12.545 -0.1365 -2.8927 -0.8395
 6029TIP3    H239503   3.366   0.880  12.529  0.4361  0.0688  0.9275
 6030TIP3   OH239504   4.625   4.863  17.253 -0.2912  0.1587 -0.3250
 6030TIP3    H139505   4.697   4.863  17.190  0.1603 -0.0175  0.1881
 6030TIP3    H239506   4.634   4.947  17.299 -1.2807  0.7976 -1.2270
 6031TIP3   OH239507   2.798   0.644   2.916  0.1915 -0.7479 -0.4969
 6031TIP3    H139508   2.828   0.646   2.825 -1.0131  1.1197 -0.9120
 6031TIP3    H239509   2.740   0.569   2.920 -1.2339  0.2124 -1.8367
 6032TIP3   OH239510   6.570   0.990  11.741 -0.3561  0.1886  0.1494
 6032TIP3    H139511   6.606   0.968  11.827  0.2322  1.5465  0.2798
 6032TIP3    H239512   6.513   0.917  11.719  1.0857 -1.1708  0.7570
 6033TIP3   OH239513   4.668   6.336   6.349 -0.6305  0.3407  0.2831
 6033TIP3    H139514   4.719   6.330   6.430 -0.5357  1.7973  0.3510
 6033TIP3    H239515   4.618   6.417   6.358  0.8246  1.5854 -1.8965
 6034TIP3   OH239516   3.931   3.357   4.531 -0.5847  0.4209  0.0042
 6034TIP3    H139517   4.016   3.348   4.574 -0.0949  0.0136 -1.0180
 6034TIP3    H239518   3.875   3.294   4.576 -0.1418  0.1587  0.1969
 6035TIP3   OH239519   0.323   3.986  15.006 -1.0850 -0.1658 -0.1371
 6035TIP3    H139520   0.301   4.051  14.940 -0.0848  3.5869  2.8798
 6035TIP3    H239521   0.243   3.975  15.057 -0.4514  1.0719  1.1610
 6036TIP3   OH239522   2.302   3.251  13.299 -0.2910 -0.2636 -0.0994
 6036TIP3    H139523   2.262   3.164  13.298 -0.7825 -0.1536  2.6723
 6036TIP3    H239524   2.231   3.311  13.278 -0.2561 -0.4368 -0.7180
 6037TIP3   OH239525   3.191   2.655  10.854 -0.2548 -0.7098 -0.2780
 6037TIP3    H139526   3.271   2.676  10.902 -0.4931  0.2756 -0.2930
 6037TIP3    H239527   3.198   2.561  10.835  0.4998 -0.8106  0.4481
 6038TIP3   OH239528   2.886   4.500   1.778 -0.0848  0.2433 -0.2243
 6038TIP3    H139529   2.800   4.473   1.808 -0.2937 -1.2727 -1.9977
 6038TIP3    H239530   2.929   4.537   1.855 -1.3372 -1.4462  1.3492
 6039TIP3   OH239531   1.752   1.784  15.774 -0.1709 -0.2395  0.0812
 6039TIP3    H139532   1.738   1.740  15.857  0.2221  0.6868  0.6645
 6039TIP3    H239533   1.719   1.873  15.788  1.4902  0.4614 -0.1456
 6040TIP3   OH239534   6.117   0.141  15.811 -0.2298 -0.2121 -0.1388
 6040TIP3    H139535   6.159   0.101  15.887 -1.7675 -0.0736  0.8471
 6040TIP3    H239536   6.085   0.226  15.843 -0.6362 -0.0139 -1.0198
 6041TIP3   OH239537   4.957   5.286   2.992  0.2495 -0.1524 -0.0987
 6041TIP3    H139538   4.945   5.229   2.916 -0.0453  0.6467 -0.6507
 6041TIP3    H239539   4.905   5.243   3.061  1.1230 -1.2885 -0.1063
 6042TIP3   OH239540   6.368   3.518  16.916 -0.0145 -0.1313 -0.0112
 6042TIP3    H139541   6.283   3.540  16.878  0.3269  0.1377 -0.6348
 6042TIP3    H239542   6.430   3.535  16.845  0.4912 -0.9657  0.2242
 6043TIP3   OH239543   1.533   5.277  17.369 -0.2402 -0.2865 -0.3112
 6043TIP3    H139544   1.512   5.202  17.425  1.5798 -1.8760 -1.6493
 6043TIP3    H239545   1.591   5.331  17.422 -0.7496 -0.3136  0.2970
 6044TIP3   OH239546   4.122   6.035   4.219 -0.1027 -0.1304  0.3545
 6044TIP3    H139547   4.182   6.001   4.286 -0.0136  0.7141  0.7203
 6044TIP3    H239548   4.036   6.032   4.261  0.0641  1.1852  0.8423
 6045TIP3   OH239549   1.163   0.323   1.088  0.3270  0.3421 -0.4814
 6045TIP3    H139550   1.084   0.326   1.034  0.0992 -2.1428 -0.3863
 6045TIP3    H239551   1.155   0.399   1.146 -0.6079  1.6996 -2.2670
 6046TIP3   OH239552   2.728   3.745  10.957 -0.0259  0.2895  0.2418
 6046TIP3    H139553   2.663   3.816  10.959  0.8770  1.1600 -0.2424
 6046TIP3    H239554   2.810   3.789  10.933  0.3420 -1.0918 -1.1901
 6047TIP3   OH239555   6.535   1.925  13.358 -0.0941 -0.0091 -0.0370
 6047TIP3    H139556   6.555   1.876  13.438 -1.5897  0.9500  0.9647
 6047TIP3    H239557   6.479   1.866  13.308 -1.0101  0.2471  0.6704
 6048TIP3   OH239558   4.051   4.093  12.010 -0.6828  0.3966  0.3279
 6048TIP3    H139559   4.117   4.033  11.974 -3.3897 -1.2412 -2.3964
 6048TIP3    H239560   4.009   4.043  12.080 -0.6940  0.4264  0.3426
 6049TIP3   OH239561   0.402   3.328   1.026 -0.1632  0.3164 -0.4592
 6049TIP3    H139562   0.384   3.360   1.114  1.3823  1.4124 -0.5097
 6049TIP3    H239563   0.446   3.244   1.039 -0.7783  0.0232 -0.2282
 6050TIP3   OH239564   2.763   4.477   5.664  0.3894 -0.4732 -0.2101
 6050TIP3    H139565   2.690   4.416   5.676  0.6880 -0.6716  0.6895
 6050TIP3    H239566   2.838   4.420   5.644  0.7328 -0.4505  0.9188
 6051TIP3   OH239567   5.537   0.098   5.016  0.1833 -0.0569 -0.0807
 6051TIP3    H139568   5.459   0.090   4.961 -0.6320  0.9906  0.8941
 6051TIP3    H239569   5.592   0.161   4.970 -0.5379  0.8897  0.3263
 6052TIP3   OH239570   3.235   3.515  12.073 -0.3351 -0.3436 -0.5377
 6052TIP3    H139571   3.141   3.494  12.077 -0.0019 -2.2200 -1.3219
 6052TIP3    H239572   3.260   3.495  11.983  0.6420  1.1392 -0.6350
 6053TIP3   OH239573   6.151   3.628   4.074 -0.4401  0.4169  0.5108
 6053TIP3    H139574   6.237   3.594   4.050 -0.5337 -0.2330  1.0724
 6053TIP3    H239575   6.093   3.601   4.003 -0.2842  0.4227  0.3807
 6054TIP3   OH239576   4.918   2.321  16.147  0.4186 -0.3662 -0.4209
 6054TIP3    H139577   4.915   2.308  16.242 -0.9534 -0.3873 -0.4484
 6054TIP3    H239578   4.977   2.396  16.136  0.8199 -0.5430  0.4272
 6055TIP3   OH239579   4.338   1.586  12.516 -0.1832 -0.6213 -0.0083
 6055TIP3    H139580   4.287   1.666  12.504  1.0440  0.4541  1.6400
 6055TIP3    H239581   4.272   1.517  12.521 -1.2056 -0.0445 -3.1444
 6056TIP3   OH239582   5.132   6.750  13.166  0.2916  0.2980  0.1634
 6056TIP3    H139583   5.065   6.702  13.118 -1.8801  3.1020  0.1035
 6056TIP3    H239584   5.199   6.685  13.186 -2.1912 -2.5887 -0.2115
 6057TIP3   OH239585   0.202   3.289   5.571 -0.2466 -0.0365 -0.4614
 6057TIP3    H139586   0.262   3.253   5.636 -0.4036  0.3152 -0.1197
 6057TIP3    H239587   0.257   3.309   5.495  0.6234  2.9435  0.8273
 6058TIP3   OH239588   2.124   5.282  17.325 -0.1491  0.6200  0.2979
 6058TIP3    H139589   2.167   5.359  17.286 -0.0430  0.5919  0.3576
 6058TIP3    H239590   2.196   5.231  17.362 -0.0953 -0.0840 -0.7260
 6059TIP3   OH239591   6.070   2.949  11.314 -0.0346  0.7249 -0.1147
 6059TIP3    H139592   6.048   2.890  11.386 -2.6472 -0.3770 -1.6422
 6059TIP3    H239593   6.067   3.037  11.352  0.2480  0.0891  1.4332
 6060TIP3   OH239594   2.997   2.698  14.833  0.8408 -0.0926 -0.2888
 6060TIP3    H139595   3.021   2.730  14.745 -1.7034  0.0477 -1.0137
 6060TIP3    H239596   2.999   2.603  14.825  0.6826 -0.0804 -0.4941
 6061TIP3   OH239597   2.473   3.025  11.783 -0.2760 -0.7444 -0.1392
 6061TIP3    H139598   2.536   2.971  11.734  2.2906  1.0844  0.9465
 6061TIP3    H239599   2.425   3.073  11.716  0.8527 -0.7469 -0.9754
 6062TIP3   OH239600   1.118   0.202  16.497  0.7046 -0.4943  0.0755
 6062TIP3    H139601   1.063   0.208  16.419  0.5358 -1.3382  0.1153
 6062TIP3    H239602   1.079   0.264  16.559  1.9652  1.6100 -1.1350
 6063TIP3   OH239603   1.902   1.615  16.646  0.5156  0.2398 -0.5376
 6063TIP3    H139604   1.819   1.575  16.621  1.8666 -3.1410 -0.2005
 6063TIP3    H239605   1.932   1.661  16.567 -1.4429  1.2618 -0.7424
 6064TIP3   OH239606   1.602   2.807   3.736 -0.1605  0.2343 -0.0439
 6064TIP3    H139607   1.599   2.851   3.821  1.1342  0.5237 -0.1304
 6064TIP3    H239608   1.689   2.828   3.702  0.6303 -2.5993  0.0299
 6065TIP3   OH239609   2.375   3.503  15.396  0.1938  0.1351 -0.7431
 6065TIP3    H139610   2.332   3.431  15.442 -1.4421  0.5827 -1.4921
 6065TIP3    H239611   2.337   3.582  15.435 -0.3015  0.5325 -1.9803
 6066TIP3   OH239612   0.686   3.298   4.402 -0.2215  0.4721  0.2815
 6066TIP3    H139613   0.654   3.269   4.487  0.3105  1.5040  0.8546
 6066TIP3    H239614   0.618   3.356   4.369  1.2811  3.4165  1.9154
 6067TIP3   OH239615   0.920   0.176   0.972  0.0116 -0.1347  0.3357
 6067TIP3    H139616   0.894   0.234   1.044 -0.0513  1.4349 -0.8919
 6067TIP3    H239617   0.837   0.144   0.936 -0.0609  0.8106 -0.3740
 6068TIP3   OH239618   0.920   6.408  11.196 -0.1424 -0.2784 -0.8431
 6068TIP3    H139619   0.864   6.475  11.157  0.0696  0.9206  0.8306
 6068TIP3    H239620   1.008   6.447  11.195 -0.0438 -0.4598  0.2994
 6069TIP3   OH239621   6.434   3.145   3.066 -0.3077  0.0038 -0.4061
 6069TIP3    H139622   6.530   3.152   3.060 -0.1288 -0.3343  1.3469
 6069TIP3    H239623   6.403   3.161   2.978  1.4228 -0.7095 -1.1962
 6070TIP3   OH239624   1.860   1.361   3.333 -0.5221  0.2571 -0.7524
 6070TIP3    H139625   1.802   1.436   3.325 -1.6036 -0.6402 -1.7719
 6070TIP3    H239626   1.868   1.328   3.243  1.4633  0.2559 -0.6190
 6071TIP3   OH239627   5.191   3.052  13.150 -0.6954  0.4019  0.3615
 6071TIP3    H139628   5.104   3.073  13.183 -1.1254 -0.6110 -0.0736
 6071TIP3    H239629   5.175   3.014  13.063  0.0882 -0.7785  0.7113
 6072TIP3   OH239630   5.978   4.830   5.893 -0.4797  1.1113 -0.1157
 6072TIP3    H139631   5.967   4.761   5.826  1.3288  0.0037  0.6469
 6072TIP3    H239632   5.903   4.887   5.881 -2.4146 -1.3206 -0.4170
 6073TIP3   OH239633   2.146   5.782   2.230 -0.1741  0.6366  0.1603
 6073TIP3    H139634   2.158   5.788   2.325  0.2244  1.4363  0.0709
 6073TIP3    H239635   2.157   5.872   2.200 -3.4086  1.0007 -0.2886
 6074TIP3   OH239636   6.463   0.109   5.125  0.5666  0.2639 -0.0739
 6074TIP3    H139637   6.507   0.153   5.198  1.0118 -0.7403  0.2855
 6074TIP3    H239638   6.446   0.179   5.062 -0.9790  1.3796  1.5060
 6075TIP3   OH239639   0.085   4.817  12.105 -0.0672  0.1163 -0.0635
 6075TIP3    H139640   0.087   4.722  12.095  0.2363  0.1147 -0.0007
 6075TIP3    H239641   0.174   4.840  12.133 -0.3111  0.3460  0.5462
 6076TIP3   OH239642   4.076   5.577  12.808 -0.8473  0.2759 -0.4568
 6076TIP3    H139643   4.077   5.670  12.834 -1.3602  0.0895  0.2652
 6076TIP3    H239644   4.063   5.579  12.713  0.1522  0.9651 -0.5906
 6077TIP3   OH239645   6.331   6.500  13.208 -0.1020  0.2724  0.2264
 6077TIP3    H139646   6.248   6.470  13.246  0.1810  0.0855  0.7027
 6077TIP3    H239647   6.368   6.559  13.274  0.0998  0.4290 -0.0261
 6078TIP3   OH239648   3.246   2.527   2.549  0.0242 -0.4048  0.1706
 6078TIP3    H139649   3.213   2.611   2.519  0.1098 -0.0153  1.1260
 6078TIP3    H239650   3.206   2.514   2.635 -1.4939 -2.2529 -0.7467
 6079TIP3   OH239651   1.609   6.002  12.287 -0.1764  0.3622  0.1847
 6079TIP3    H139652   1.583   5.909  12.284 -1.9962  0.8301 -2.6647
 6079TIP3    H239653   1.530   6.047  12.315  0.1144  1.1841 -0.2910
 6080TIP3   OH239654   4.357   3.989   6.385  0.2217  0.7470 -0.1742
 6080TIP3    H139655   4.405   4.018   6.307 -0.9691  0.0019 -1.2353
 6080TIP3    H239656   4.278   4.042   6.385  0.6606  1.4440  1.1381
 6081TIP3   OH239657   3.450   0.872   5.608 -0.0137 -0.2453  0.7727
 6081TIP3    H139658   3.471   0.805   5.543  2.7171  0.0933  1.2149
 6081TIP3    H239659   3.524   0.871   5.669 -2.8796 -1.3100  4.6432
 6082TIP3   OH239660   2.608   0.191  15.738  0.5294  0.1267  1.1217
 6082TIP3    H139661   2.693   0.227  15.716  0.5330 -0.5206 -0.0167
 6082TIP3    H239662   2.622   0.143  15.820  1.7120 -1.4644  0.0440
 6083TIP3   OH239663   6.345   5.303   1.848 -0.6766 -0.1573  0.2469
 6083TIP3    H139664   6.320   5.293   1.757  1.4643  0.7715 -0.5124
 6083TIP3    H239665   6.367   5.214   1.877 -0.3486 -0.3227 -0.4825
 6084TIP3   OH239666   5.710   6.056  11.473  0.5726 -0.1183  0.2841
 6084TIP3    H139667   5.795   6.090  11.445  0.8693 -1.6785 -0.8887
 6084TIP3    H239668   5.725   5.962  11.483 -1.3697 -0.7165 -1.5667
 6085TIP3   OH239669   5.046   6.454  15.819 -0.1153  0.6793  0.2148
 6085TIP3    H139670   5.121   6.511  15.833  0.0280  0.3171  0.9669
 6085TIP3    H239671   4.971   6.514  15.810  0.2942  1.0538 -0.8715
 6086TIP3   OH239672   1.738   3.574  12.735 -0.5497 -1.3944  0.5402
 6086TIP3    H139673   1.785   3.645  12.692 -2.5705  0.2659  0.9079
 6086TIP3    H239674   1.678   3.541  12.669  1.2752 -3.8106 -0.0756
 6087TIP3   OH239675   0.472   5.248   0.396 -0.4536 -0.5465 -0.0364
 6087TIP3    H139676   0.453   5.161   0.434 -0.4191 -0.7754 -0.5360
 6087TIP3    H239677   0.546   5.233   0.338 -0.7669 -0.2869 -0.5111
 6088TIP3   OH239678   3.561   3.274  15.935 -0.2920  0.0945  0.3725
 6088TIP3    H139679   3.627   3.261  15.867  1.9205  0.0129  2.3884
 6088TIP3    H239680   3.514   3.353  15.908  1.7111  1.1055 -0.3937
 6089TIP3   OH239681   0.469   0.802   3.010  0.2958  0.5230 -0.1136
 6089TIP3    H139682   0.513   0.742   3.072  1.5211  0.8617 -0.6229
 6089TIP3    H239683   0.385   0.822   3.052 -0.3310 -1.8315 -0.0910
 6090TIP3   OH239684   6.633   2.158   6.305  0.1310 -0.5393  0.2627
 6090TIP3    H139685   6.670   2.243   6.281 -0.4357 -0.7370 -1.4351
 6090TIP3    H239686   6.591   2.173   6.390 -0.5513  1.0705 -0.3282
 6091TIP3   OH239687   4.594   6.374  17.264  0.5394 -0.5896 -0.5231
 6091TIP3    H139688   4.522   6.349  17.206 -0.2258 -1.4890  0.7703
 6091TIP3    H239689   4.550   6.403  17.345  1.5974  0.0176 -0.1551
 6092TIP3   OH239690   6.332   0.545   0.363 -0.0402 -0.0999 -0.2029
 6092TIP3    H139691   6.368   0.560   0.451 -2.5216  0.1650  0.8573
 6092TIP3    H239692   6.402   0.502   0.315  1.1169 -1.0245  2.1722
 6093TIP3   OH239693   2.569   1.045  12.041  0.2845  0.0617 -0.1348
 6093TIP3    H139694   2.540   1.064  11.952  1.0200 -0.7606 -0.5650
 6093TIP3    H239695   2.527   0.961  12.062 -0.3411  0.5268  0.5125
 6094TIP3   OH239696   4.335   1.357  13.139  0.0750  0.5964 -0.0163
 6094TIP3    H139697   4.404   1.330  13.078  0.0099 -0.7693  0.4932
 6094TIP3    H239698   4.356   1.313  13.221  0.3650  2.6861  1.1120
 6095TIP3   OH239699   3.565   3.519   5.836 -0.5748  0.2118 -0.2937
 6095TIP3    H139700   3.659   3.502   5.848 -0.6817  0.8567  2.0762
 6095TIP3    H239701   3.539   3.463   5.763  1.1619 -1.8329  0.5373
 6096TIP3   OH239702   2.642   5.117  15.068 -0.4177  0.0928 -0.1671
 6096TIP3    H139703   2.724   5.118  15.118 -0.3608 -0.9133 -0.2148
 6096TIP3    H239704   2.622   5.209  15.053  0.4913  0.3650  0.2012
 6097TIP3   OH239705   5.829   2.742   4.890 -0.2911  0.0751 -0.2890
 6097TIP3    H139706   5.823   2.758   4.795 -1.8916  0.6301 -0.1215
 6097TIP3    H239707   5.769   2.806   4.929  1.0258  0.4791  1.1931
 6098TIP3   OH239708   0.166   4.988  14.437  0.0631  0.3959  0.2084
 6098TIP3    H139709   0.082   5.033  14.430 -0.4959 -0.5184  0.7405
 6098TIP3    H239710   0.208   5.027  14.513  0.5562  1.5140 -0.6093
 6099TIP3   OH239711   1.286   3.840  11.659 -0.4314  0.2592 -0.3713
 6099TIP3    H139712   1.249   3.761  11.699 -1.6065  1.3444  0.7508
 6099TIP3    H239713   1.377   3.816  11.641 -0.8975 -1.5200 -0.5478
 6100TIP3   OH239714   0.694   2.945   1.018  0.0593  0.0568 -0.2266
 6100TIP3    H139715   0.742   2.941   1.101  0.7328 -0.9454 -0.6450
 6100TIP3    H239716   0.752   2.902   0.955 -0.6849  0.3075 -1.1000
 6101TIP3   OH239717   6.072   5.188  14.751  0.1553  0.1298  0.1665
 6101TIP3    H139718   6.088   5.258  14.814  0.1622  1.0756 -0.8568
 6101TIP3    H239719   6.144   5.127  14.764 -0.1610 -0.0070  1.4713
 6102TIP3   OH239720   1.789   1.940  12.491 -0.4899  0.2244 -0.0746
 6102TIP3    H139721   1.778   2.035  12.481 -0.6758  0.0881 -1.3588
 6102TIP3    H239722   1.699   1.906  12.493 -0.4418  0.1444  1.2893
 6103TIP3   OH239723   4.269   3.044  12.145  0.0466 -0.3884  0.3114
 6103TIP3    H139724   4.243   2.981  12.213  1.6992  1.3448  2.6857
 6103TIP3    H239725   4.343   3.002  12.102  0.0426 -0.8085  0.6938
 6104TIP3   OH239726   2.011   1.079  14.205  0.0666  0.6377  0.4846
 6104TIP3    H139727   2.013   1.027  14.124 -0.0125  0.5351  0.5481
 6104TIP3    H239728   2.092   1.053  14.251  0.2107  0.8434  0.3479
 6105TIP3   OH239729   4.467   0.051   4.237  0.0090  0.1094  0.0667
 6105TIP3    H139730   4.428   0.136   4.222 -0.1210 -0.0791 -0.7418
 6105TIP3    H239731   4.512   0.030   4.155  2.7308  0.7786  1.2566
 6106TIP3   OH239732   0.467   5.862  16.306 -0.1160 -0.3460 -0.2080
 6106TIP3    H139733   0.376   5.832  16.315  0.5163 -2.0628  0.8729
 6106TIP3    H239734   0.459   5.957  16.298 -2.0225 -0.4705 -0.4324
 6107TIP3   OH239735   6.700   3.273  17.388 -0.2322 -0.0606 -0.3443
 6107TIP3    H139736   6.783   3.316  17.365  0.3866 -1.2043 -0.3500
 6107TIP3    H239737   6.714   3.181  17.363 -1.1341 -0.4610  0.5871
 6108TIP3   OH239738   2.100   4.301  11.877  0.5802 -0.0056  0.2810
 6108TIP3    H139739   2.121   4.243  11.951  0.5225 -1.4563 -0.7966
 6108TIP3    H239740   2.162   4.373  11.885 -0.3315  0.6252  2.5296
 6109TIP3   OH239741   5.523   3.195  11.570  0.1615 -0.0812  0.2835
 6109TIP3    H139742   5.578   3.206  11.492 -0.2281 -1.6120 -0.2532
 6109TIP3    H239743   5.542   3.106  11.600 -1.2530 -0.2817  0.6766
 6110TIP3   OH239744   3.996   0.367  16.733 -0.0470  0.4443  0.8769
 6110TIP3    H139745   3.920   0.426  16.736  0.7439  1.4660  1.2366
 6110TIP3    H239746   3.999   0.336  16.643 -0.1026  1.4716  0.5114
 6111TIP3   OH239747   6.286   0.066  15.111 -0.4399 -0.5030  0.2612
 6111TIP3    H139748   6.299   0.106  15.026 -0.5859 -1.3575 -0.1721
 6111TIP3    H239749   6.191   0.051  15.116 -0.9235  2.3504  1.8752
 6112TIP3   OH239750   5.116   3.537  13.297 -0.3652 -0.1640  0.4040
 6112TIP3    H139751   5.184   3.581  13.247 -0.6878  0.4908  0.5390
 6112TIP3    H239752   5.164   3.475  13.352  0.2994  1.5086  1.7909
 6113TIP3   OH239753   4.870   5.556  12.959  0.3499 -0.8323  0.0275
 6113TIP3    H139754   4.862   5.582  13.050  0.5630  0.6389 -0.3453
 6113TIP3    H239755   4.947   5.500  12.956  1.5747  0.7718  0.4397
 6114TIP3   OH239756   2.871   4.635  14.084 -0.7924 -0.7477 -0.0361
 6114TIP3    H139757   2.832   4.569  14.026 -2.6717  1.3310 -1.3004
 6114TIP3    H239758   2.810   4.640  14.158 -0.7820 -0.2871 -0.0578
 6115TIP3   OH239759   5.555   2.067  13.617 -0.6174  0.3973 -0.4991
 6115TIP3    H139760   5.603   1.997  13.662 -2.2966 -0.4212  0.1027
 6115TIP3    H239761   5.564   2.047  13.524  0.3652  0.3834 -0.4084
 6116TIP3   OH239762   1.167   1.067   2.116 -0.2344 -0.1789  0.1417
 6116TIP3    H139763   1.131   1.007   2.181  0.2659  1.0527  1.6238
 6116TIP3    H239764   1.090   1.106   2.074 -0.6742  0.8601  1.8025
 6117TIP3   OH239765   2.509   6.263  11.649 -0.3204  0.3625  0.4772
 6117TIP3    H139766   2.449   6.330  11.616 -0.2256  0.5234  0.6299
 6117TIP3    H239767   2.471   6.180  11.620 -0.1659  0.5073 -0.1540
 6118TIP3   OH239768   2.014   6.440  14.362  0.6117  0.3036  0.1154
 6118TIP3    H139769   1.954   6.471  14.293 -0.6811  0.6820  1.3697
 6118TIP3    H239770   1.991   6.348  14.374  2.2839 -0.3685 -1.3798
 6119TIP3   OH239771   3.715   3.499  11.411 -0.3753 -1.0182  0.4107
 6119TIP3    H139772   3.790   3.498  11.471 -0.5793 -2.1744  0.6609
 6119TIP3    H239773   3.679   3.587  11.420  1.9599  0.1923 -1.0049
 6120TIP3   OH239774   0.661   2.927   1.819 -0.1596 -0.3128  1.0009
 6120TIP3    H139775   0.721   2.974   1.876 -0.1981  0.1820  0.6377
 6120TIP3    H239776   0.660   2.838   1.854  1.6159 -0.6164  0.3856
 6121TIP3   OH239777   0.560   2.917  14.339  0.0973 -0.5155  0.7400
 6121TIP3    H139778   0.592   2.872  14.261 -1.0632 -0.0463 -0.0480
 6121TIP3    H239779   0.611   2.880  14.411  1.3800 -0.7723 -0.2640
 6122TIP3   OH239780   1.480   0.752  11.703 -0.2598  0.4541  0.5409
 6122TIP3    H139781   1.555   0.811  11.692  1.7764 -2.1563 -0.6051
 6122TIP3    H239782   1.456   0.727  11.614 -1.3490 -0.1827  0.9925
 6123TIP3   OH239783   5.008   0.973   3.204  0.5289 -0.0488 -0.2157
 6123TIP3    H139784   4.977   1.029   3.134  0.3365  0.4390  0.2486
 6123TIP3    H239785   4.964   1.006   3.283  0.4725 -0.8008  0.0823
 6124TIP3   OH239786   5.545   5.610   1.976  0.2775 -0.4108  0.5285
 6124TIP3    H139787   5.610   5.634   1.911  0.5339 -2.6311 -0.1146
 6124TIP3    H239788   5.585   5.632   2.060  1.7133 -1.3508  0.1278
 6125TIP3   OH239789   1.056   5.151  12.174 -0.5570  0.5993  0.4770
 6125TIP3    H139790   0.983   5.091  12.159  0.5909 -0.4914 -1.0314
 6125TIP3    H239791   1.067   5.197  12.091  1.4223 -0.3718  0.1324
 6126TIP3   OH239792   0.165   2.138  16.174 -0.1064 -0.4188 -0.7730
 6126TIP3    H139793   0.258   2.125  16.191 -0.2183 -0.7674 -0.4041
 6126TIP3    H239794   0.121   2.094  16.247 -0.5569 -0.1557 -0.8789
 6127TIP3   OH239795   2.358   3.482  10.867 -0.5549 -0.2688 -0.2223
 6127TIP3    H139796   2.310   3.499  10.786  0.0884 -2.0621 -1.0203
 6127TIP3    H239797   2.294   3.437  10.923  0.0927 -2.5356 -1.2347
 6128TIP3   OH239798   2.119   3.870   4.071  0.1231 -0.3264  0.5096
 6128TIP3    H139799   2.127   3.949   4.018  1.2003 -0.3545  0.6005
 6128TIP3    H239800   2.106   3.799   4.007 -1.8210  0.0159  0.4775
 6129TIP3   OH239801   0.349   2.528  16.161 -0.4660 -0.2849 -0.0999
 6129TIP3    H139802   0.265   2.490  16.133 -0.9244  1.1753 -0.7900
 6129TIP3    H239803   0.414   2.484  16.106 -1.1982  1.3793 -2.4573
 6130TIP3   OH239804   4.135   0.985   0.224  0.1700  0.4245 -0.0573
 6130TIP3    H139805   4.045   0.960   0.201  1.0238 -1.5759 -1.5144
 6130TIP3    H239806   4.158   0.927   0.297  0.9874 -0.6741 -1.1502
 6131TIP3   OH239807   0.135   2.370  15.058 -0.1495 -0.5552  0.4574
 6131TIP3    H139808   0.106   2.331  14.975 -0.6498  0.1126  0.3100
 6131TIP3    H239809   0.196   2.439  15.032 -0.0932 -0.5267  0.6652
 6132TIP3   OH239810   6.697   0.101  13.106 -0.2009  0.2783 -0.1050
 6132TIP3    H139811   6.791   0.091  13.089 -0.2320  1.3829 -1.0101
 6132TIP3    H239812   6.657   0.027  13.060  0.1815  0.0565 -0.0872
 6133TIP3   OH239813   4.181   1.592  15.053 -0.3144  0.1532 -0.2850
 6133TIP3    H139814   4.178   1.633  15.140 -4.0280  0.3066 -0.3463
 6133TIP3    H239815   4.166   1.499  15.069  1.4400 -0.2259 -0.6483
 6134TIP3   OH239816   6.202   0.578   4.902 -0.4614 -0.0288 -0.2350
 6134TIP3    H139817   6.193   0.541   4.989 -0.2306 -1.1669 -0.6736
 6134TIP3    H239818   6.187   0.672   4.913 -0.9137 -0.2322  0.9357
 6135TIP3   OH239819   5.649   6.291  12.062 -0.1354 -0.2945 -0.1012
 6135TIP3    H139820   5.606   6.291  11.976  0.0267  1.3540 -0.2214
 6135TIP3    H239821   5.742   6.297  12.042 -0.1377  0.9013  0.1704
 6136TIP3   OH239822   1.398   3.345  16.169 -1.1597  0.2487 -0.3400
 6136TIP3    H139823   1.373   3.344  16.261 -0.5537 -0.5462 -0.1728
 6136TIP3    H239824   1.442   3.429  16.157 -1.0199  0.2461  0.1556
 6137TIP3   OH239825   6.163   6.444   0.794 -0.5171 -0.3779 -0.3881
 6137TIP3    H139826   6.103   6.372   0.808 -1.1240  0.1220 -0.3790
 6137TIP3    H239827   6.217   6.417   0.720  0.0164 -1.3165  0.3285
 6138TIP3   OH239828   0.881   3.542   5.011 -0.2771 -0.0128 -0.2146
 6138TIP3    H139829   0.976   3.529   5.007 -0.2126  0.5666 -0.6873
 6138TIP3    H239830   0.849   3.466   5.059  0.6818  1.0676  2.2886
 6139TIP3   OH239831   4.806   5.707  12.741 -0.6175  0.1323 -0.1893
 6139TIP3    H139832   4.858   5.786  12.751 -2.0845  1.1082  0.0351
 6139TIP3    H239833   4.844   5.645  12.804  1.1011  0.3305 -0.9915
 6140TIP3   OH239834   4.629   1.741  14.586 -0.4026  0.7257 -0.1664
 6140TIP3    H139835   4.666   1.680  14.522 -0.0773  1.4185 -0.6507
 6140TIP3    H239836   4.651   1.828  14.552 -0.2417  1.1040  0.8859
 6141TIP3   OH239837   5.813   0.890   4.744  0.1731 -0.0377  0.0436
 6141TIP3    H139838   5.841   0.975   4.710  0.4820 -0.5516 -1.0329
 6141TIP3    H239839   5.890   0.858   4.791  0.2921 -0.0150 -0.1316
 6142TIP3   OH239840   3.502   3.697  16.681  0.0156  0.1886 -0.4172
 6142TIP3    H139841   3.549   3.693  16.598 -0.4879  0.1311 -0.7043
 6142TIP3    H239842   3.502   3.790  16.704 -0.2294  0.2638 -0.7081
 6143TIP3   OH239843   6.397   6.157  14.345  0.3304 -0.1484  0.1500
 6143TIP3    H139844   6.363   6.246  14.334  4.1819  1.4757 -0.2814
 6143TIP3    H239845   6.392   6.140  14.439 -1.0626  0.2194  0.1538
 6144TIP3   OH239846   5.902   3.772  17.253  0.0350 -0.1785 -0.1211
 6144TIP3    H139847   5.825   3.732  17.213 -0.4329 -0.7140  1.2302
 6144TIP3    H239848   5.968   3.771  17.184  0.1560 -3.6004 -0.1555
 6145TIP3   OH239849   3.557   1.537   4.031 -0.2549 -0.0702  0.3788
 6145TIP3    H139850   3.477   1.545   3.979 -0.4266  0.8164  0.7560
 6145TIP3    H239851   3.525   1.526   4.121  0.0184  1.6630  0.7274
 6146TIP3   OH239852   2.052   3.214  14.955 -0.2030 -0.3280  0.5991
 6146TIP3    H139853   2.029   3.288  15.011 -0.4276 -0.0748  0.1796
 6146TIP3    H239854   1.972   3.161  14.950 -0.1580 -0.3959  0.5926
 6147TIP3   OH239855   0.277   4.803  15.543  0.1228  0.1447 -0.3288
 6147TIP3    H139856   0.194   4.810  15.591  0.4006 -0.7719  0.3121
 6147TIP3    H239857   0.252   4.771  15.457 -0.2512  0.5296 -0.3716
 6148TIP3   OH239858   6.679   3.286  13.939  0.3704  0.2610  0.5681
 6148TIP3    H139859   6.670   3.380  13.920  0.2115  0.1684  0.1653
 6148TIP3    H239860   6.602   3.265  13.993 -0.0022  0.2074  0.0285
 6149TIP3   OH239861   5.541   6.747   2.370  0.5572  0.7099 -0.1412
 6149TIP3    H139862   5.473   6.715   2.310  0.7883 -0.3158  0.1378
 6149TIP3    H239863   5.520   6.708   2.454 -0.0718  2.5657  0.6158
 6150TIP3   OH239864   0.104   0.069   3.570 -0.6752  0.2352  0.6487
 6150TIP3    H139865   0.199   0.066   3.579 -0.4272  1.8530 -0.8288
 6150TIP3    H239866   0.088   0.063   3.476 -1.9894  0.6266  0.8180
 6151TIP3   OH239867   3.384   5.544  13.093  0.6526 -0.1843  0.0909
 6151TIP3    H139868   3.473   5.572  13.073  0.2229  0.8618 -0.4562
 6151TIP3    H239869   3.362   5.592  13.173  0.6715 -0.6551  0.3812
 6152TIP3   OH239870   4.660   6.374   5.142  0.3094 -0.4780  0.3061
 6152TIP3    H139871   4.641   6.412   5.057 -1.3596  0.9976  1.2649
 6152TIP3    H239872   4.709   6.442   5.189  2.1690 -1.6800  0.2141
 6153TIP3   OH239873   4.517   3.614   2.510 -0.1014  0.4800  0.1377
 6153TIP3    H139874   4.536   3.590   2.601  0.2031 -1.7169 -0.4603
 6153TIP3    H239875   4.424   3.635   2.511 -0.1941  0.0932  0.8772
 6154TIP3   OH239876   1.123   3.867   1.957  0.0630  0.2539 -0.2388
 6154TIP3    H139877   1.040   3.882   2.004  0.0614  0.4160 -0.2932
 6154TIP3    H239878   1.190   3.902   2.015  0.1327 -0.2254 -0.0198
 6155TIP3   OH239879   5.438   5.608  17.092 -0.3162  0.1885  0.2289
 6155TIP3    H139880   5.529   5.633  17.103 -0.1512 -0.6229  0.8272
 6155TIP3    H239881   5.391   5.653  17.162 -0.5634  1.4764 -0.7350
 6156TIP3   OH239882   2.485   1.214  12.558 -0.6707 -0.3107 -0.3022
 6156TIP3    H139883   2.445   1.134  12.523 -1.7850 -0.5273  1.3499
 6156TIP3    H239884   2.426   1.241  12.629  0.4890  1.1408  0.1564
 6157TIP3   OH239885   0.005   2.879   5.142 -0.1711 -0.3084 -1.0873
 6157TIP3    H139886   0.097   2.856   5.159 -0.7189 -2.4434 -0.7167
 6157TIP3    H239887   0.010   2.946   5.073  1.7063  0.9644  0.1840
 6158TIP3   OH239888   4.195   4.805   0.745  0.0391 -0.8099  0.1501
 6158TIP3    H139889   4.240   4.777   0.825 -1.2829  0.3433  1.3393
 6158TIP3    H239890   4.104   4.814   0.771 -0.4837 -0.7336 -1.6004
 6159TIP3   OH239891   1.907   5.925  15.126  0.3532  0.3703  0.0748
 6159TIP3    H139892   1.827   5.936  15.178  0.1881 -0.6063  0.0496
 6159TIP3    H239893   1.876   5.895  15.041  0.6962  0.9468 -0.2585
 6160TIP3   OH239894   2.334   6.653   4.045 -0.4179  0.7672  0.0912
 6160TIP3    H139895   2.373   6.594   3.980 -1.8822  1.0081 -1.0495
 6160TIP3    H239896   2.390   6.730   4.044  1.5747 -0.5443  1.6531
 6161TIP3   OH239897   6.676   3.259  11.938 -0.9279 -0.3571 -0.4800
 6161TIP3    H139898   6.670   3.347  11.973  0.8311  0.0017 -0.9547
 6161TIP3    H239899   6.730   3.268  11.859  0.9177 -2.0742  0.4787
 6162TIP3   OH239900   0.505   2.301  17.239 -0.4041 -0.7297  0.5161
 6162TIP3    H139901   0.441   2.262  17.299 -1.5415 -1.8437 -1.3276
 6162TIP3    H239902   0.477   2.393  17.231  0.5698 -0.1719  2.6446
 6163TIP3   OH239903   2.526   5.295   4.161 -0.2124 -1.0260 -0.1087
 6163TIP3    H139904   2.440   5.321   4.127 -0.7621 -3.6315 -0.8980
 6163TIP3    H239905   2.555   5.371   4.211 -0.6812  2.0032 -3.9243
 6164TIP3   OH239906   0.400   3.778  17.321  0.6390  0.3962  0.4279
 6164TIP3    H139907   0.408   3.786  17.226  0.2125 -1.1026  0.2394
 6164TIP3    H239908   0.305   3.775  17.336  0.6127  2.6739  1.1381
 6165TIP3   OH239909   1.468   3.646  15.095 -0.3240  0.1680 -0.8785
 6165TIP3    H139910   1.488   3.727  15.141  0.1518  0.3577 -1.4156
 6165TIP3    H239911   1.553   3.609  15.072 -0.5511  0.2620 -1.9263
 6166TIP3   OH239912   1.105   0.694  14.988 -0.6786 -0.1531 -0.2740
 6166TIP3    H139913   1.120   0.621  15.047  1.3164 -0.1990 -0.7572
 6166TIP3    H239914   1.120   0.659  14.900 -0.9517  0.5420 -0.6155
 6167TIP3   OH239915   3.709   0.917   3.612  0.2627  0.3039  0.2939
 6167TIP3    H139916   3.778   0.969   3.572 -0.3486 -0.0526 -1.2904
 6167TIP3    H239917   3.641   0.980   3.634  1.4115  0.8074  2.7670
 6168TIP3   OH239918   2.171   3.417  11.145  0.0530 -0.0827  0.1635
 6168TIP3    H139919   2.241   3.386  11.202  2.0041  2.2889 -0.7735
 6168TIP3    H239920   2.147   3.340  11.093  3.3877 -0.6252 -0.8341
 6169TIP3   OH239921   1.928   5.979   1.147 -0.1038  0.0416 -0.8432
 6169TIP3    H139922   1.852   5.953   1.096 -1.0674  0.9973  0.0640
 6169TIP3    H239923   1.894   5.995   1.235  1.6423 -2.4414  0.4009
 6170TIP3   OH239924   1.140   1.259   6.161 -0.3909  0.3833 -0.3542
 6170TIP3    H139925   1.172   1.222   6.079 -0.0611  1.1014 -0.5573
 6170TIP3    H239926   1.152   1.353   6.151 -1.6732  0.6008 -0.0493
 6171TIP3   OH239927   2.917   0.564  13.627  0.0295 -0.0483  0.1899
 6171TIP3    H139928   2.997   0.576  13.576 -0.0622 -0.7081 -0.1296
 6171TIP3    H239929   2.946   0.525  13.709 -0.0551 -1.3626 -0.3763
 6172TIP3   OH239930   1.168   4.194   5.876 -0.4927 -0.0728 -0.3631
 6172TIP3    H139931   1.238   4.128   5.883  0.2095  0.7024  0.1383
 6172TIP3    H239932   1.088   4.146   5.900  0.0957 -0.5905  0.6575
 6173TIP3   OH239933   5.077   6.152  14.709  0.4701  0.1013 -0.2322
 6173TIP3    H139934   5.170   6.151  14.729  0.0656  1.9774  2.1857
 6173TIP3    H239935   5.060   6.240  14.676 -0.5216 -0.0658 -0.2214
 6174TIP3   OH239936   1.473   4.561  15.403 -0.6858 -0.0710  0.7847
 6174TIP3    H139937   1.411   4.491  15.385 -2.2522  1.0827  1.4863
 6174TIP3    H239938   1.420   4.632  15.439  1.0772  0.8919  1.6135
 6175TIP3   OH239939   6.123   5.846   4.525  0.1337  0.0455 -0.4097
 6175TIP3    H139940   6.207   5.857   4.479  0.3889 -0.8875 -0.1878
 6175TIP3    H239941   6.062   5.821   4.456  0.2126 -0.0511 -0.4444
 6176TIP3   OH239942   1.442   1.311   0.468  0.1930 -0.0521 -0.6373
 6176TIP3    H139943   1.408   1.276   0.551  1.0113 -0.7496 -0.5821
 6176TIP3    H239944   1.416   1.246   0.403  1.2665 -0.5252 -0.6150
 6177TIP3   OH239945   4.949   3.046   3.969  0.2192 -0.5177  0.0109
 6177TIP3    H139946   4.978   2.984   4.036 -0.9658 -1.6301 -0.4616
 6177TIP3    H239947   4.885   3.101   4.014  1.8642  0.9541  0.6506
 6178TIP3   OH239948   5.636   0.673  17.079 -0.5045  0.6142 -0.4559
 6178TIP3    H139949   5.595   0.668  16.992  1.9121  1.0269 -1.7018
 6178TIP3    H239950   5.563   0.666  17.140 -2.1372 -1.6732 -2.4561
 6179TIP3   OH239951   3.744   0.897   1.668 -0.0540 -0.5461 -0.1335
 6179TIP3    H139952   3.770   0.943   1.588 -1.3224  1.0017  0.2880
 6179TIP3    H239953   3.772   0.806   1.654 -0.2873 -0.3302 -2.3455
 6180TIP3   OH239954   2.494   1.862   6.233  0.1774  0.4081 -0.4149
 6180TIP3    H139955   2.403   1.837   6.251  0.5994 -2.1804 -1.4201
 6180TIP3    H239956   2.524   1.798   6.168  2.9419  0.7103  0.4447
 6181TIP3   OH239957   4.931   2.893  14.777 -0.4829  0.2193 -0.0374
 6181TIP3    H139958   4.873   2.902  14.853 -0.8805 -0.4363 -0.2641
 6181TIP3    H239959   5.005   2.950  14.798  0.3482 -1.4009  1.7499
 6182TIP3   OH239960   5.307   5.912  17.434  0.3014  0.1971  0.4191
 6182TIP3    H139961   5.229   5.938  17.386  0.4572 -0.2577 -0.0867
 6182TIP3    H239962   5.315   5.818  17.418 -0.8219 -0.4363  3.0196
 6183TIP3   OH239963   3.101   1.189   2.474 -0.4108  0.3837 -0.1322
 6183TIP3    H139964   3.099   1.156   2.563  0.1627 -1.2372 -0.6868
 6183TIP3    H239965   3.182   1.240   2.469 -1.3182  1.9904  0.7382
 6184TIP3   OH239966   4.679   3.790   2.366  0.0673  0.1605  0.1120
 6184TIP3    H139967   4.616   3.861   2.368 -0.6322 -0.4345 -0.3488
 6184TIP3    H239968   4.630   3.712   2.392  1.1559  0.0539  2.0577
 6185TIP3   OH239969   6.723   5.874  15.683 -0.2656 -0.0160 -0.0748
 6185TIP3    H139970   6.713   5.814  15.757 -0.1949 -0.2306 -0.2396
 6185TIP3    H239971   6.792   5.935  15.711  0.9696 -1.1163 -0.6239
 6186TIP3   OH239972   5.171   3.821  14.044  0.0487  0.4232 -0.0414
 6186TIP3    H139973   5.185   3.915  14.039 -0.8177  0.5631  0.0757
 6186TIP3    H239974   5.146   3.795  13.956  0.2420  0.3120 -0.0634
 6187TIP3   OH239975   1.990   0.749  10.770 -0.0361  0.2274  0.1200
 6187TIP3    H139976   1.958   0.834  10.741 -1.6071 -0.0924  0.7797
 6187TIP3    H239977   2.042   0.716  10.696 -0.7413  1.0660 -0.7794
 6188TIP3   OH239978   2.988   1.500  15.033 -0.4381  0.1433  0.2087
 6188TIP3    H139979   2.926   1.462  14.971 -1.4139 -0.1906  1.3697
 6188TIP3    H239980   2.953   1.586  15.054  0.8305  1.0147 -1.0307
 6189TIP3   OH239981   5.947   2.416  13.309  0.0214 -0.4286  0.1652
 6189TIP3    H139982   5.971   2.501  13.346  1.5787 -0.4639 -0.6826
 6189TIP3    H239983   5.978   2.352  13.374 -2.1792 -0.3888  1.3685
 6190TIP3   OH239984   2.258   0.484   1.321  0.6387  0.3803  0.4395
 6190TIP3    H139985   2.267   0.524   1.235  0.9688  0.4727  0.5140
 6190TIP3    H239986   2.298   0.398   1.312  0.7919  0.4401  0.5327
 6191TIP3   OH239987   5.604   1.823  15.182 -0.4037 -0.3540 -0.0909
 6191TIP3    H139988   5.610   1.732  15.153 -0.2746 -0.0347 -1.1068
 6191TIP3    H239989   5.693   1.845  15.210 -0.0482 -0.0693 -1.3622
 6192TIP3   OH239990   1.983   0.301   5.018 -0.2503 -0.1029 -0.1560
 6192TIP3    H139991   2.075   0.300   4.990 -0.7586 -0.6598 -1.9279
 6192TIP3    H239992   1.949   0.216   4.990 -1.6429  0.6167 -0.7085
 6193TIP3   OH239993   1.994   4.942  12.190 -0.2606  0.1108 -0.3701
 6193TIP3    H139994   1.917   4.921  12.244 -1.0536  1.8270 -0.7387
 6193TIP3    H239995   2.038   5.012  12.239 -0.3855  0.9204 -1.3707
 6194TIP3   OH239996   0.521   2.955   3.252 -0.1459 -0.4540  0.0304
 6194TIP3    H139997   0.428   2.946   3.275 -0.3807 -0.5656 -0.8903
 6194TIP3    H239998   0.528   2.910   3.167  0.7549 -0.4567  0.0997
 6195TIP3   OH239999   0.631   1.515  11.042  0.3315  0.4761  0.3645
 6195TIP3    H140000   0.649   1.426  11.073 -0.1131  0.6444  1.1224
 6195TIP3    H240001   0.711   1.541  10.996  1.0321  0.2564  1.4361
 6196TIP3   OH240002   4.625   5.022   5.479  0.3720  0.5604  0.3126
 6196TIP3    H140003   4.567   5.098   5.487  1.4694  1.5287 -0.6764
 6196TIP3    H240004   4.713   5.058   5.483  0.9479 -0.4164 -2.0112
 6197TIP3   OH240005   3.437   3.182  15.042 -0.1343  0.0527 -0.1476
 6197TIP3    H140006   3.443   3.151  14.951  1.0485 -1.0732  0.2880
 6197TIP3    H240007   3.344   3.200  15.055 -0.3064  0.3087 -1.6059
 6198TIP3   OH240008   1.533   6.119   3.394 -0.5019 -0.2430  0.7381
 6198TIP3    H140009   1.465   6.055   3.372 -1.3899  1.1129 -0.6583
 6198TIP3    H240010   1.614   6.068   3.394 -1.2555 -1.4845  0.2650
 6199TIP3   OH240011   2.576   1.378  14.494  0.4203  0.2996 -0.0537
 6199TIP3    H140012   2.642   1.318  14.530  0.3492  0.3987  0.2447
 6199TIP3    H240013   2.613   1.407  14.411  0.5044 -0.0738 -0.1497
 6200TIP3   OH240014   6.346   3.749   6.970 -0.8236 -0.4874  0.6347
 6200TIP3    H140015   6.296   3.830   6.959 -0.4870 -0.2755  0.6721
 6200TIP3    H240016   6.297   3.700   7.036 -0.3418  0.2346  1.5518
 6201TIP3   OH240017   4.338   3.177  16.559 -0.5970 -0.5402  0.0868
 6201TIP3    H140018   4.258   3.227  16.544 -1.8859 -2.7371 -0.7841
 6201TIP3    H240019   4.331   3.101  16.500  0.6480 -2.4247  2.1923
 6202TIP3   OH240020   6.002   3.888  12.416  0.6749 -0.2286 -0.3480
 6202TIP3    H140021   6.052   3.823  12.366  3.3495 -0.7625  2.6363
 6202TIP3    H240022   6.043   3.972  12.394  1.8770 -0.4675  0.8561
 6203TIP3   OH240023   5.267   6.129  13.482  0.0032 -0.0611 -0.0930
 6203TIP3    H140024   5.265   6.224  13.497 -3.4689 -0.1545  0.8991
 6203TIP3    H240025   5.274   6.091  13.570 -3.7406 -0.6057  0.1263
 6204TIP3   OH240026   2.705   5.765  13.151 -0.4574 -0.1503 -0.2602
 6204TIP3    H140027   2.642   5.749  13.222 -2.8581  0.1041 -2.2211
 6204TIP3    H240028   2.711   5.860  13.144  0.7997 -0.1565  0.4002
 6205TIP3   OH240029   3.210   1.142  16.802  0.0348 -0.6525  0.4401
 6205TIP3    H140030   3.231   1.122  16.711  1.6215  0.6080  0.4766
 6205TIP3    H240031   3.228   1.236  16.811  0.0768 -0.7885  2.0816
 6206TIP3   OH240032   0.539   6.076  14.806 -1.2305 -0.4251  0.2637
 6206TIP3    H140033   0.549   6.001  14.865 -0.9834 -0.2189  0.4881
 6206TIP3    H240034   0.624   6.087  14.765 -0.8854  0.5157  1.1873
 6207TIP3   OH240035   2.832   1.727   4.014  0.2932 -0.0844  0.5402
 6207TIP3    H140036   2.762   1.661   4.009  0.3867 -0.0919 -1.0272
 6207TIP3    H240037   2.888   1.697   4.086 -2.1527  0.7905  3.0029
 6208TIP3   OH240038   2.169   3.089  13.580 -0.6630 -0.0987 -0.4268
 6208TIP3    H140039   2.222   3.031  13.634 -0.8190 -0.8057 -1.0005
 6208TIP3    H240040   2.093   3.110  13.634 -0.3325  0.0200 -0.0082
 6209TIP3   OH240041   4.321   2.470   4.729  0.1816  0.6503  0.1994
 6209TIP3    H140042   4.250   2.457   4.792 -0.2901  0.3341 -0.3855
 6209TIP3    H240043   4.278   2.469   4.644  0.9874 -0.4099 -0.2287
 6210TIP3   OH240044   5.096   1.531   0.555  0.3076  0.0581 -0.3106
 6210TIP3    H140045   5.150   1.453   0.564 -1.5308 -1.3005 -0.3973
 6210TIP3    H240046   5.007   1.500   0.571 -0.5128  2.0935 -0.6383
 6211TIP3   OH240047   3.334   5.695   2.720 -0.3179 -0.5424  0.1885
 6211TIP3    H140048   3.240   5.681   2.708 -0.5625  0.6947  0.5298
 6211TIP3    H240049   3.365   5.616   2.764 -1.2922 -0.7576  0.5079
 6212TIP3   OH240050   0.788   6.646   2.864 -0.4697  0.0143  0.3999
 6212TIP3    H140051   0.861   6.702   2.892 -0.4852 -0.1572  0.7894
 6212TIP3    H240052   0.781   6.580   2.933 -1.2839  0.2890  0.5893
 6213TIP3   OH240053   2.400   0.949   2.814 -0.2988 -0.3173 -0.0471
 6213TIP3    H140054   2.469   1.007   2.781  0.2579 -1.2471 -0.5536
 6213TIP3    H240055   2.427   0.927   2.903  1.0796 -2.1469 -0.8428
 6214TIP3   OH240056   4.726   5.319  11.856  0.3475  0.6971 -0.7086
 6214TIP3    H140057   4.713   5.231  11.819 -0.0486  1.1503 -1.6798
 6214TIP3    H240058   4.809   5.312  11.903 -0.6246 -0.7388  0.9569
 6215TIP3   OH240059   6.359   1.677  13.825  0.0142 -0.0285 -0.2464
 6215TIP3    H140060   6.374   1.589  13.791  0.4104 -0.2577  0.5097
 6215TIP3    H240061   6.287   1.666  13.887  2.5465 -0.6211  2.8679
 6216TIP3   OH240062   3.469   5.309  17.162  0.1256  0.0002  0.2413
 6216TIP3    H140063   3.383   5.324  17.124  0.1847  0.8022  0.4105
 6216TIP3    H240064   3.531   5.330  17.092  0.1943 -0.1381  0.2594
 6217TIP3   OH240065   3.655   0.595   4.622  0.4840 -0.1915  0.1722
 6217TIP3    H140066   3.671   0.552   4.707 -1.2508  1.0413  1.1936
 6217TIP3    H240067   3.728   0.655   4.612  0.2405  0.3235  1.2861
 6218TIP3   OH240068   5.875   3.693  10.827 -0.3992 -0.2864  0.8601
 6218TIP3    H140069   5.924   3.676  10.907  0.2973 -1.1702  0.2578
 6218TIP3    H240070   5.907   3.778  10.796  1.2378 -1.1165  0.1498
 6219TIP3   OH240071   6.240   1.397  13.467 -0.0531  0.3381 -0.0870
 6219TIP3    H140072   6.246   1.304  13.487  2.0554  0.3204 -0.6378
 6219TIP3    H240073   6.183   1.401  13.390  1.5086 -0.7451 -1.3688
 6220TIP3   OH240074   5.216   1.399  14.896 -0.2552 -0.3034 -0.0128
 6220TIP3    H140075   5.243   1.315  14.933  0.7270 -2.0234 -4.1047
 6220TIP3    H240076   5.298   1.443  14.875 -0.7631  0.5095 -0.3137
 6221TIP3   OH240077   1.226   4.090   1.312  0.0239 -0.1057  0.1865
 6221TIP3    H140078   1.237   4.014   1.369  2.3494  0.5768  0.7636
 6221TIP3    H240079   1.223   4.165   1.372 -0.8486  0.3865 -0.4431
 6222TIP3   OH240080   4.348   4.211  14.730 -0.1567 -0.3771 -0.3589
 6222TIP3    H140081   4.262   4.251  14.741  1.3319  2.5986  1.9023
 6222TIP3    H240082   4.348   4.136  14.789 -0.5789  0.8553  1.2819
 6223TIP3   OH240083   0.985   4.144  17.105 -0.1707 -0.7638  0.1405
 6223TIP3    H140084   0.958   4.163  17.195  0.3676  0.5492  0.0613
 6223TIP3    H240085   0.916   4.089  17.070 -0.6362 -0.8961  1.2109
 6224TIP3   OH240086   3.927   3.045  14.500 -0.1139  0.2540  0.0511
 6224TIP3    H140087   4.002   3.104  14.509  0.0325  0.2232 -0.8604
 6224TIP3    H240088   3.863   3.096  14.449 -0.8187  0.3692  1.0149
 6225TIP3   OH240089   0.079   1.769  16.500 -1.0516 -0.6727  0.5330
 6225TIP3    H140090   0.161   1.819  16.500 -1.2113 -0.3841 -0.4804
 6225TIP3    H240091   0.106   1.679  16.517 -0.6216 -0.4496  1.0610
 6226TIP3   OH240092   6.189   5.850  14.754  0.0366  0.3500 -0.1500
 6226TIP3    H140093   6.268   5.863  14.701 -1.2476 -0.0067 -2.2729
 6226TIP3    H240094   6.144   5.934  14.752 -0.6730 -0.0317 -0.7870
 6227TIP3   OH240095   2.988   3.006   4.625  0.2258 -0.2883 -0.1705
 6227TIP3    H140096   3.048   3.080   4.615 -0.6369  0.2709 -1.4778
 6227TIP3    H240097   3.038   2.930   4.594 -0.4314  0.5242 -3.6618
 6228TIP3   OH240098   1.291   6.353   4.967  0.1174  0.3906 -0.1627
 6228TIP3    H140099   1.308   6.297   5.043  3.7621 -0.6773 -1.5296
 6228TIP3    H240100   1.259   6.292   4.900  2.3907  0.1527 -1.1138
 6229TIP3   OH240101   2.878   0.104  14.487 -0.4665 -0.2262 -0.5441
 6229TIP3    H140102   2.910   0.031  14.540  1.8286 -0.4063 -2.0624
 6229TIP3    H240103   2.928   0.180  14.515  1.4152 -0.4822 -2.8625
 6230TIP3   OH240104   1.358   4.920  14.226  0.5769 -0.0401  0.5354
 6230TIP3    H140105   1.335   4.834  14.261  1.5563  0.1754  1.7631
 6230TIP3    H240106   1.387   4.971  14.301 -0.1885  1.4597 -0.1430
 6231TIP3   OH240107   0.285   1.140   4.779  0.2792 -0.7031  0.0243
 6231TIP3    H140108   0.351   1.209   4.768 -3.0185  2.4586 -1.7235
 6231TIP3    H240109   0.253   1.151   4.869 -0.6128  0.4632 -0.4231
 6232TIP3   OH240110   2.528   2.151  15.717 -0.6425 -0.2052  0.0749
 6232TIP3    H140111   2.497   2.185  15.800 -1.5645 -0.8401 -0.0044
 6232TIP3    H240112   2.449   2.141  15.663 -0.3993 -2.2885  0.0292
 6233TIP3   OH240113   3.642   2.557   1.689  0.0045 -0.2774 -0.3355
 6233TIP3    H140114   3.656   2.600   1.774 -0.8027  0.2830 -0.4715
 6233TIP3    H240115   3.640   2.628   1.626  1.1389 -0.7393 -0.9134
 6234TIP3   OH240116   1.311   6.732   5.502 -0.2502  0.4121  0.4468
 6234TIP3    H140117   1.331   6.814   5.547 -1.8931  1.2497 -0.2499
 6234TIP3    H240118   1.351   6.664   5.556  2.2260  1.7097  0.4158
 6235TIP3   OH240119   2.828   1.770  12.173 -0.1899 -0.2713  0.7693
 6235TIP3    H140120   2.829   1.854  12.126 -0.8351 -1.5967 -1.8017
 6235TIP3    H240121   2.737   1.758  12.199 -0.7301 -1.4313 -1.4470
 6236TIP3   OH240122   5.919   3.958   4.989  0.3754 -0.9489  0.1546
 6236TIP3    H140123   5.929   3.883   4.931  0.0875  0.0209 -1.1763
 6236TIP3    H240124   5.944   4.034   4.936 -2.4304  0.2781  0.3901
 6237TIP3   OH240125   4.469   2.641   5.018  0.2690  0.1665 -0.3265
 6237TIP3    H140126   4.537   2.674   4.959 -0.2845  2.7207  0.3155
 6237TIP3    H240127   4.389   2.683   4.988 -0.5647 -0.7992  0.4804
 6238TIP3   OH240128   6.670   5.243   3.571  0.0019 -0.3988 -0.2652
 6238TIP3    H140129   6.634   5.322   3.531  0.9155  0.3939  0.4212
 6238TIP3    H240130   6.691   5.186   3.498 -0.8271 -0.0765 -0.7643
 6239TIP3   OH240131   5.619   0.358   2.449  0.1578 -0.0249 -0.1658
 6239TIP3    H140132   5.591   0.432   2.503  1.3954  1.5418 -1.5533
 6239TIP3    H240133   5.687   0.315   2.500 -0.1854  0.1352  0.4299
 6240TIP3   OH240134   3.532   2.827   6.087  0.2948  0.2235 -0.0861
 6240TIP3    H140135   3.476   2.842   6.163 -0.6998  0.4123 -0.8412
 6240TIP3    H240136   3.593   2.900   6.087 -0.8965  1.2493 -0.5192
 6241TIP3   OH240137   5.047   0.592  14.072  0.4122 -0.1647  0.0444
 6241TIP3    H140138   5.069   0.585  13.980  1.8446  0.4717  0.3194
 6241TIP3    H240139   5.099   0.666  14.104 -0.7320  0.1919  1.1656
 6242TIP3   OH240140   2.561   2.569   0.763  0.5035 -0.6422 -0.2235
 6242TIP3    H140141   2.599   2.653   0.739  0.2040 -0.0710  1.2469
 6242TIP3    H240142   2.467   2.578   0.744  0.2133 -0.0813  1.3466
 6243TIP3   OH240143   4.193   3.915  11.857  0.1362 -0.3069 -0.6589
 6243TIP3    H140144   4.257   3.958  11.800  1.3719 -0.8060  0.2922
 6243TIP3    H240145   4.184   3.827  11.819 -0.6957  0.0524 -1.3164
 6244TIP3   OH240146   4.665   3.570   1.363 -0.3472  0.3291 -0.3079
 6244TIP3    H140147   4.649   3.663   1.351 -0.0249  0.2144 -1.7529
 6244TIP3    H240148   4.660   3.532   1.275  2.6656 -0.5097 -0.2304
 6245TIP3   OH240149   1.956   1.979   4.138  0.2548 -0.3237 -0.3402
 6245TIP3    H140150   1.961   2.073   4.158  0.1437 -0.3358 -0.2575
 6245TIP3    H240151   1.937   1.937   4.221 -0.0459 -0.3882 -0.4396
 6246TIP3   OH240152   6.502   5.298  15.952  1.4001 -0.0571 -0.2946
 6246TIP3    H140153   6.569   5.362  15.973  1.0705  0.3616 -0.5011
 6246TIP3    H240154   6.427   5.350  15.922  1.0375 -0.5207 -0.2171
 6247TIP3   OH240155   4.947   3.419  16.820  0.2865  0.1035 -0.3351
 6247TIP3    H140156   4.884   3.410  16.749 -2.6119 -0.9196  2.1429
 6247TIP3    H240157   4.974   3.329  16.839  1.1328  0.3758 -0.1837
 6248TIP3   OH240158   5.350   1.873  15.062 -0.2727 -0.2684 -0.3025
 6248TIP3    H140159   5.378   1.959  15.092 -0.1692 -0.9301  1.5783
 6248TIP3    H240160   5.409   1.812  15.104 -0.4019 -1.2987 -1.5388
 6249TIP3   OH240161   4.025   6.267   3.348  0.3200 -0.4964  0.7765
 6249TIP3    H140162   4.109   6.313   3.345  1.2378 -2.1215  0.5090
 6249TIP3    H240163   4.048   6.177   3.373 -1.1934 -1.2590 -0.4415
 6250TIP3   OH240164   0.788   3.940  15.961  0.4360  0.5704 -0.4984
 6250TIP3    H140165   0.747   3.986  16.035  2.3334 -0.1564  1.0955
 6250TIP3    H240166   0.874   3.980  15.952  0.0044  1.0942 -2.8122
 6251TIP3   OH240167   2.245   3.415   1.081  0.2937  0.1404 -0.6861
 6251TIP3    H140168   2.299   3.489   1.053  1.0721 -0.6740 -1.4125
 6251TIP3    H240169   2.258   3.349   1.013  0.9189 -1.2939  0.7601
 6252TIP3   OH240170   2.858   4.007  14.995  0.5791 -0.2093 -0.2577
 6252TIP3    H140171   2.913   4.068  14.946  0.4808 -1.0512 -1.4511
 6252TIP3    H240172   2.820   3.949  14.929 -1.8562  0.3983  0.4923
 6253TIP3   OH240173   3.871   2.291   6.554  0.0609 -0.3481  0.5453
 6253TIP3    H140174   3.793   2.244   6.581  0.4596 -0.1439  2.1415
 6253TIP3    H240175   3.941   2.227   6.558  0.5021  0.1878  2.1685
 6254TIP3   OH240176   6.287   3.225   1.536  0.5098  0.5440 -0.4028
 6254TIP3    H140177   6.192   3.227   1.541  0.4939 -0.4620 -0.1998
 6254TIP3    H240178   6.307   3.244   1.445  0.1129  0.6496 -0.4690
 6255TIP3   OH240179   4.239   2.704   1.663 -0.1380 -0.5434  0.3484
 6255TIP3    H140180   4.217   2.659   1.581 -0.0798 -1.7406  0.9700
 6255TIP3    H240181   4.211   2.644   1.732  0.7015  0.0152  1.2058
 6256TIP3   OH240182   6.749   2.297   3.961  0.0739  0.6332 -0.5211
 6256TIP3    H140183   6.679   2.323   3.901  0.0668  0.5250 -0.5617
 6256TIP3    H240184   6.720   2.212   3.994  0.9199 -0.1718 -1.7523
 6257TIP3   OH240185   3.454   4.893  15.407 -0.5416  0.3268 -0.3191
 6257TIP3    H140186   3.486   4.982  15.424  0.4161 -0.0833  0.1261
 6257TIP3    H240187   3.369   4.906  15.366 -0.1451  1.4617 -0.8397
 6258TIP3   OH240188   1.232   5.250  11.981  0.0644  0.6049  0.0301
 6258TIP3    H140189   1.243   5.155  11.971 -1.1552  0.5915 -1.6388
 6258TIP3    H240190   1.262   5.286  11.897 -2.9719  1.3273 -0.8537
 6259TIP3   OH240191   2.945   2.599   1.598  0.7171 -0.0877 -0.3106
 6259TIP3    H140192   3.036   2.611   1.624  0.8356 -1.6242  0.0292
 6259TIP3    H240193   2.945   2.619   1.504  1.4202 -0.1987 -0.3403
 6260TIP3   OH240194   0.996   2.521   4.202  0.2080  0.3161 -0.0957
 6260TIP3    H140195   1.076   2.572   4.186  0.4224 -0.4562 -1.6379
 6260TIP3    H240196   0.938   2.583   4.246  2.6568  0.0577  3.9650
 6261TIP3   OH240197   0.989   5.344  16.179 -0.9193  0.4284 -0.5420
 6261TIP3    H140198   0.968   5.433  16.210  1.4267  0.9972 -0.3916
 6261TIP3    H240199   1.077   5.328  16.212 -1.3159 -2.0252 -0.5166
 6262TIP3   OH240200   2.134   6.506  12.378 -0.2934  0.4624  0.0699
 6262TIP3    H140201   2.085   6.424  12.379  1.1635 -0.4225  0.6666
 6262TIP3    H240202   2.066   6.574  12.377 -1.5902 -0.7005 -2.9158
 6263TIP3   OH240203   2.362   5.948  11.870  0.5023 -0.5936 -0.2204
 6263TIP3    H140204   2.441   5.972  11.918  0.8553 -1.1893 -0.4946
 6263TIP3    H240205   2.291   5.991  11.917  1.0479  0.4810 -0.3475
 6264TIP3   OH240206   1.613   0.166  15.232 -0.4348 -0.7521  0.6458
 6264TIP3    H140207   1.555   0.109  15.282 -0.5309 -1.4967 -0.2788
 6264TIP3    H240208   1.561   0.245  15.216 -0.7115 -0.8659  0.9582
 6265TIP3   OH240209   3.209   1.935   5.750  0.1813 -0.0940  0.2334
 6265TIP3    H140210   3.263   2.015   5.753  1.0924 -0.7005  2.5036
 6265TIP3    H240211   3.125   1.962   5.787 -0.7305  0.5612 -2.1693
 6266TIP3   OH240212   2.532   3.443  13.713 -0.8616  0.0234 -0.2796
 6266TIP3    H140213   2.520   3.371  13.775 -1.5488  0.4582  0.1093
 6266TIP3    H240214   2.523   3.402  13.627  0.7545 -0.7017 -0.1307
 6267TIP3   OH240215   2.409   1.728   3.790 -0.5430 -0.6016  0.0669
 6267TIP3    H140216   2.498   1.706   3.763 -0.5765 -1.7681  0.8498
 6267TIP3    H240217   2.353   1.681   3.727 -0.6550  1.3047 -1.3554
 6268TIP3   OH240218   1.178   2.777  16.487  0.1681 -0.1600 -0.2254
 6268TIP3    H140219   1.246   2.807  16.427 -0.7315  0.3904 -1.0096
 6268TIP3    H240220   1.193   2.827  16.568  2.6831 -2.4095  0.8548
 6269TIP3   OH240221   2.346   1.444  15.816  0.2515  0.0980 -0.1307
 6269TIP3    H140222   2.434   1.408  15.807 -0.2778 -0.6383 -3.4512
 6269TIP3    H240223   2.292   1.370  15.843 -0.1136 -0.7410 -2.9069
 6270TIP3   OH240224   0.421   6.128  14.089 -0.4924  0.4721  0.1887
 6270TIP3    H140225   0.417   6.123  14.185 -0.2543  0.3765  0.1926
 6270TIP3    H240226   0.511   6.155  14.070 -0.7951  1.4005  0.0321
 6271TIP3   OH240227   4.783   1.977   1.814  0.6560 -0.4111  0.2361
 6271TIP3    H140228   4.842   1.950   1.744 -1.0237 -2.0648 -0.6164
 6271TIP3    H240229   4.811   1.926   1.890  2.3464  1.2318  0.7927
 6272TIP3   OH240230   5.217   1.624  16.580  0.3094  0.0730 -0.4965
 6272TIP3    H140231   5.122   1.635  16.579  0.1052 -1.2496  0.9566
 6272TIP3    H240232   5.249   1.690  16.641  0.1237 -0.6212  0.3712
 6273TIP3   OH240233   3.029   1.698  13.459 -0.2615  0.0613 -0.0252
 6273TIP3    H140234   3.048   1.748  13.539 -0.1144 -0.1483  0.0719
 6273TIP3    H240235   3.104   1.639  13.449  0.6007  1.3515 -1.3432
 6274TIP3   OH240236   2.057   1.873   5.050  0.1839  0.5193  0.1504
 6274TIP3    H140237   2.062   1.947   4.990 -0.3778 -0.2198 -0.8228
 6274TIP3    H240238   2.111   1.900   5.125 -1.6828  2.7855  0.8035
 6275TIP3   OH240239   2.683   5.161  13.118 -0.3848  0.3694  0.2812
 6275TIP3    H140240   2.624   5.208  13.058 -1.7563  0.5362  1.6947
 6275TIP3    H240241   2.763   5.213  13.118 -0.1263  0.0760 -1.7811
 6276TIP3   OH240242   1.677   4.765   0.393 -0.3201  0.6698  0.5072
 6276TIP3    H140243   1.696   4.725   0.309  1.9940  2.2968  0.1567
 6276TIP3    H240244   1.599   4.720   0.425 -0.7414 -0.5713 -2.0858
 6277TIP3   OH240245   2.390   1.157   5.268 -0.8441 -0.2151  0.1981
 6277TIP3    H140246   2.439   1.176   5.348  0.1058 -1.0152 -0.1724
 6277TIP3    H240247   2.336   1.081   5.291  1.8106 -2.5636 -0.7633
 6278TIP3   OH240248   3.258   3.248   4.348 -0.3396 -0.0880 -0.2202
 6278TIP3    H140249   3.209   3.193   4.287  1.2287  0.1181 -1.7488
 6278TIP3    H240250   3.350   3.232   4.327  0.2334  0.9585  1.2544
 6279TIP3   OH240251   1.690   2.135   5.194 -0.0325  0.6758  0.0018
 6279TIP3    H140252   1.786   2.132   5.199 -0.0747  0.5542  0.8947
 6279TIP3    H240253   1.661   2.112   5.282 -0.8944  0.3832 -0.3504
 6280TIP3   OH240254   3.668   2.057   1.501  0.0462  0.8438  0.1511
 6280TIP3    H140255   3.622   2.057   1.417 -1.4002  0.1472  0.9116
 6280TIP3    H240256   3.633   2.134   1.547  1.1663  1.4890 -0.0262
 6281TIP3   OH240257   1.352   5.218  15.719 -0.8590  0.6742  0.5449
 6281TIP3    H140258   1.353   5.193  15.626 -2.8588  1.5374  0.2370
 6281TIP3    H240259   1.313   5.142  15.763 -0.0474  0.3236  0.6647
 6282TIP3   OH240260   5.528   2.204   4.454  0.4713 -0.2392 -0.0479
 6282TIP3    H140261   5.465   2.150   4.501  0.5175  0.7586  1.2080
 6282TIP3    H240262   5.550   2.152   4.377 -0.9754 -1.1282  0.0893
 6283TIP3   OH240263   2.010   5.238  15.294 -0.1090 -0.3218  0.2794
 6283TIP3    H140264   2.072   5.301  15.256 -0.7037  0.7336  0.9820
 6283TIP3    H240265   2.065   5.176  15.341  0.4558  0.2825  0.4378
 6284TIP3   OH240266   5.600   3.979   1.104  0.8475  0.0852 -0.7573
 6284TIP3    H140267   5.517   3.935   1.087  1.1268 -0.1686 -1.5397
 6284TIP3    H240268   5.639   3.991   1.017  1.4170  0.6152 -0.4409
 6285TIP3   OH240269   1.515   1.670   3.722 -0.4114  0.3676 -0.0253
 6285TIP3    H140270   1.442   1.727   3.748  0.2374  1.3794 -0.3400
 6285TIP3    H240271   1.537   1.623   3.802 -2.4496 -1.2039 -0.3126
 6286TIP3   OH240272   2.969   1.887  12.665  0.4930 -0.2866  0.6225
 6286TIP3    H140273   3.058   1.852  12.655  0.1164 -0.8762 -0.9975
 6286TIP3    H240274   2.912   1.817  12.632 -0.3511  1.4752 -1.8971
 6287TIP3   OH240275   0.862   5.310  14.794  0.4079  0.1591 -0.0380
 6287TIP3    H140276   0.803   5.249  14.750 -0.8546  0.8173  0.6844
 6287TIP3    H240277   0.941   5.309  14.741 -0.7149  0.2341 -1.7780
 6288TIP3   OH240278   6.698   4.631  13.083 -0.2030 -0.2511 -0.7880
 6288TIP3    H140279   6.730   4.716  13.112 -1.0978  0.5863 -2.1148
 6288TIP3    H240280   6.605   4.631  13.107  0.0255 -1.3332  0.1858
 6289TIP3   OH240281   1.233   3.082  14.746 -0.5036 -0.3604 -0.3856
 6289TIP3    H140282   1.265   3.099  14.835 -4.5485  1.8715  0.9138
 6289TIP3    H240283   1.167   3.013  14.758 -2.1755  1.0133 -1.2794
 6290TIP3   OH240284   5.721   4.912  11.879 -0.0284  0.1324  0.0701
 6290TIP3    H140285   5.752   4.969  11.950  1.4498 -0.5226 -0.0152
 6290TIP3    H240286   5.681   4.838  11.925  1.4531 -0.5787  0.2694
 6291TIP3   OH240287   1.409   6.658   1.602  0.2259 -0.5032 -0.1327
 6291TIP3    H140288   1.427   6.653   1.696  0.2664  0.9907 -0.0438
 6291TIP3    H240289   1.393   6.751   1.585 -2.4790 -1.0712 -1.1302
 6292TIP3   OH240290   3.493   1.558  11.321  0.2731 -0.1782  0.0036
 6292TIP3    H140291   3.437   1.633  11.302  1.9733  1.2858  0.5302
 6292TIP3    H240292   3.438   1.482  11.302 -1.2980  1.1793 -1.1616
 6293TIP3   OH240293   6.342   5.549   5.563  0.7764  0.1999  0.4930
 6293TIP3    H140294   6.299   5.631   5.585 -0.0943 -0.2936  0.6758
 6293TIP3    H240295   6.435   5.565   5.580  0.4941  0.8211  1.4892
 6294TIP3   OH240296   6.504   6.446   6.394  0.1154  0.3627 -0.2513
 6294TIP3    H140297   6.498   6.538   6.369 -0.7349  0.5089  0.4374
 6294TIP3    H240298   6.519   6.448   6.488 -1.6654 -0.2012  0.0751
 6295TIP3   OH240299   0.544   3.332   2.335 -0.6759  0.8405  0.3731
 6295TIP3    H140300   0.516   3.242   2.324 -2.4278  1.1989  1.5233
 6295TIP3    H240301   0.579   3.357   2.249 -0.5624 -0.7694 -0.0856
 6296TIP3   OH240302   5.807   4.280   6.032  0.1994  0.3285 -0.2790
 6296TIP3    H140303   5.863   4.338   6.084  1.2644 -1.0356  0.1424
 6296TIP3    H240304   5.860   4.257   5.955  0.1804 -0.8229  0.0288
 6297TIP3   OH240305   5.953   6.026  16.756 -0.4795 -0.1394 -0.1177
 6297TIP3    H140306   5.924   6.115  16.734  0.2732  0.6300  1.7185
 6297TIP3    H240307   6.048   6.034  16.766  0.0969 -1.9438 -3.1488
 6298TIP3   OH240308   3.146   5.782  12.186  0.4091  0.2745  0.0284
 6298TIP3    H140309   3.232   5.761  12.222  0.1091  0.8532  1.1130
 6298TIP3    H240310   3.157   5.870  12.148  0.5098  0.0001 -0.5915
 6299TIP3   OH240311   5.813   0.427  12.984 -0.2321  0.3699 -0.2672
 6299TIP3    H140312   5.850   0.514  12.995 -0.2693  0.4700 -0.8575
 6299TIP3    H240313   5.874   0.368  13.029 -0.1213  0.6822 -0.0073
 6300TIP3   OH240314   5.135   5.816  12.696  0.3405  0.4314 -0.2488
 6300TIP3    H140315   5.205   5.869  12.657  0.1535  0.6593 -0.2771
 6300TIP3    H240316   5.059   5.873  12.695  0.9524  1.5082  3.0862
 6301TIP3   OH240317   3.731   1.884   3.357  0.1816 -0.3486 -0.5015
 6301TIP3    H140318   3.796   1.950   3.334  0.8739 -0.2162  1.6462
 6301TIP3    H240319   3.755   1.855   3.444 -1.9245 -1.2104 -0.1343
 6302TIP3   OH240320   5.419   3.646   3.074  0.2994  0.6532  0.2551
 6302TIP3    H140321   5.369   3.597   3.009  0.2063  1.1344 -0.0427
 6302TIP3    H240322   5.398   3.604   3.158  1.6684 -1.0173 -0.1788
 6303TIP3   OH240323   6.357   5.106   6.360  0.1752 -0.1883  0.3926
 6303TIP3    H140324   6.281   5.159   6.384 -0.5844 -0.9508 -0.2835
 6303TIP3    H240325   6.414   5.109   6.437  0.3001  1.8339  0.2651
 6304TIP3   OH240326   1.242   4.914   1.690  0.4866 -0.4825  0.2500
 6304TIP3    H140327   1.279   4.939   1.606  2.0444 -1.2227  0.6813
 6304TIP3    H240328   1.237   4.995   1.741 -1.6736  0.2131 -0.9367
 6305TIP3   OH240329   4.350   2.491  15.388 -0.2174 -0.2233  0.3594
 6305TIP3    H140330   4.312   2.405  15.371 -1.0661 -0.0481  1.2833
 6305TIP3    H240331   4.373   2.524  15.302  1.2808 -1.8824  0.0589
 6306TIP3   OH240332   5.329   5.565   0.265 -0.4933 -0.2072 -0.0918
 6306TIP3    H140333   5.363   5.543   0.178 -0.9014  0.0038 -0.3065
 6306TIP3    H240334   5.308   5.658   0.260  0.6114  0.1081  0.6127
 6307TIP3   OH240335   6.612   6.365  14.955  0.9350 -0.0625  1.0526
 6307TIP3    H140336   6.554   6.413  14.896  0.7399 -1.4580  0.0539
 6307TIP3    H240337   6.678   6.429  14.981  1.4666  0.4373 -1.2934
 6308TIP3   OH240338   3.424   1.576   5.529 -0.1464  0.1289  0.3801
 6308TIP3    H140339   3.417   1.668   5.551 -0.1151 -0.0793  1.2917
 6308TIP3    H240340   3.515   1.565   5.501 -0.5255  0.6597 -1.1778
 6309TIP3   OH240341   2.833   0.671  15.499 -0.2860 -0.0823  0.2241
 6309TIP3    H140342   2.897   0.647  15.432  2.0975 -0.0675  2.3163
 6309TIP3    H240343   2.769   0.600  15.496  1.1735 -1.4634 -0.3698
 6310TIP3   OH240344   0.834   2.539   1.886 -0.7883 -0.0800  0.2097
 6310TIP3    H140345   0.865   2.548   1.976 -3.6641  1.6510  1.1934
 6310TIP3    H240346   0.886   2.602   1.836 -1.3968  1.4395  1.4026
 6311TIP3   OH240347   1.887   4.333   1.185 -0.4849 -0.0898 -0.4320
 6311TIP3    H140348   1.928   4.292   1.108  1.5099  0.6696  0.1475
 6311TIP3    H240349   1.797   4.351   1.158  0.2303  0.4312 -2.7283
 6312TIP3   OH240350   3.708   5.316   1.664  0.3295  0.0528 -0.4392
 6312TIP3    H140351   3.777   5.374   1.632  0.9584  0.2822  1.2461
 6312TIP3    H240352   3.734   5.229   1.634  1.2443  0.1661  0.0046
 6313TIP3   OH240353   1.437   5.620   5.375 -0.4091  0.8555  0.7788
 6313TIP3    H140354   1.373   5.622   5.447 -1.3313  0.6700 -0.0052
 6313TIP3    H240355   1.520   5.642   5.416 -0.0956 -3.0878  2.7480
 6314TIP3   OH240356   0.415   1.632   6.048  0.1039  0.1570  0.2664
 6314TIP3    H140357   0.336   1.578   6.053 -0.3054  0.7983  1.2220
 6314TIP3    H240358   0.461   1.602   5.970 -1.9648  0.9621 -1.3626
 6315TIP3   OH240359   3.033   1.248   4.712  0.5477  0.7190  0.2380
 6315TIP3    H140360   2.958   1.196   4.742  1.0022 -0.5050 -0.6780
 6315TIP3    H240361   3.094   1.246   4.785 -0.3591  1.8707  1.0609
 6316TIP3   OH240362   0.173   4.296  11.178  0.2355 -0.0496  0.5560
 6316TIP3    H140363   0.268   4.281  11.182  0.2929  0.1171 -0.1175
 6316TIP3    H240364   0.139   4.250  11.255  0.6302 -1.8849 -0.3113
 6317TIP3   OH240365   3.620   5.928  16.535 -0.0464  0.4043  0.0693
 6317TIP3    H140366   3.649   5.976  16.458  0.1010 -1.6030 -1.2040
 6317TIP3    H240367   3.599   5.995  16.599  2.8626  2.0703 -0.5826
 6318TIP3   OH240368   3.021   5.568   4.932 -0.5550 -0.9645  0.2640
 6318TIP3    H140369   3.088   5.503   4.910 -0.1253  0.0956 -1.8282
 6318TIP3    H240370   3.068   5.651   4.934 -1.8583 -0.0979 -1.9423
 6319TIP3   OH240371   4.911   4.590   2.313 -0.2117 -0.1513  0.2663
 6319TIP3    H140372   4.819   4.580   2.290 -0.0146  1.5435 -1.5133
 6319TIP3    H240373   4.910   4.642   2.394 -0.8063 -0.5906  0.5504
 6320TIP3   OH240374   2.400   4.571   4.817  0.2463 -0.2214  0.4652
 6320TIP3    H140375   2.375   4.560   4.725 -2.5547 -0.7131  1.1822
 6320TIP3    H240376   2.474   4.511   4.829 -0.5153 -1.5557 -1.0729
 6321TIP3   OH240377   4.072   1.164   1.497  0.2024  0.1818 -0.5199
 6321TIP3    H140378   3.999   1.174   1.557  0.6604  1.1689 -0.1030
 6321TIP3    H240379   4.117   1.249   1.499  1.4542 -0.4485 -0.6310
 6322TIP3   OH240380   2.433   6.403   1.423 -0.5491  0.9140  0.4792
 6322TIP3    H140381   2.425   6.456   1.344 -0.8982 -1.4114 -1.1419
 6322TIP3    H240382   2.344   6.391   1.454 -0.5855  0.3041  0.1484
 6323TIP3   OH240383   3.598   0.348   4.371 -0.0754 -0.8844  0.1707
 6323TIP3    H140384   3.560   0.267   4.338 -0.6783 -1.0566  1.2302
 6323TIP3    H240385   3.552   0.364   4.453 -0.3579  0.8345 -0.2973
 6324TIP3   OH240386   3.568   5.834   2.094 -0.7932  0.9688 -0.2574
 6324TIP3    H140387   3.657   5.871   2.098 -0.1046 -0.4898 -1.3612
 6324TIP3    H240388   3.525   5.883   2.023  0.1769 -0.3573 -1.8405
 6325TIP3   OH240389   5.320   5.172  16.033  0.5332  0.9446 -0.1053
 6325TIP3    H140390   5.349   5.098  16.085 -1.3416 -0.0158 -0.3257
 6325TIP3    H240391   5.377   5.171  15.956  1.7433  0.9020  0.7747
 6326TIP3   OH240392   1.286   5.905   5.527 -0.2125  0.4334  0.1728
 6326TIP3    H140393   1.244   5.920   5.442 -1.1644 -1.2052  0.3170
 6326TIP3    H240394   1.255   5.819   5.554  1.4087  0.1938  1.4098
 6327TIP3   OH240395   4.658   5.883   1.548 -0.3626  0.0034  0.1535
 6327TIP3    H140396   4.606   5.960   1.525 -2.3998 -1.6849 -1.2556
 6327TIP3    H240397   4.712   5.867   1.470 -1.3317 -1.0515 -0.3201
 6328TIP3   OH240398   1.012   4.067  13.160  0.8235  0.0188 -0.0792
 6328TIP3    H140399   1.029   4.109  13.244 -1.2617  0.9767 -0.0721
 6328TIP3    H240400   0.971   3.984  13.183  0.3146  0.2505 -0.1464
 6329TIP3   OH240401   4.384   2.413   2.036  0.3242  0.3841  0.8434
 6329TIP3    H140402   4.330   2.429   2.114 -0.3346  0.7550  0.3248
 6329TIP3    H240403   4.438   2.492   2.028  0.4526  0.3093  0.9723
 6330TIP3   OH240404   4.332   6.740  16.941 -0.0558  0.0645 -0.4387
 6330TIP3    H140405   4.321   6.803  16.870  2.5609  2.9279  1.4003
 6330TIP3    H240406   4.351   6.657  16.897 -2.1728  0.8076 -2.9915
 6331TIP3   OH240407   0.831   3.797   1.515  0.4160 -0.0832 -0.0500
 6331TIP3    H140408   0.818   3.892   1.512 -1.9664 -0.3597 -1.3625
 6331TIP3    H240409   0.839   3.777   1.608 -1.7809  1.1571  0.4787
 6332TIP3   OH240410   0.989   0.514   4.042  0.3528  0.1279  0.3855
 6332TIP3    H140411   0.993   0.462   3.962 -1.5424  2.7289 -1.5998
 6332TIP3    H240412   0.895   0.520   4.062  0.5652  1.7958  1.1269
 6333TIP3   OH240413   2.404   5.386   0.226  0.0234  0.0550 -0.6317
 6333TIP3    H140414   2.493   5.391   0.191  0.8022 -3.1641  0.4636
 6333TIP3    H240415   2.360   5.325   0.167 -0.1689 -1.4680  1.0038
 6334TIP3   OH240416   2.175   5.173   0.836 -0.8988 -0.6455  0.7402
 6334TIP3    H140417   2.220   5.244   0.790  0.5678 -1.1547  1.3225
 6334TIP3    H240418   2.123   5.129   0.768 -1.4845  0.6928  0.2886
 6335TIP3   OH240419   3.450   1.873   3.312 -0.4000  0.8714 -0.5016
 6335TIP3    H140420   3.544   1.887   3.303  0.2319  0.0137  3.1847
 6335TIP3    H240421   3.422   1.935   3.378 -1.1804 -2.3963  2.5464
 6336TIP3   OH240422   6.616   5.617  17.257  0.4789 -0.2053  0.3830
 6336TIP3    H140423   6.585   5.670  17.331  0.5002  0.0794  0.1899
 6336TIP3    H240424   6.569   5.535  17.266 -0.7638  0.4178 -0.2201
 6337TIP3   OH240425   4.326   4.546  14.353 -0.2747 -0.0626 -0.0727
 6337TIP3    H140426   4.235   4.538  14.327 -0.3830  2.0313 -0.5153
 6337TIP3    H240427   4.375   4.499  14.286 -0.9320  0.3711 -0.8765
 6338TIP3   OH240428   3.260   3.089  13.136  0.3873 -0.1022  0.6233
 6338TIP3    H140429   3.191   3.074  13.072  0.6796 -3.3507  0.8876
 6338TIP3    H240430   3.324   3.019  13.120  1.8655  0.6609  2.6595
 6339TIP3   OH240431   5.281   0.796  15.546 -0.0392  0.3574  0.5302
 6339TIP3    H140432   5.187   0.779  15.537 -0.0526 -0.4590  1.9840
 6339TIP3    H240433   5.321   0.709  15.551  0.9459  0.6617 -1.0968
 6340TIP3   OH240434   6.300   3.731   4.433  0.2950  0.3118 -0.1917
 6340TIP3    H140435   6.264   3.653   4.390 -0.3438  0.0983  0.7093
 6340TIP3    H240436   6.248   3.804   4.398  0.1366  0.2042 -0.1778
 6341TIP3   OH240437   4.772   5.777   4.982  0.5053  0.5194  0.3685
 6341TIP3    H140438   4.766   5.831   5.061 -0.9201  2.0062 -0.6936
 6341TIP3    H240439   4.806   5.836   4.915  2.5185 -0.9404 -0.0109
 6342TIP3   OH240440   6.733   3.624   5.389  0.4504  0.2257 -0.3661
 6342TIP3    H140441   6.727   3.719   5.399 -1.7861  0.1300 -0.3279
 6342TIP3    H240442   6.765   3.592   5.473  0.9804  0.9118 -0.3007
 6343TIP3   OH240443   4.408   3.989   2.076  0.5931  0.0913  0.5393
 6343TIP3    H140444   4.398   3.893   2.078 -1.3744  0.2558  0.4407
 6343TIP3    H240445   4.417   4.009   1.983 -1.7055  0.1853  0.2884
 6344TIP3   OH240446   3.930   5.343  16.596 -0.6283 -0.1145 -0.0679
 6344TIP3    H140447   3.899   5.257  16.571  0.1916 -0.0769 -1.3394
 6344TIP3    H240448   3.927   5.394  16.515  0.4461  0.5569  0.2859
 6345TIP3   OH240449   4.191   6.743   4.006  0.2640 -0.5452 -0.4582
 6345TIP3    H140450   4.245   6.676   4.048 -1.2037 -2.1337 -0.9888
 6345TIP3    H240451   4.130   6.694   3.951 -1.4390  1.1835 -0.2180
 6346TIP3   OH240452   0.067   3.187  16.841 -0.0272 -0.4232 -0.4568
 6346TIP3    H140453   0.065   3.266  16.787 -0.4234 -0.5197 -0.5893
 6346TIP3    H240454   0.143   3.198  16.897 -0.3715  0.2840 -0.1176
 6347TIP3   OH240455   2.960   2.512   2.955  0.4884  0.2383 -0.0391
 6347TIP3    H140456   2.937   2.518   3.048  1.2621 -0.5397  0.2117
 6347TIP3    H240457   2.952   2.602   2.923 -1.8400  0.2147  0.2609
 6348TIP3   OH240458   1.521   5.619  12.955 -0.4176 -0.0710  0.0330
 6348TIP3    H140459   1.559   5.702  12.926 -0.5903  0.1676  0.4823
 6348TIP3    H240460   1.435   5.643  12.990  0.5095 -0.0743  2.4577
 6349TIP3   OH240461   2.022   6.690   3.823 -0.1158  0.0774  0.7735
 6349TIP3    H140462   2.099   6.683   3.766 -0.4773  0.0400  0.2795
 6349TIP3    H240463   1.950   6.657   3.769 -0.6230  0.8805  0.9403
 6350TIP3   OH240464   4.274   0.147  16.747  0.1886  0.2721  0.2939
 6350TIP3    H140465   4.255   0.241  16.751 -0.6958  0.2597 -2.0331
 6350TIP3    H240466   4.234   0.118  16.665  0.6189 -2.1141  0.8510
 6351TIP3   OH240467   3.077   3.077  13.950  0.0076  0.1339 -0.2570
 6351TIP3    H140468   3.009   3.045  14.010  0.7577 -0.3105  0.3808
 6351TIP3    H240469   3.154   3.089  14.006  0.8505 -0.6850 -1.1953
 6352TIP3   OH240470   0.283   4.902  15.867  0.4186 -0.5493 -0.3652
 6352TIP3    H140471   0.273   4.807  15.877 -1.0996 -0.3223  0.5763
 6352TIP3    H240472   0.366   4.922  15.910  1.1602 -1.5470 -1.2939
 6353TIP3   OH240473   3.838   4.494  16.587 -0.3991  0.5736 -0.0396
 6353TIP3    H140474   3.842   4.588  16.604  1.0434  0.6374 -0.5820
 6353TIP3    H240475   3.887   4.455  16.659  3.2576  0.6457 -2.2530
 6354TIP3   OH240476   2.964   5.521  13.791 -0.1603 -0.0906  0.2098
 6354TIP3    H140477   2.889   5.467  13.818 -0.0748 -0.0397  0.5540
 6354TIP3    H240478   2.926   5.606  13.772  0.1422  0.8247  3.1645
 6355TIP3   OH240479   6.364   6.605  11.022  0.2697 -0.1155 -0.0346
 6355TIP3    H140480   6.439   6.589  10.965  0.3624  0.9714 -0.2429
 6355TIP3    H240481   6.402   6.628  11.107  0.1373 -1.2158  0.3433
 6356TIP3   OH240482   5.853   6.464   1.954  0.2073  0.5693  0.0771
 6356TIP3    H140483   5.820   6.530   1.893  0.8243  0.4361 -0.4045
 6356TIP3    H240484   5.859   6.509   2.038  0.1448  0.9829 -0.1405
 6357TIP3   OH240485   1.256   1.310  16.218  0.1364 -0.0758 -0.3508
 6357TIP3    H140486   1.174   1.321  16.171 -0.5186 -2.8687 -0.0490
 6357TIP3    H240487   1.253   1.375  16.288 -0.4315  1.8017 -2.0405
 6358TIP3   OH240488   2.235   0.322  12.762  0.2738 -0.0683 -0.1292
 6358TIP3    H140489   2.329   0.329  12.751  0.1980 -1.2000 -2.2978
 6358TIP3    H240490   2.203   0.295  12.675 -2.4848  3.7694 -0.5887
 6359TIP3   OH240491   0.302   2.578   2.877 -0.0128  0.5258  0.1835
 6359TIP3    H140492   0.311   2.541   2.789 -2.2028 -0.3441  0.2623
 6359TIP3    H240493   0.391   2.580   2.912  0.6007 -1.5097 -1.1123
 6360TIP3   OH240494   1.840   2.106   0.273  0.8126 -0.3091  0.3665
 6360TIP3    H140495   1.790   2.168   0.326 -0.0364 -0.0599 -0.7031
 6360TIP3    H240496   1.775   2.063   0.218  1.5497 -1.2743  0.2115
 6361TIP3   OH240497   0.157   3.390  13.614  0.6087 -0.3912 -0.3836
 6361TIP3    H140498   0.152   3.401  13.519 -2.2568 -0.1230 -0.2855
 6361TIP3    H240499   0.248   3.369  13.631  1.7317  1.8855 -2.9209
 6362TIP3   OH240500   2.487   5.509  14.663 -0.3343 -0.0278 -0.1367
 6362TIP3    H140501   2.418   5.508  14.597 -0.9625  1.6676  0.4383
 6362TIP3    H240502   2.499   5.417  14.687 -2.4655 -0.3689 -0.1881
 6363TIP3   OH240503   0.640   2.256  13.477  0.6367  0.0865  0.3117
 6363TIP3    H140504   0.667   2.261  13.569  0.4525  0.7780  0.3320
 6363TIP3    H240505   0.625   2.163  13.462 -0.5501  0.0772  1.3327
 6364TIP3   OH240506   5.351   4.040  13.010 -0.3675 -0.2516  0.4063
 6364TIP3    H140507   5.367   4.133  13.027  3.6642 -0.6060 -0.4021
 6364TIP3    H240508   5.402   3.994  13.077 -0.9377 -1.8923 -0.2208
 6365TIP3   OH240509   1.168   4.267  14.237  0.2050 -0.2188  0.2718
 6365TIP3    H140510   1.153   4.223  14.153  0.3516  0.4797 -0.1324
 6365TIP3    H240511   1.140   4.358  14.221  1.7742  0.3253  0.4770
 6366TIP3   OH240512   0.543   6.359   0.821  0.3046  0.5771 -0.4907
 6366TIP3    H140513   0.619   6.308   0.793  0.3817  0.3898  0.0347
 6366TIP3    H240514   0.573   6.450   0.817  2.0195  0.4150  3.5731
 6367TIP3   OH240515   4.879   4.155  15.794  0.4003  0.1112 -0.1105
 6367TIP3    H140516   4.841   4.085  15.847 -1.5898  0.3574 -1.1039
 6367TIP3    H240517   4.960   4.119  15.760  0.8061 -0.6877  1.6010
 6368TIP3   OH240518   0.813   1.748   5.489 -0.8976 -0.2840 -0.2856
 6368TIP3    H140519   0.847   1.823   5.440  0.4771  0.4926  1.7285
 6368TIP3    H240520   0.730   1.779   5.526  0.0306  0.6142  1.1851
 6369TIP3   OH240521   2.877   5.774  16.015  0.2175  0.1824 -0.0974
 6369TIP3    H140522   2.902   5.803  15.928  1.7796 -1.6869 -0.3349
 6369TIP3    H240523   2.938   5.819  16.074 -0.0897  0.5560 -0.0576
 6370TIP3   OH240524   3.510   3.895   4.520 -0.1795 -0.2061 -0.0950
 6370TIP3    H140525   3.445   3.855   4.463  0.7258  1.9051 -2.8620
 6370TIP3    H240526   3.593   3.854   4.494 -0.0066 -0.8560  1.3983
 6371TIP3   OH240527   5.224   1.553   5.345  0.4208 -0.2363 -0.1291
 6371TIP3    H140528   5.279   1.476   5.357  0.3464 -0.3700 -0.6133
 6371TIP3    H240529   5.260   1.618   5.406 -0.2982 -1.0429  1.2122
 6372TIP3   OH240530   4.919   3.405  13.180  0.8016 -0.3686 -0.1502
 6372TIP3    H140531   4.830   3.424  13.210  0.5951 -0.1881 -0.8743
 6372TIP3    H240532   4.975   3.457  13.238  0.5762 -1.8752  1.5395
 6373TIP3   OH240533   2.517   2.394  14.346 -0.0739 -0.0528 -0.4227
 6373TIP3    H140534   2.451   2.456  14.378  0.6363  0.5827 -0.1361
 6373TIP3    H240535   2.467   2.322  14.308 -0.9965 -0.9297  2.2376
 6374TIP3   OH240536   2.603   6.150   4.673  0.3910  0.0442 -0.2494
 6374TIP3    H140537   2.522   6.168   4.721  1.8482  2.1136  1.6279
 6374TIP3    H240538   2.605   6.216   4.604  0.5102  0.0700 -0.2220
 6375TIP3   OH240539   6.431   4.676  13.140 -0.2621 -0.1781 -0.0164
 6375TIP3    H140540   6.394   4.759  13.109 -2.4269 -0.4823  1.5136
 6375TIP3    H240541   6.413   4.676  13.234  0.8091 -1.8562  0.2206
 6376TIP3   OH240542   6.227   2.913   4.172 -0.4670  0.1512 -0.3117
 6376TIP3    H140543   6.179   2.939   4.093 -1.1918  0.9882  0.3823
 6376TIP3    H240544   6.316   2.947   4.157 -0.8673  1.2405 -0.3300
 6377TIP3   OH240545   6.106   4.623   5.200 -0.3304  0.1597  0.0407
 6377TIP3    H140546   6.158   4.690   5.244  0.0668  0.4658 -0.8768
 6377TIP3    H240547   6.024   4.619   5.250 -0.4308  1.4500  0.0064
 6378TIP3   OH240548   2.347   3.847   1.134 -0.3033 -0.1146 -0.1307
 6378TIP3    H140549   2.335   3.866   1.227 -1.4266 -0.2199 -0.2424
 6378TIP3    H240550   2.258   3.837   1.100 -0.0979  2.9291 -1.8653
 6379TIP3   OH240551   4.148   4.400   4.687 -0.6073  0.5347 -0.3325
 6379TIP3    H140552   4.125   4.480   4.639 -2.0188  0.1954 -0.2586
 6379TIP3    H240553   4.171   4.337   4.619 -0.2272  0.7698 -0.4272
 6380TIP3   OH240554   3.232   4.868  16.116  0.4183 -0.1342 -0.0928
 6380TIP3    H140555   3.323   4.841  16.105  0.4546  0.3429 -1.0813
 6380TIP3    H240556   3.205   4.896  16.029 -1.3844 -2.3780 -0.3621
 6381TIP3   OH240557   0.229   5.726  15.911  0.9893  0.0754 -0.2624
 6381TIP3    H140558   0.140   5.703  15.883  1.0322 -1.6717  0.8545
 6381TIP3    H240559   0.278   5.736  15.829 -0.1420  0.7127 -0.8823
 6382TIP3   OH240560   0.463   3.886   6.011 -0.0242 -0.3251  0.1832
 6382TIP3    H140561   0.398   3.881   6.081  1.1887 -0.5722  1.3483
 6382TIP3    H240562   0.498   3.797   6.003  0.7480 -0.0336  0.1691
 6383TIP3   OH240563   0.615   4.728   1.233  0.0459 -0.1742  0.2264
 6383TIP3    H140564   0.582   4.748   1.320 -2.6124  2.7273 -1.2509
 6383TIP3    H240565   0.706   4.757   1.235  1.3126 -3.6291  2.9409
 6384TIP3   OH240566   2.490   3.410   4.922  0.2363 -0.2802 -0.0797
 6384TIP3    H140567   2.518   3.340   4.981 -1.5880 -0.0584  1.1186
 6384TIP3    H240568   2.484   3.488   4.977 -1.3750 -0.0345 -0.5258
 6385TIP3   OH240569   5.237   2.848   0.838 -0.1365  0.3743  0.1159
 6385TIP3    H140570   5.158   2.876   0.885 -0.9044 -0.8078 -0.4019
 6385TIP3    H240571   5.205   2.823   0.751  0.4644 -1.9329  0.4881
 6386TIP3   OH240572   0.642   5.210   2.479 -0.0130 -0.4430  0.1253
 6386TIP3    H140573   0.682   5.126   2.455 -1.2973 -0.7430 -1.1110
 6386TIP3    H240574   0.551   5.188   2.499  0.3027  0.2515  2.6659
 6387TIP3   OH240575   0.978   2.046  15.381  0.2081 -0.2909  0.2526
 6387TIP3    H140576   0.999   1.981  15.313  0.6907  0.0864  0.0373
 6387TIP3    H240577   0.994   2.000  15.463 -0.7084 -0.8627  0.1268
 6388TIP3   OH240578   3.278   0.465  16.290  0.2361  0.2738  0.5287
 6388TIP3    H140579   3.258   0.543  16.237  0.3317 -2.2854 -3.7472
 6388TIP3    H240580   3.193   0.435  16.321 -0.3041  0.0515 -1.0788
 6389TIP3   OH240581   1.649   3.343   2.400  0.1803 -0.2474  0.5981
 6389TIP3    H140582   1.608   3.339   2.487  0.6505 -0.1540  0.8316
 6389TIP3    H240583   1.728   3.395   2.414  0.9463 -1.3060  0.3963
 6390TIP3   OH240584   1.592   2.325   3.891 -0.3691  0.2567  0.4880
 6390TIP3    H140585   1.558   2.414   3.883  0.0573  0.2888 -1.3898
 6390TIP3    H240586   1.528   2.271   3.845  1.3833  0.1740 -2.0384
 6391TIP3   OH240587   5.584   3.481  12.779 -0.5411 -0.7419  0.4686
 6391TIP3    H140588   5.501   3.470  12.826  0.3696 -1.5947  1.9272
 6391TIP3    H240589   5.633   3.401  12.796 -0.2253 -1.2053 -2.1409
 6392TIP3   OH240590   3.458   2.588   3.110 -0.0077 -0.2956  0.0946
 6392TIP3    H140591   3.494   2.626   3.190  1.0453 -1.3873  0.1693
 6392TIP3    H240592   3.424   2.663   3.061  0.1812  0.4919  1.1359
 6393TIP3   OH240593   2.744   2.697   1.949  0.0557 -0.1946  0.2078
 6393TIP3    H140594   2.723   2.624   2.008  0.9756  0.2313  1.0825
 6393TIP3    H240595   2.686   2.767   1.976  0.0639 -0.1867  0.2044
 6394TIP3   OH240596   3.433   1.235  12.145  0.1621 -0.2385 -0.0479
 6394TIP3    H140597   3.377   1.265  12.216 -0.6258 -3.6978  1.0065
 6394TIP3    H240598   3.377   1.238  12.067  0.0370  0.6311  0.0647
 6395TIP3   OH240599   6.001   6.207  15.659 -0.5298  0.2028  0.7006
 6395TIP3    H140600   5.994   6.293  15.617 -0.6683 -0.0356  0.2277
 6395TIP3    H240601   5.938   6.211  15.731 -0.9807  0.2876  0.3079
 6396TIP3   OH240602   2.700   5.815   2.805 -0.3928  0.3860 -0.3177
 6396TIP3    H140603   2.739   5.819   2.892  1.9275  0.7669 -1.3105
 6396TIP3    H240604   2.612   5.852   2.817 -0.3014  0.0096  1.9201
 6397TIP3   OH240605   3.217   5.776   5.282  0.1718  0.3791 -0.1148
 6397TIP3    H140606   3.260   5.850   5.324  2.2595 -2.0059  2.3807
 6397TIP3    H240607   3.155   5.744   5.346 -0.1141 -0.4984 -0.7971
 6398TIP3   OH240608   4.436   0.333   2.370  0.0287 -0.1809 -0.0376
 6398TIP3    H140609   4.458   0.347   2.462 -0.7827  2.2763 -0.1388
 6398TIP3    H240610   4.341   0.322   2.369 -0.1660  1.3043 -0.6722
 6399TIP3   OH240611   6.520   0.712  14.971  0.0945 -0.0852  0.4575
 6399TIP3    H140612   6.538   0.726  14.878  1.5065 -0.4071  0.6630
 6399TIP3    H240613   6.539   0.619  14.986  1.0730  0.2404  1.3234
 6400TIP3   OH240614   6.637   5.104  14.472 -0.0506  0.3771 -0.4221
 6400TIP3    H140615   6.610   5.134  14.558 -0.6725 -0.8136 -0.1765
 6400TIP3    H240616   6.613   5.011  14.470  0.5449  0.2211 -1.6351
 6401TIP3   OH240617   2.714   1.323   1.691 -0.0394  0.0723  0.1092
 6401TIP3    H140618   2.789   1.342   1.747 -0.6882  3.1513  0.1526
 6401TIP3    H240619   2.744   1.257   1.630  2.2558  0.2269  0.9998
 6402TIP3   OH240620   0.223   6.223   1.475 -0.3023  0.0106 -0.5922
 6402TIP3    H140621   0.240   6.154   1.540 -1.3993  2.0342  2.0567
 6402TIP3    H240622   0.152   6.189   1.422 -1.7859 -0.4605  1.5526
 6403TIP3   OH240623   6.640   0.254   3.218  0.8178  0.6616  0.1086
 6403TIP3    H140624   6.669   0.165   3.199  0.8684  0.4613  1.0945
 6403TIP3    H240625   6.710   0.291   3.271  0.2495  0.8820  0.7140
 6404TIP3   OH240626   3.903   3.974  16.615  0.1038  0.3174 -0.2309
 6404TIP3    H140627   3.892   4.057  16.569 -0.7214  0.6720  0.5833
 6404TIP3    H240628   3.859   3.986  16.699  1.0108 -0.5397  0.4002
 6405TIP3   OH240629   6.417   2.796   1.466 -0.7543  0.1741 -0.1637
 6405TIP3    H140630   6.476   2.867   1.492 -0.1128 -0.5032  0.2986
 6405TIP3    H240631   6.441   2.778   1.375 -1.3833  0.9862 -0.5002
 6406TIP3   OH240632   0.844   4.364  12.297 -0.5036 -0.2613  0.1908
 6406TIP3    H140633   0.903   4.320  12.236 -1.6079  0.3071 -1.3631
 6406TIP3    H240634   0.783   4.295  12.325 -1.8331  0.0413 -1.7370
 6407TIP3   OH240635   0.669   4.316   3.464 -0.1098  0.9354  0.3227
 6407TIP3    H140636   0.715   4.388   3.422 -0.2095  0.9767  0.2838
 6407TIP3    H240637   0.578   4.345   3.468 -0.4836  0.0893 -1.2702
 6408TIP3   OH240638   1.523   1.653   2.440  0.1166 -0.0320 -0.2314
 6408TIP3    H140639   1.543   1.613   2.356 -0.0857 -0.2687 -0.1690
 6408TIP3    H240640   1.432   1.682   2.432 -1.2882 -3.4504  1.1467
 6409TIP3   OH240641   1.304   6.184  15.951 -0.4410  0.1980  0.1447
 6409TIP3    H140642   1.287   6.091  15.966 -1.3415  0.4608  0.8552
 6409TIP3    H240643   1.395   6.187  15.921 -1.1155 -1.1332 -2.2719
 6410TIP3   OH240644   5.361   1.979  11.467  0.5382 -0.1161  0.0264
 6410TIP3    H140645   5.342   1.895  11.425 -3.0154 -0.6655  2.2703
 6410TIP3    H240646   5.414   1.957  11.544 -1.4489 -0.6400  1.3345
 6411TIP3   OH240647   1.960   0.938  15.268 -0.4442 -0.1878  0.9355
 6411TIP3    H140648   2.027   0.985  15.317 -0.3683  0.1988  0.4730
 6411TIP3    H240649   1.964   0.849  15.301  1.1297 -0.4673  0.1021
 6412TIP3   OH240650   4.680   5.008  13.726  0.0909 -0.1738 -0.0222
 6412TIP3    H140651   4.693   5.036  13.635 -0.7919 -0.8125 -0.3545
 6412TIP3    H240652   4.768   4.989  13.758  0.2587 -1.8481 -1.3730
 6413TIP3   OH240653   1.849   6.728  15.893  0.6544 -0.0946  0.2727
 6413TIP3    H140654   1.870   6.696  15.981  1.7549  0.0635  0.0853
 6413TIP3    H240655   1.838   6.823  15.905  1.7246  0.0651  0.1002
 6414TIP3   OH240656   4.500   1.885  13.990 -0.5086  0.6689 -0.1207
 6414TIP3    H140657   4.437   1.813  13.999 -0.8007  0.7857 -1.0779
 6414TIP3    H240658   4.585   1.842  13.981 -0.5941  0.4734 -0.0079
 6415TIP3   OH240659   4.302   3.694  12.629 -0.0967 -0.6002 -0.3820
 6415TIP3    H140660   4.217   3.675  12.589 -0.1626 -0.0261 -0.5256
 6415TIP3    H240661   4.281   3.740  12.711  0.0179 -2.3495  0.6695
 6416TIP3   OH240662   1.717   5.743   0.324  0.5783  0.3530  0.1752
 6416TIP3    H140663   1.661   5.686   0.271 -0.4628 -0.0793  1.6409
 6416TIP3    H240664   1.798   5.752   0.274  0.3764 -1.5861 -0.5793
 6417TIP3   OH240665   5.347   5.381   0.701 -0.3970 -0.7613  0.0248
 6417TIP3    H140666   5.425   5.398   0.648 -0.7442 -2.9651 -1.3638
 6417TIP3    H240667   5.275   5.420   0.651 -0.2591  1.0848  1.1989
 6418TIP3   OH240668   6.732   1.503   5.239  0.5093 -0.1561  0.3152
 6418TIP3    H140669   6.818   1.469   5.264  1.8322  2.4421 -0.4363
 6418TIP3    H240670   6.740   1.598   5.246 -2.3482  0.1783  0.2571
 6419TIP3   OH240671   6.249   0.589  12.171 -1.0222 -0.1836  0.1503
 6419TIP3    H140672   6.300   0.616  12.094 -1.0157 -0.1398  0.1699
 6419TIP3    H240673   6.244   0.493  12.164  0.0833 -0.3005  0.7921
 6420TIP3   OH240674   0.725   6.460   5.621  0.1773 -0.4528 -0.1106
 6420TIP3    H140675   0.755   6.461   5.712 -0.4069  1.0973  0.0945
 6420TIP3    H240676   0.764   6.381   5.584  0.1605 -1.2930  1.5678
 6421TIP3   OH240677   3.721   3.237   1.967  0.3814  0.0273  0.2759
 6421TIP3    H140678   3.801   3.289   1.961 -0.1248  0.8339  0.3886
 6421TIP3    H240679   3.650   3.299   1.947 -0.0646 -1.2853 -2.6693
 6422TIP3   OH240680   0.982   4.769   1.608 -0.0118  0.7886 -0.0537
 6422TIP3    H140681   0.977   4.738   1.517  0.1550 -0.4634  0.3416
 6422TIP3    H240682   1.076   4.778   1.625  0.0124 -0.0137  0.3069
 6423TIP3   OH240683   2.116   5.130   5.672 -0.0433  0.1844 -0.7162
 6423TIP3    H140684   2.114   5.035   5.660  0.6872 -0.2194  1.7371
 6423TIP3    H240685   2.024   5.157   5.666 -0.4797 -0.9807  0.3070
 6424TIP3   OH240686   0.821   6.577   1.306 -0.2450  0.1146 -0.4235
 6424TIP3    H140687   0.760   6.590   1.233  0.1173  0.7897 -0.6120
 6424TIP3    H240688   0.789   6.634   1.375 -0.7626 -0.7482  0.0711
 6425TIP3   OH240689   4.025   4.585   4.537  0.2502 -0.0179  0.5529
 6425TIP3    H140690   4.055   4.634   4.460  0.1625 -2.0413 -0.8203
 6425TIP3    H240691   3.931   4.576   4.524  0.1213  0.2162  1.2760
 6426TIP3   OH240692   3.486   0.666  11.576 -0.0922  0.2293  0.3857
 6426TIP3    H140693   3.493   0.626  11.489  0.7080  1.4857 -0.1604
 6426TIP3    H240694   3.432   0.605  11.626 -0.7608 -0.4159 -1.0539
 6427TIP3   OH240695   5.587   0.586   2.286  0.2362  0.0955 -0.1953
 6427TIP3    H140696   5.620   0.549   2.368  0.1211 -0.4159 -0.3741
 6427TIP3    H240697   5.657   0.645   2.256  0.0817  0.6458  0.5001
 6428TIP3   OH240698   6.426   3.439  11.681  0.0353 -0.2373  0.9633
 6428TIP3    H140699   6.495   3.392  11.633 -0.3558  1.1819 -1.1293
 6428TIP3    H240700   6.350   3.435  11.623 -0.9964  0.1148  2.2523
 6429TIP3   OH240701   2.362   4.743   6.369  0.0477 -0.1147  0.1729
 6429TIP3    H140702   2.400   4.826   6.399 -0.3048 -0.0870  0.5596
 6429TIP3    H240703   2.333   4.761   6.280 -1.3521  0.6360  0.7466
 6430TIP3   OH240704   6.294   2.309  16.440  0.1286 -0.0978 -0.8843
 6430TIP3    H140705   6.307   2.384  16.498 -1.3665  0.1200 -0.7826
 6430TIP3    H240706   6.350   2.241  16.476  0.4238  0.5232 -0.1335
 6431TIP3   OH240707   0.584   0.512   3.502  0.1273 -0.2867 -0.2700
 6431TIP3    H140708   0.678   0.532   3.506  0.1319 -0.3300 -0.1395
 6431TIP3    H240709   0.541   0.595   3.521  0.1240 -0.0325 -1.3442
 6432TIP3   OH240710   2.283   4.363   0.997 -0.4387  0.7945 -0.6484
 6432TIP3    H140711   2.271   4.277   1.038  5.5513  0.5636  1.5819
 6432TIP3    H240712   2.298   4.344   0.905 -0.8854 -0.2810 -0.5196
 6433TIP3   OH240713   3.068   4.209  12.290  0.8549 -0.1792 -0.1487
 6433TIP3    H140714   3.113   4.289  12.315  0.2307 -0.0392  0.5461
 6433TIP3    H240715   3.018   4.184  12.367  1.6385 -1.6708 -0.0986
 6434TIP3   OH240716   1.512   4.434   4.102 -0.1422 -0.8376 -0.1396
 6434TIP3    H140717   1.418   4.424   4.117 -0.2677 -0.6996 -0.8198
 6434TIP3    H240718   1.552   4.419   4.188 -0.8921  0.6575  0.4860
 6435TIP3   OH240719   3.151   2.109   3.888 -0.4685 -0.1066  0.6759
 6435TIP3    H140720   3.106   2.194   3.893  0.5304  0.5358 -0.6696
 6435TIP3    H240721   3.082   2.045   3.905 -1.9113  0.8605 -1.0799
 6436TIP3   OH240722   0.007   1.461  15.385  0.2344 -0.1814 -0.1136
 6436TIP3    H140723   0.064   1.398  15.429 -1.3959 -0.9989  0.9282
 6436TIP3    H240724   0.056   1.543  15.387  1.4205 -0.8867  0.6240
 6437TIP3   OH240725   5.588   1.318  11.097 -0.0287  0.1694  0.2175
 6437TIP3    H140726   5.574   1.239  11.150  0.7374 -0.8743 -1.0658
 6437TIP3    H240727   5.610   1.386  11.160 -0.3444 -0.7294  1.3293
 6438TIP3   OH240728   3.235   5.428  17.038  0.7973 -0.2139  0.0050
 6438TIP3    H140729   3.197   5.449  16.953  0.5516  0.7785  0.3446
 6438TIP3    H240730   3.179   5.474  17.101  1.8388  0.2826  0.5994
 6439TIP3   OH240731   6.131   1.882   0.773  0.1618 -0.5456 -0.2048
 6439TIP3    H140732   6.103   1.793   0.795 -1.2563 -0.4847 -1.5799
 6439TIP3    H240733   6.076   1.939   0.827  0.3299 -0.4892 -0.0935
 6440TIP3   OH240734   5.036   3.103   0.711  0.1178 -0.0718  0.0872
 6440TIP3    H140735   5.025   3.024   0.658  1.3234 -0.2775  0.0934
 6440TIP3    H240736   5.081   3.165   0.653  0.2381  0.1831  0.4490
 6441TIP3   OH240737   6.488   1.754   4.821  0.2662  0.4112 -0.0052
 6441TIP3    H140738   6.450   1.782   4.904 -0.7483  1.2804 -0.7376
 6441TIP3    H240739   6.547   1.826   4.796  1.2056 -0.2165  0.3439
 6442TIP3   OH240740   2.226   0.210  15.437 -0.6421  0.0300 -0.5633
 6442TIP3    H140741   2.314   0.229  15.404 -0.4161  0.4548  0.2299
 6442TIP3    H240742   2.181   0.295  15.434 -0.8292 -0.0638 -0.4260
 6443TIP3   OH240743   2.980   6.699   2.932  0.0368 -0.2297  0.3188
 6443TIP3    H140744   2.951   6.707   2.841  0.9566 -1.9877 -0.1674
 6443TIP3    H240745   3.059   6.646   2.928  0.5269  0.2982  2.0924
 6444TIP3   OH240746   2.848   6.473   1.702 -0.2499  0.5899 -0.8740
 6444TIP3    H140747   2.755   6.493   1.707 -0.1594  1.1492 -1.3065
 6444TIP3    H240748   2.883   6.498   1.787 -0.1131  2.4955 -1.4442
 6445TIP3   OH240749   0.889   5.666   4.998  0.4703  0.3085 -0.1367
 6445TIP3    H140750   0.848   5.664   5.084  1.4321 -1.0417  0.3091
 6445TIP3    H240751   0.815   5.680   4.938 -0.7150 -1.9178  0.6520
 6446TIP3   OH240752   0.563   2.610  11.621 -0.5245  0.4549 -0.6076
 6446TIP3    H140753   0.525   2.522  11.622 -1.8193  0.9859 -0.9653
 6446TIP3    H240754   0.531   2.649  11.540  1.0394  0.8591 -1.0748
 6447TIP3   OH240755   2.317   5.794  12.568 -0.3562 -0.0707  0.5240
 6447TIP3    H140756   2.233   5.779  12.526 -0.8167 -0.0638  1.4250
 6447TIP3    H240757   2.297   5.800  12.662  0.7113 -0.6080  0.8069
 6448TIP3   OH240758   2.805   1.027  17.338  0.1089  0.1929 -0.5297
 6448TIP3    H140759   2.845   0.966  17.276  0.2510 -1.1898  0.8702
 6448TIP3    H240760   2.844   1.004  17.423 -0.8247  1.3706  0.2531
 6449TIP3   OH240761   3.969   0.127   6.045 -0.1120 -0.2489  0.3009
 6449TIP3    H140762   3.927   0.193   6.101  1.3210 -0.0965  1.2576
 6449TIP3    H240763   4.057   0.159   6.032  1.4474 -2.9859  2.7530
 6450TIP3   OH240764   3.420   1.384   6.555 -0.7184  0.4355 -0.0423
 6450TIP3    H140765   3.344   1.326   6.567 -0.2431 -0.1522  0.1642
 6450TIP3    H240766   3.496   1.327   6.567 -0.2212  1.3889  1.5815
 6451TIP3   OH240767   6.651   0.474  11.037  0.1348 -0.5360  0.0466
 6451TIP3    H140768   6.620   0.534  10.969  0.8359  0.8731  0.9318
 6451TIP3    H240769   6.724   0.428  10.997  0.3482  0.0667 -0.2699
 6452TIP3   OH240770   5.895   4.189   3.521 -0.5903  0.3577  0.1122
 6452TIP3    H140771   5.963   4.145   3.572 -0.3077 -0.1580 -0.7035
 6452TIP3    H240772   5.823   4.126   3.517  0.3193 -0.6415 -2.1947
 6453TIP3   OH240773   5.865   3.944   0.052 -0.4344 -0.3701  0.5169
 6453TIP3    H140774   5.875   4.019  -0.006  0.2711  0.3747  1.5620
 6453TIP3    H240775   5.872   3.868  -0.005 -1.0473  0.3493 -0.5434
 6454TIP3   OH240776   6.409   0.115  12.560 -0.6400 -0.6365 -0.2421
 6454TIP3    H140777   6.451   0.123  12.646  0.0632 -0.2243 -0.6145
 6454TIP3    H240778   6.372   0.027  12.559 -1.1309 -0.4455  0.6962
 6455TIP3   OH240779   3.651   1.827  12.192 -0.1575 -0.2346 -0.0216
 6455TIP3    H140780   3.707   1.782  12.129 -0.2474 -0.0548 -0.2342
 6455TIP3    H240781   3.711   1.872  12.251 -0.0185 -1.8777  1.1504
 6456TIP3   OH240782   2.421   3.153  12.830  0.3134  0.2365  0.0630
 6456TIP3    H140783   2.336   3.192  12.850 -1.1289 -1.8672 -1.4062
 6456TIP3    H240784   2.442   3.100  12.907  0.0264  0.3504  0.2196
 6457TIP3   OH240785   3.487   1.560  12.915 -0.0554  0.2630 -0.0757
 6457TIP3    H140786   3.462   1.492  12.851  0.1557  0.6995 -0.6333
 6457TIP3    H240787   3.406   1.578  12.962 -1.2135  2.4573 -2.6126
 6458TIP3   OH240788   4.695   4.706   2.980 -0.3514 -0.3505  0.1836
 6458TIP3    H140789   4.621   4.659   3.019 -0.4385  1.1282  1.9541
 6458TIP3    H240790   4.768   4.643   2.983 -1.2472 -1.4633 -0.6223
 6459TIP3   OH240791   6.416   0.089  13.544 -0.2431  0.8734 -0.8820
 6459TIP3    H140792   6.495   0.074  13.596 -0.1520  0.4277 -1.1489
 6459TIP3    H240793   6.384   0.002  13.523 -1.2983  1.0347 -0.0377
 6460TIP3   OH240794   4.738   1.601  16.453  0.1694 -0.3422 -0.0446
 6460TIP3    H140795   4.705   1.519  16.415 -0.2491 -0.3185  0.2582
 6460TIP3    H240796   4.665   1.662  16.445  0.7697  0.2669 -1.0561
 6461TIP3   OH240797   1.945   3.672  16.541 -0.1269 -0.0776  0.4591
 6461TIP3    H140798   1.864   3.680  16.491 -0.1005  0.1374  0.4500
 6461TIP3    H240799   1.917   3.644  16.628 -0.2705  0.6378  0.6513
 6462TIP3   OH240800   4.744   3.405   5.787  0.3158  0.1002  0.1882
 6462TIP3    H140801   4.717   3.495   5.808  0.5838 -0.2195  2.0637
 6462TIP3    H240802   4.662   3.356   5.784  0.1890  0.3406 -0.6080
 6463TIP3   OH240803   6.468   3.963   0.477 -0.1198 -0.2680 -0.6275
 6463TIP3    H140804   6.494   3.969   0.569  1.8252  0.0672 -1.1562
 6463TIP3    H240805   6.407   4.035   0.465  3.2757  2.8805 -0.6720
 6464TIP3   OH240806   6.198   4.163   2.065  0.4224  0.2033  0.1025
 6464TIP3    H140807   6.261   4.164   2.138  0.8812  1.3131 -0.2814
 6464TIP3    H240808   6.242   4.113   1.996  0.4426  0.0893  0.1967
 6465TIP3   OH240809   1.549   4.208  11.026  0.5771  0.0409 -0.0930
 6465TIP3    H140810   1.609   4.269  10.984  3.1378 -0.0992  2.9761
 6465TIP3    H240811   1.605   4.140  11.062 -1.7521 -1.7196  0.4381
 6466TIP3   OH240812   3.773   2.229   5.283 -0.3043 -0.2103  0.4169
 6466TIP3    H140813   3.765   2.303   5.343 -0.3276 -0.8096  1.1671
 6466TIP3    H240814   3.750   2.153   5.336 -2.8592 -0.5342 -0.9769
 6467TIP3   OH240815   0.254   4.608  12.368 -0.3865  0.2713  0.1373
 6467TIP3    H140816   0.217   4.578  12.285  2.1955 -0.6545 -0.8162
 6467TIP3    H240817   0.220   4.696  12.380 -0.4734  0.6266 -2.1907
 6468TIP3   OH240818   4.598   3.885   6.232  0.1061 -0.3553  0.9553
 6468TIP3    H140819   4.620   3.977   6.237  0.4041 -0.4512  1.4021
 6468TIP3    H240820   4.511   3.883   6.193  0.4772  0.0688  0.0820
 6469TIP3   OH240821   1.792   2.822  13.023 -0.2506 -0.4301  0.5946
 6469TIP3    H140822   1.841   2.780  12.952  1.5291 -0.4611  1.7730
 6469TIP3    H240823   1.785   2.914  12.996  0.2309 -0.4790  0.2812
 6470TIP3   OH240824   6.124   5.670  17.002 -0.6476  0.2594 -0.2265
 6470TIP3    H140825   6.118   5.616  16.923  0.3526  1.3585 -1.0800
 6470TIP3    H240826   6.190   5.736  16.982 -0.5801  0.7476  1.4337
 6471TIP3   OH240827   4.383   5.692   4.472 -0.5301  0.2998 -0.3962
 6471TIP3    H140828   4.337   5.610   4.493 -1.1242  0.9993  1.1755
 6471TIP3    H240829   4.476   5.670   4.482 -0.7198  0.1704  1.6320
 6472TIP3   OH240830   1.116   4.815   0.454 -0.2960 -0.1176  0.0140
 6472TIP3    H140831   1.102   4.749   0.385 -1.3444 -0.3903  0.4727
 6472TIP3    H240832   1.047   4.798   0.518  0.2563  0.5670  0.8124
 6473TIP3   OH240833   4.091   0.016  12.823 -0.1286 -0.8439 -0.3731
 6473TIP3    H140834   4.014   0.070  12.844 -0.3747 -1.3870  0.1467
 6473TIP3    H240835   4.053  -0.065  12.788  0.2348 -0.7860 -0.9105
 6474TIP3   OH240836   1.136   0.617  16.229 -0.5801  0.2114 -0.1170
 6474TIP3    H140837   1.156   0.703  16.192 -0.2752 -0.3579 -1.3089
 6474TIP3    H240838   1.054   0.592  16.187 -1.7009  0.7219  1.6499
 6475TIP3   OH240839   6.007   0.201   5.191 -0.0448  0.0712  0.2772
 6475TIP3    H140840   6.045   0.288   5.199 -1.2720  0.7528 -0.9339
 6475TIP3    H240841   6.054   0.161   5.117  0.5609 -0.3571  0.8698
 6476TIP3   OH240842   0.128   2.502   5.627 -0.3061  0.4097  0.6441
 6476TIP3    H140843   0.058   2.497   5.691 -0.6001 -1.3664  0.2429
 6476TIP3    H240844   0.202   2.458   5.668 -0.4977 -0.7447 -0.1916
 6477TIP3   OH240845   3.366   5.837   4.354  0.2125  0.0474 -0.2108
 6477TIP3    H140846   3.321   5.913   4.390 -0.4306 -0.9805  1.3049
 6477TIP3    H240847   3.448   5.831   4.405 -0.4147 -1.0682  0.7272
 6478TIP3   OH240848   4.255   5.845  12.617  0.1939  0.2059  0.4745
 6478TIP3    H140849   4.309   5.877  12.545 -0.2839  2.7438  1.1528
 6478TIP3    H240850   4.317   5.823  12.686  0.5461 -0.5308 -0.0613
 6479TIP3   OH240851   1.213   3.272   2.193  0.1939 -0.0047 -0.2405
 6479TIP3    H140852   1.242   3.268   2.284  0.6604 -0.5835 -0.4125
 6479TIP3    H240853   1.269   3.211   2.147 -0.3624 -0.0763 -0.8353
 6480TIP3   OH240854   4.789   6.678   1.620  0.7385 -0.1862  0.0314
 6480TIP3    H140855   4.745   6.615   1.676  0.7814 -0.2102  0.0377
 6480TIP3    H240856   4.878   6.684   1.654  0.6148  0.2012  0.3019
 6481TIP3   OH240857   2.842   4.586  13.431 -0.3901 -0.2522  0.2922
 6481TIP3    H140858   2.801   4.672  13.445 -0.4023 -0.0071 -1.1148
 6481TIP3    H240859   2.928   4.607  13.394 -0.0773 -0.8311  0.6911
 6482TIP3   OH240860   4.163   1.006   6.283 -0.1097  0.0370  0.3040
 6482TIP3    H140861   4.193   1.009   6.374 -0.8869  2.1822  0.5571
 6482TIP3    H240862   4.162   0.913   6.261  1.5239 -0.4511  1.9829
 6483TIP3   OH240863   6.473   0.763  12.586 -0.1053 -0.1900 -0.3260
 6483TIP3    H140864   6.540   0.736  12.649 -0.4938 -0.7453 -0.1495
 6483TIP3    H240865   6.410   0.692  12.586 -1.3465  0.8776  0.4387
 6484TIP3   OH240866   1.580   4.299  14.091  0.2391  0.2774  0.3474
 6484TIP3    H140867   1.622   4.327  14.010 -0.9698  1.5134  0.0991
 6484TIP3    H240868   1.652   4.273  14.148  1.1425 -0.1750 -0.9520
 6485TIP3   OH240869   6.152   0.312  16.874 -0.1870 -0.1322 -0.4036
 6485TIP3    H140870   6.144   0.217  16.870 -1.1795 -0.1434  0.9517
 6485TIP3    H240871   6.086   0.339  16.937 -0.7194  1.5838 -1.6146
 6486TIP3   OH240872   1.684   2.807   0.092 -0.1091  0.3507  0.5623
 6486TIP3    H140873   1.639   2.862   0.027  0.5600  0.2467  0.0072
 6486TIP3    H240874   1.756   2.862   0.124  0.0834  0.0835  0.5855
 6487TIP3   OH240875   3.996   0.475  14.294 -0.4330  0.2757 -0.1892
 6487TIP3    H140876   3.979   0.567  14.275  1.1630  1.2062  2.3953
 6487TIP3    H240877   3.922   0.447  14.347 -0.5483  0.2893 -0.3425
 6488TIP3   OH240878   0.381   5.286   6.595  0.7498 -0.2967  0.0216
 6488TIP3    H140879   0.351   5.269   6.685 -3.5644 -0.8821 -1.3051
 6488TIP3    H240880   0.362   5.205   6.548  0.0900  0.9749 -2.0042
 6489TIP3   OH240881   3.948   6.635   1.723 -0.1024 -0.5210 -0.4627
 6489TIP3    H140882   3.855   6.658   1.734 -0.1182 -1.2854  1.3208
 6489TIP3    H240883   3.992   6.720   1.714 -0.7497  0.0137  0.9414
 6490TIP3   OH240884   6.450   1.593  14.650 -0.0022 -0.1115  0.0188
 6490TIP3    H140885   6.391   1.576  14.577 -0.9497  2.1886  0.1487
 6490TIP3    H240886   6.536   1.565  14.619 -0.8869 -2.2622 -0.6883
 6491TIP3   OH240887   2.566   5.619   0.859 -0.5400  0.4813  0.0087
 6491TIP3    H140888   2.565   5.715   0.867 -0.7049  0.3613  1.5874
 6491TIP3    H240889   2.654   5.599   0.827 -0.2448  1.1027  0.4200
 6492TIP3   OH240890   0.022   1.919   6.016 -0.5314 -0.2829 -0.3228
 6492TIP3    H140891   0.099   1.923   6.072 -0.6597 -2.6802  0.1419
 6492TIP3    H240892   0.056   1.917   5.927 -0.2372  1.6989 -0.2855
 6493TIP3   OH240893   5.189   0.790  14.940  0.5366 -0.0899  0.0100
 6493TIP3    H140894   5.176   0.864  14.999  0.3128  0.1252 -0.3070
 6493TIP3    H240895   5.227   0.721  14.995  0.0151 -0.0072  0.4794
 6494TIP3   OH240896   4.900   0.267  14.539  0.0626  0.1200 -0.2129
 6494TIP3    H140897   4.818   0.307  14.512  0.4517 -0.8632 -3.2848
 6494TIP3    H240898   4.966   0.333  14.521  0.2374 -0.2185 -0.8469
 6495TIP3   OH240899   3.497   3.154   4.281  0.0611  0.1966  0.7574
 6495TIP3    H140900   3.505   3.164   4.186 -0.4946 -0.3719  0.6460
 6495TIP3    H240901   3.583   3.125   4.309  0.1840  0.2115  0.4096
 6496TIP3   OH240902   4.595   3.175  14.097  0.0015  0.0144 -0.2925
 6496TIP3    H140903   4.671   3.138  14.052 -0.0737  1.5982 -1.8541
 6496TIP3    H240904   4.632   3.235  14.162  0.0912 -1.5396  1.1532
 6497TIP3   OH240905   0.260   3.191   0.368  0.1437 -0.3692 -0.2161
 6497TIP3    H140906   0.172   3.214   0.339 -0.3534 -0.2490  1.2756
 6497TIP3    H240907   0.270   3.235   0.453  1.1476 -1.4012  0.2361
 6498TIP3   OH240908   4.859   3.140   5.095  0.0666 -0.5071  0.1775
 6498TIP3    H140909   4.875   3.136   5.001  0.7208 -1.2182  0.3130
 6498TIP3    H240910   4.935   3.185   5.131 -0.4922  0.3555  0.2999
 6499TIP3   OH240911   2.258   3.730   5.043 -0.4017  0.4828  0.8862
 6499TIP3    H140912   2.352   3.717   5.052 -0.2359  0.9252 -0.0665
 6499TIP3    H240913   2.220   3.686   5.118  0.4221 -1.7080  0.0972
 6500TIP3   OH240914   2.885   5.105  12.393  0.9889 -0.1786 -0.0819
 6500TIP3    H140915   2.901   5.014  12.418  3.3805 -0.3314 -1.8505
 6500TIP3    H240916   2.863   5.101  12.300  0.0996  0.9790  0.0678
 6501TIP3   OH240917   5.639   0.212  12.328 -0.2444 -0.2547 -0.1012
 6501TIP3    H140918   5.569   0.193  12.265 -0.3975 -0.2747  0.0759
 6501TIP3    H240919   5.717   0.222  12.274 -0.1779 -1.2701 -0.2109
 6502TIP3   OH240920   2.858   5.971  15.007  0.8476  0.5848 -0.2792
 6502TIP3    H140921   2.810   5.940  15.083  0.8087  0.4512 -0.3588
 6502TIP3    H240922   2.839   5.907  14.938  0.1876  1.1702 -0.6529
 6503TIP3   OH240923   1.600   0.157  12.097 -0.1681 -0.1661 -0.1108
 6503TIP3    H140924   1.588   0.233  12.153 -3.3937 -1.4296  1.1711
 6503TIP3    H240925   1.655   0.098  12.147 -1.4207 -0.4791  0.9557
 6504TIP3   OH240926   2.959   5.492   0.075  0.1684 -0.1781 -0.0782
 6504TIP3    H140927   3.026   5.457   0.134  1.5141 -1.4216 -2.2049
 6504TIP3    H240928   2.876   5.467   0.115  1.0243 -0.7361  1.4114
 6505TIP3   OH240929   0.968   6.538   0.470 -0.2450 -0.0945  0.2775
 6505TIP3    H140930   1.055   6.523   0.433  0.3709  1.5246  0.9981
 6505TIP3    H240931   0.984   6.579   0.555 -1.6840 -1.5374  1.3256
 6506TIP3   OH240932   4.297   1.274  13.763  0.1789  0.4737  0.0693
 6506TIP3    H140933   4.305   1.368  13.777  0.0380  0.6175 -0.7930
 6506TIP3    H240934   4.229   1.265  13.697 -0.6206 -0.2996  0.9644
 6507TIP3   OH240935   4.288   2.688   6.092  0.1374  0.0128  0.2665
 6507TIP3    H140936   4.309   2.610   6.144 -0.1644  0.2688  0.7765
 6507TIP3    H240937   4.373   2.721   6.063  0.2305 -0.9368 -0.5948
 6508TIP3   OH240938   6.326   5.254   1.581  0.4359  0.1077  0.4691
 6508TIP3    H140939   6.271   5.177   1.595  0.1079  0.2012 -0.2770
 6508TIP3    H240940   6.387   5.228   1.511  1.4714 -0.0604  1.4083
 6509TIP3   OH240941   4.124   2.459   4.924 -0.6437  0.4333 -0.1793
 6509TIP3    H140942   4.152   2.417   5.005  0.1752  2.2352  0.5334
 6509TIP3    H240943   4.044   2.412   4.899 -1.1064  0.0399  1.8523
 6510TIP3   OH240944   0.980   5.082   5.085  0.2819  0.2137 -0.0807
 6510TIP3    H140945   0.978   5.087   4.989  1.7313  0.0296 -0.1483
 6510TIP3    H240946   0.984   5.173   5.113 -0.2310  0.2719 -0.1890
 6511TIP3   OH240947   1.511   2.022   1.390 -0.7602 -0.1163  0.1691
 6511TIP3    H140948   1.507   2.117   1.392  1.4026  0.0490 -0.3126
 6511TIP3    H240949   1.571   2.002   1.317 -0.4360 -1.7892  0.8361
 6512TIP3   OH240950   5.352   2.372   2.823  0.7728  0.0587 -0.3048
 6512TIP3    H140951   5.282   2.399   2.764  0.0815 -1.7800 -0.3818
 6512TIP3    H240952   5.388   2.293   2.783  1.4798 -0.2134  0.8179
 6513TIP3   OH240953   4.229   0.209   6.010  0.2235 -0.9534 -0.6724
 6513TIP3    H140954   4.259   0.254   5.931  2.9993 -1.0592  0.2276
 6513TIP3    H240955   4.308   0.170   6.048 -1.1358 -1.6226  1.7235
 6514TIP3   OH240956   1.340   3.574  12.733  0.0365  0.1278  0.0061
 6514TIP3    H140957   1.261   3.587  12.784 -0.1051 -2.0145  0.4352
 6514TIP3    H240958   1.411   3.601  12.791 -0.1430 -2.0021  1.3175
 6515TIP3   OH240959   2.283   2.331   5.857  0.1392 -0.6862 -0.4302
 6515TIP3    H140960   2.208   2.358   5.910 -0.0973  1.7666 -1.8573
 6515TIP3    H240961   2.359   2.357   5.908 -0.0421 -0.4681 -0.2715
 6516TIP3   OH240962   2.540   2.429   4.555  0.1461 -0.6742 -0.2869
 6516TIP3    H140963   2.536   2.340   4.523  1.0278 -1.2714  1.1481
 6516TIP3    H240964   2.484   2.479   4.496 -1.8415 -2.4916 -0.0554
 6517TIP3   OH240965   2.481   3.071  13.096  0.2604  0.3310 -0.1600
 6517TIP3    H140966   2.439   3.157  13.095 -0.5526 -0.0317  0.5993
 6517TIP3    H240967   2.528   3.068  13.180  0.5432  0.1615 -0.3231
 6518TIP3   OH240968   1.480   5.119   3.051  0.5766  0.4441 -0.6267
 6518TIP3    H140969   1.387   5.113   3.071  1.0439  0.3525  1.8742
 6518TIP3    H240970   1.502   5.034   3.014  0.0825 -0.3628  0.8658
 6519TIP3   OH240971   2.756   0.037   3.801 -0.0348  0.3485 -0.1278
 6519TIP3    H140972   2.710   0.076   3.875 -1.1070  1.4253 -1.3191
 6519TIP3    H240973   2.696  -0.029   3.767  0.7550 -0.6617  0.3764
 6520TIP3   OH240974   2.397   1.318   3.231  0.1819  0.1316 -0.2569
 6520TIP3    H140975   2.459   1.282   3.167  0.0608  1.2292 -1.0306
 6520TIP3    H240976   2.347   1.243   3.262  2.9781 -1.0826  1.6750
 6521TIP3   OH240977   5.816   0.259  15.669  0.0823 -0.4874  0.0730
 6521TIP3    H140978   5.813   0.176  15.621  0.5325 -0.1115 -0.6158
 6521TIP3    H240979   5.859   0.320  15.609  3.1017 -0.6416  1.8732
 6522TIP3   OH240980   2.714   6.504   2.285 -0.2566  0.1812 -0.1126
 6522TIP3    H140981   2.621   6.524   2.292 -0.4888 -0.7731 -0.3695
 6522TIP3    H240982   2.719   6.432   2.222  0.6593  0.2695 -0.1609
 6523TIP3   OH240983   2.890   6.541   5.537  0.4041 -0.1449  0.1804
 6523TIP3    H140984   2.800   6.562   5.512  0.6289 -0.2097 -0.7178
 6523TIP3    H240985   2.927   6.624   5.566  0.3541  0.0845 -0.4060
 6524TIP3   OH240986   2.977   0.642   3.881 -0.0173 -0.4257  0.6914
 6524TIP3    H140987   2.925   0.588   3.941  1.4406 -2.0614  0.5497
 6524TIP3    H240988   2.943   0.730   3.894 -1.7861 -1.1871  1.7047
 6525TIP3   OH240989   1.225   4.505  14.760  0.2149  0.4917  0.1615
 6525TIP3    H140990   1.164   4.461  14.701 -1.5165  2.6962  0.1645
 6525TIP3    H240991   1.219   4.598  14.736  1.5338  1.1049  1.9802
 6526TIP3   OH240992   0.692   5.989   6.819  0.4758 -0.0243  0.5333
 6526TIP3    H140993   0.639   5.996   6.740  0.9664 -0.2944  0.1695
 6526TIP3    H240994   0.640   6.030   6.887  1.1777  2.7630 -0.4593
 6527TIP3   OH240995   3.906   0.882  10.853 -0.4512  0.3530 -0.1330
 6527TIP3    H140996   3.959   0.803  10.862  0.8684  1.2388  0.0990
 6527TIP3    H240997   3.903   0.920  10.941 -0.4505  0.9481 -0.3792
 6528TIP3   OH240998   5.630   3.434   4.779 -0.5460  0.4195 -0.3444
 6528TIP3    H140999   5.561   3.405   4.840  1.2676 -0.8728  1.1985
 6528TIP3    H241000   5.661   3.354   4.737  1.1924  0.7146  0.3037
 6529TIP3   OH241001   1.128   1.940  13.149 -0.3587 -0.2407  0.0730
 6529TIP3    H141002   1.126   1.847  13.125 -1.4262 -0.3907  0.6536
 6529TIP3    H241003   1.132   1.939  13.245 -0.8763  0.3144  0.1009
 6530TIP3   OH241004   0.314   3.710   2.046  0.5114  0.0673  0.1007
 6530TIP3    H141005   0.405   3.742   2.045  0.0785  1.4905  1.3733
 6530TIP3    H241006   0.322   3.615   2.037  1.9945  0.3239 -1.8873
 6531TIP3   OH241007   0.137   2.255   4.917 -0.0928  0.2863  0.6423
 6531TIP3    H141008   0.163   2.223   5.003  0.2281  1.0695  0.8497
 6531TIP3    H241009   0.169   2.189   4.856  0.6832  0.2706  1.0495
 6532TIP3   OH241010   3.608   4.764  11.455  0.3499  0.3996 -0.0007
 6532TIP3    H141011   3.664   4.837  11.481  3.1707 -0.8226 -2.1064
 6532TIP3    H241012   3.554   4.800  11.384  2.1958  0.4188 -1.4995
 6533TIP3   OH241013   3.229   4.010  13.090 -0.0015 -0.6117 -0.7926
 6533TIP3    H141014   3.205   4.023  12.998  0.5557 -1.3016 -1.0415
 6533TIP3    H241015   3.161   4.057  13.139  0.0842  0.3508 -1.5658
 6534TIP3   OH241016   0.722   1.275   4.911  0.4629 -0.2748 -0.0101
 6534TIP3    H141017   0.754   1.364   4.928 -0.2154 -0.0288  0.0245
 6534TIP3    H241018   0.791   1.234   4.858  0.5032  0.4747 -0.5485
 6535TIP3   OH241019   5.419   2.065  16.419 -0.2040 -0.1301  0.3547
 6535TIP3    H141020   5.339   2.045  16.468  1.3007  0.3925  3.2598
 6535TIP3    H241021   5.466   1.982  16.415  0.2600  0.0935  0.9966
 6536TIP3   OH241022   0.671   3.493  17.213 -0.2032  0.0032  0.5815
 6536TIP3    H141023   0.705   3.563  17.156  1.1620  1.2410  2.7729
 6536TIP3    H241024   0.739   3.427  17.213  0.0020  0.2105  1.1008
 6537TIP3   OH241025   3.227   3.806  17.360  0.2478  0.1081  0.1448
 6537TIP3    H141026   3.264   3.840  17.442 -0.8045  0.9839  0.2879
 6537TIP3    H241027   3.132   3.810  17.374 -0.2155  3.8265 -2.4042
 6538TIP3   OH241028   5.001   4.880  12.972 -0.9455 -0.4534 -0.2478
 6538TIP3    H141029   4.947   4.938  12.918  1.3159  0.4203 -1.7420
 6538TIP3    H241030   5.008   4.799  12.921 -0.7678 -0.5133 -0.1312
 6539TIP3   OH241031   2.430   5.593   6.694  0.6792 -0.2374 -0.4245
 6539TIP3    H141032   2.431   5.601   6.790  1.7491  0.9664 -0.5210
 6539TIP3    H241033   2.503   5.535   6.674  2.6616  2.2254 -0.6900
 6540TIP3   OH241034   0.962   2.778  16.756 -0.0743  0.0665 -0.3167
 6540TIP3    H141035   0.897   2.707  16.761  0.1149 -0.0992 -0.1959
 6540TIP3    H241036   1.045   2.735  16.776 -0.0194  0.4070  0.1914
 6541TIP3   OH241037   1.444   4.993   4.689  0.5746  0.1063  0.9455
 6541TIP3    H141038   1.488   4.989   4.774  2.1378 -0.2308  0.1631
 6541TIP3    H241039   1.468   5.080   4.654  0.4016  0.0262  0.6224
 6542TIP3   OH241040   4.879   5.906  13.030  0.2747  0.2386  0.6042
 6542TIP3    H141041   4.819   5.867  13.094 -0.0844  1.5866  1.1136
 6542TIP3    H241042   4.910   5.986  13.072  0.4498  0.8742 -0.6972
 6543TIP3   OH241043   3.758   5.284  11.689  0.7269 -0.1496  0.3643
 6543TIP3    H141044   3.712   5.294  11.772 -1.7938 -2.0977 -0.6941
 6543TIP3    H241045   3.761   5.373  11.652 -3.0337  0.0432  0.1378
 6544TIP3   OH241046   5.265   6.143  14.477 -0.2120  0.3022 -0.1280
 6544TIP3    H141047   5.247   6.054  14.508 -0.0517  0.2961 -0.0513
 6544TIP3    H241048   5.264   6.135  14.381  1.5457 -0.1632 -0.1496
 6545TIP3   OH241049   0.299   3.650   2.461  0.6774 -0.7990  0.2462
 6545TIP3    H141050   0.362   3.626   2.530  1.7294  0.0146 -0.4061
 6545TIP3    H241051   0.243   3.716   2.502  2.1259  0.6536 -0.0482
 6546TIP3   OH241052   1.752   3.840  14.028  0.4300 -0.0548 -0.6632
 6546TIP3    H141053   1.756   3.745  14.019  2.3352 -0.1184  0.2139
 6546TIP3    H241054   1.721   3.855  14.117 -0.8818  0.1999 -1.1371
 6547TIP3   OH241055   3.883   3.726  15.140  0.1972  0.2967  0.2040
 6547TIP3    H141056   3.804   3.780  15.129  0.0656 -0.0942 -0.8432
 6547TIP3    H241057   3.893   3.681  15.056  0.6300 -0.8835  0.8758
 6548TIP3   OH241058   2.679   5.023   1.290 -0.2702  0.3188 -0.2327
 6548TIP3    H141059   2.651   5.110   1.320 -0.8048 -0.0410  0.3362
 6548TIP3    H241060   2.613   4.997   1.226  0.8170  1.0446 -1.7214
 6549TIP3   OH241061   3.084   5.321  12.378 -0.1734 -0.2633 -0.7368
 6549TIP3    H141062   3.024   5.255  12.411  0.8215 -0.8216  0.0218
 6549TIP3    H241063   3.030   5.400  12.367 -1.2803 -1.0783 -1.2785
 6550TIP3   OH241064   5.688   1.999   3.040  0.0671  0.0332 -0.0028
 6550TIP3    H141065   5.715   2.030   2.954  1.1853  0.5996  0.5400
 6550TIP3    H241066   5.659   1.909   3.025  0.4368  0.0642 -0.9378
 6551TIP3   OH241067   5.001   3.296  17.286  0.2132  0.1116 -0.5489
 6551TIP3    H141068   5.001   3.352  17.209 -0.4029  0.3411 -0.3897
 6551TIP3    H241069   4.913   3.306  17.323  0.3269 -0.4116 -0.1207
 6552TIP3   OH241070   2.632   4.614  12.719  0.4350  0.0811 -0.9802
 6552TIP3    H141071   2.724   4.607  12.744  0.0685  0.2387  0.5081
 6552TIP3    H241072   2.592   4.535  12.755 -0.9902  2.3768  3.2548
 6553TIP3   OH241073   4.481   6.721  16.268  0.3463  0.2593  0.2735
 6553TIP3    H141074   4.526   6.805  16.264 -0.1712  0.5227 -0.0653
 6553TIP3    H241075   4.541   6.664  16.316  1.1178  0.5552 -0.3258
 6554TIP3   OH241076   3.345   5.251   5.286 -0.5160  0.2221 -0.3526
 6554TIP3    H141077   3.271   5.237   5.346 -0.1737 -1.6939 -0.3196
 6554TIP3    H241078   3.422   5.249   5.343 -0.2548 -0.6426 -0.7313
 6555TIP3   OH241079   0.259   5.282   2.112  0.5025 -0.2876 -0.3476
 6555TIP3    H141080   0.217   5.288   2.197  0.2792 -1.9431 -0.3026
 6555TIP3    H241081   0.187   5.283   2.049  0.4296 -1.8716 -0.3357
 6556TIP3   OH241082   0.999   3.631   0.232  0.0487 -0.4923  0.1119
 6556TIP3    H141083   0.960   3.627   0.145 -1.7373 -0.1521  0.8460
 6556TIP3    H241084   0.932   3.593   0.290  1.2268 -0.7867  1.3217
 6557TIP3   OH241085   2.996   0.526   0.003 -0.2877  0.0075  0.4629
 6557TIP3    H141086   3.068   0.463   0.002  1.5793  1.9557 -1.4998
 6557TIP3    H241087   2.967   0.530  -0.088 -1.2846  0.9328  0.8025
 6558TIP3   OH241088   6.527   1.775   5.683  0.1598 -0.6701 -0.4729
 6558TIP3    H141089   6.523   1.743   5.774  0.4629  0.0686 -0.1957
 6558TIP3    H241090   6.615   1.750   5.653 -0.6070 -2.6380 -1.2256
 6559TIP3   OH241091   4.652   5.914  14.717  0.0298 -0.0545 -0.6075
 6559TIP3    H141092   4.743   5.887  14.706  0.2924  0.3497  0.4936
 6559TIP3    H241093   4.648   6.002  14.679  0.3377  0.3278  0.2404
 6560TIP3   OH241094   0.009   6.745  16.191  0.2624 -0.0413 -0.5786
 6560TIP3    H141095   0.003   6.715  16.100  0.2852  0.2827 -0.6890
 6560TIP3    H241096   0.102   6.737  16.213  0.5098  1.1846 -1.0477
 6561TIP3   OH241097   5.723   3.994   3.119 -0.1731  0.4936  0.1719
 6561TIP3    H141098   5.765   4.080   3.115 -1.3333  1.0449 -1.4562
 6561TIP3    H241099   5.760   3.953   3.196  1.0933  2.1046  0.4858
 6562TIP3   OH241100   4.573   5.320   4.469  0.0336  0.1115  0.0781
 6562TIP3    H141101   4.479   5.325   4.454  0.0328  1.0068  0.3688
 6562TIP3    H241102   4.606   5.269   4.394 -0.3730  1.8770 -1.3714
 6563TIP3   OH241103   4.176   4.950   0.422  0.8333  0.3593 -0.1099
 6563TIP3    H141104   4.086   4.957   0.455  0.7598 -2.5253  0.5561
 6563TIP3    H241105   4.198   5.039   0.394 -1.5569  1.5431  1.4147
 6564TIP3   OH241106   6.410   1.086  15.434 -0.0410 -0.2557 -0.0097
 6564TIP3    H141107   6.419   0.992  15.446 -3.0399 -0.6229  0.1953
 6564TIP3    H241108   6.335   1.110  15.490 -0.1268  2.0086 -1.0010
 6565TIP3   OH241109   3.368   1.767  15.764 -0.2941  0.4360  0.2980
 6565TIP3    H141110   3.285   1.805  15.794 -1.0097 -1.3469  0.7358
 6565TIP3    H241111   3.346   1.676  15.743  1.7542 -0.3806  1.4171
 6566TIP3   OH241112   3.944   0.352   0.578 -0.3193 -0.6518 -0.8439
 6566TIP3    H141113   3.993   0.297   0.517  0.4603 -0.1653 -0.6672
 6566TIP3    H241114   4.009   0.410   0.616 -0.9074 -0.4958 -0.0379
 6567TIP3   OH241115   3.136   3.486  12.855 -0.0105 -0.3971  1.3340
 6567TIP3    H141116   3.146   3.582  12.861  1.0598 -0.3567 -0.5153
 6567TIP3    H241117   3.155   3.465  12.764 -0.5601 -2.3622  1.6271
 6568TIP3   OH241118   6.001   5.763  15.503 -0.1678 -0.0854  0.0808
 6568TIP3    H141119   6.068   5.750  15.436 -1.4142 -0.0162 -1.2185
 6568TIP3    H241120   6.048   5.806  15.575  1.0697  0.4273 -0.9836
 6569TIP3   OH241121   1.292   1.552  12.670  0.3616 -0.0834  0.1906
 6569TIP3    H141122   1.255   1.627  12.716  3.9427 -0.4888  4.4671
 6569TIP3    H241123   1.302   1.581  12.579 -0.8347  3.5754  1.0833
 6570TIP3   OH241124   2.753   2.068  11.557  0.0814 -0.3002  0.4364
 6570TIP3    H141125   2.657   2.070  11.551  0.1392  1.0781 -0.4501
 6570TIP3    H241126   2.780   2.157  11.537  1.5858 -0.7867  0.1942
 6571TIP3   OH241127   2.394   6.345  16.996 -0.2940  0.7382  0.1044
 6571TIP3    H141128   2.435   6.316  17.078  1.2616 -1.6458 -1.4026
 6571TIP3    H241129   2.300   6.337  17.013 -0.0499  1.1870  1.9265
 6572TIP3   OH241130   2.812   2.887   2.707  0.4121  0.6393  0.5383
 6572TIP3    H141131   2.846   2.960   2.655  1.0402  0.7723  1.1178
 6572TIP3    H241132   2.753   2.841   2.647  0.1395  1.5143  0.1105
 6573TIP3   OH241133   6.053   5.224   2.458 -0.1627 -0.1448  0.3440
 6573TIP3    H141134   6.069   5.313   2.426  0.3364 -0.2091  0.4116
 6573TIP3    H241135   6.138   5.194   2.490  0.0220 -1.2181 -1.0549
 6574TIP3   OH241136   4.994   2.710  16.125  0.4942 -0.1603  0.2051
 6574TIP3    H141137   5.048   2.651  16.071  0.4021  1.2431 -1.5111
 6574TIP3    H241138   4.910   2.665  16.132  0.1603  0.0759 -1.7782
 6575TIP3   OH241139   6.387   6.276   1.878 -0.4808  0.0775 -0.3207
 6575TIP3    H141140   6.365   6.336   1.950  0.1546 -0.8705  0.7052
 6575TIP3    H241141   6.449   6.326   1.825  0.0104  0.3685  0.4933
 6576TIP3   OH241142   6.076   0.347  14.683 -0.2548 -0.6019  0.3011
 6576TIP3    H141143   6.065   0.420  14.744  0.4009 -0.9621  0.8606
 6576TIP3    H241144   6.158   0.365  14.639  0.3051 -1.3770  0.9867
 6577TIP3   OH241145   1.476   5.980   2.179 -0.2342 -0.0785  0.4390
 6577TIP3    H141146   1.438   5.953   2.262  0.2631  0.0380  0.7084
 6577TIP3    H241147   1.405   5.970   2.115  0.1890 -3.1738  0.2869
 6578TIP3   OH241148   0.994   2.492  15.784 -0.2578  0.2193  0.1101
 6578TIP3    H141149   1.069   2.499  15.725  0.5784 -2.3177  0.7419
 6578TIP3    H241150   0.979   2.582  15.814  1.5247  1.0301 -1.2367
 6579TIP3   OH241151   4.544   4.207   0.488 -0.1541 -0.1124  0.2258
 6579TIP3    H141152   4.637   4.226   0.472 -0.4534  0.6331 -0.7454
 6579TIP3    H241153   4.501   4.292   0.480 -1.0746 -0.6368 -0.5965
 6580TIP3   OH241154   0.237   5.871   2.993  0.2522  0.0404 -0.2316
 6580TIP3    H141155   0.172   5.941   2.996 -0.2139 -0.0981 -3.5847
 6580TIP3    H241156   0.187   5.791   3.008  0.2448  0.1623  0.4359
 6581TIP3   OH241157   0.210   5.502  14.251  0.4383 -0.1207  0.4064
 6581TIP3    H141158   0.169   5.589  14.252 -0.4976 -0.3632 -3.1345
 6581TIP3    H241159   0.161   5.452  14.316 -1.0120  1.1752  0.3754
 6582TIP3   OH241160   2.223   3.861   3.129 -0.4147  0.4093  0.3884
 6582TIP3    H141161   2.237   3.945   3.172  0.4269 -0.3436  1.6460
 6582TIP3    H241162   2.148   3.823   3.175 -1.9770  1.1957 -1.3654
 6583TIP3   OH241163   5.935   3.591   0.437 -0.1368 -0.1830  0.0220
 6583TIP3    H141164   6.010   3.532   0.437  0.3572  0.4241 -0.2243
 6583TIP3    H241165   5.974   3.678   0.448 -0.8049  0.1333 -0.0904
 6584TIP3   OH241166   0.936   1.559  15.765 -0.2937 -0.3231 -0.0725
 6584TIP3    H141167   0.950   1.617  15.839  1.3834  0.0678 -0.6462
 6584TIP3    H241168   0.994   1.592  15.697 -1.7162 -0.7256 -1.5543
 6585TIP3   OH241169   2.054   4.933   0.061 -0.1272  0.4452  0.0666
 6585TIP3    H141170   2.082   4.977  -0.019 -1.9163 -0.5686 -1.1835
 6585TIP3    H241171   2.118   4.960   0.127  2.0737  0.4290 -1.9358
 6586TIP3   OH241172   5.410   6.622   0.694  0.1109  0.4677  0.3466
 6586TIP3    H141173   5.464   6.607   0.616 -1.0191  1.2160 -0.5969
 6586TIP3    H241174   5.340   6.558   0.687 -0.0147  0.5611  0.7382
 6587TIP3   OH241175   0.830   4.596   6.268  0.0877  0.2072 -0.2791
 6587TIP3    H141176   0.922   4.607   6.291  0.2169 -0.2792 -0.5465
 6587TIP3    H241177   0.782   4.642   6.336  0.5106 -0.0227  0.1762
 6588TIP3   OH241178   4.664   3.283   3.441 -0.0334 -0.3854 -0.3683
 6588TIP3    H141179   4.597   3.350   3.426 -1.1671 -1.0313  1.5118
 6588TIP3    H241180   4.742   3.333   3.466 -0.8543  0.2830  0.9995
 6589TIP3   OH241181   4.853   4.057  11.280 -0.1509  0.3795  0.0924
 6589TIP3    H141182   4.822   4.013  11.359 -3.2765 -0.2880 -1.3759
 6589TIP3    H241183   4.914   4.124  11.313 -1.5937  0.3837  3.1066
 6590TIP3   OH241184   2.663   1.537  14.695 -0.3931  0.4051 -0.1399
 6590TIP3    H141185   2.743   1.576  14.659  1.4410 -1.0613  2.0660
 6590TIP3    H241186   2.626   1.487  14.622  0.7969  0.9737 -1.1718
 6591TIP3   OH241187   3.285   6.696   3.138 -0.0932 -0.2855 -0.7766
 6591TIP3    H141188   3.251   6.637   3.205 -2.8082  0.5139 -1.3259
 6591TIP3    H241189   3.328   6.766   3.187  1.5389 -1.7167 -0.0697
 6592TIP3   OH241190   2.380   6.724  12.116  0.1110  0.1753  0.3649
 6592TIP3    H141191   2.347   6.657  12.176  1.0820 -0.5517  0.1151
 6592TIP3    H241192   2.341   6.703  12.032  0.1868  0.0994  0.3491
 6593TIP3   OH241193   5.985   4.401   5.511  0.6142 -0.6394  0.4709
 6593TIP3    H141194   6.014   4.315   5.542 -1.4207 -1.5680 -0.0616
 6593TIP3    H241195   5.953   4.386   5.422  2.2931  1.1515 -0.5347
 6594TIP3   OH241196   3.693   3.439  13.707 -0.2827  0.1105  0.0834
 6594TIP3    H141197   3.657   3.527  13.694 -0.5857 -0.1444 -0.8388
 6594TIP3    H241198   3.724   3.412  13.621  0.0230 -0.6001  0.4071
 6595TIP3   OH241199   4.100   4.148   1.929  0.1358 -0.3815  0.3449
 6595TIP3    H141200   4.158   4.084   1.887 -0.1304 -0.6167  0.3349
 6595TIP3    H241201   4.086   4.113   2.017  2.2851  1.0843  1.3615
 6596TIP3   OH241202   5.312   4.084  11.937  0.4533  0.1783  0.3327
 6596TIP3    H141203   5.338   4.024  12.007  2.2037  0.8696  0.3264
 6596TIP3    H241204   5.226   4.116  11.963 -0.0640 -1.5224  0.8458
 6597TIP3   OH241205   2.005   5.180  12.788 -0.4690 -0.2884 -0.2455
 6597TIP3    H141206   1.979   5.196  12.698  1.8564 -0.4436 -1.0208
 6597TIP3    H241207   1.976   5.091  12.806 -1.0029 -0.2342 -0.8133
 6598TIP3   OH241208   4.263   6.306   4.181  0.5032  0.1578  0.0823
 6598TIP3    H141209   4.175   6.270   4.185 -0.5750  1.8516 -3.5714
 6598TIP3    H241210   4.252   6.398   4.208  1.8064 -0.3032  2.4099
 6599TIP3   OH241211   3.293   4.397   5.637  0.0395  0.3181 -0.1439
 6599TIP3    H141212   3.282   4.376   5.729 -1.1451  0.4999 -0.2311
 6599TIP3    H241213   3.372   4.451   5.634  0.1176  0.2660  0.7449
 6600TIP3   OH241214   2.832   5.479  16.083  0.0735  0.3831  0.1111
 6600TIP3    H141215   2.827   5.573  16.064 -0.2153  0.2324 -0.6235
 6600TIP3    H241216   2.883   5.443  16.010 -0.6630 -0.1614 -0.1503
 6601TIP3   OH241217   5.172   2.567   3.203 -0.7603  0.0231 -0.0034
 6601TIP3    H141218   5.228   2.540   3.276  0.6121  1.7734 -0.3415
 6601TIP3    H241219   5.097   2.609   3.245 -0.1217  0.7558  0.4503
 6602TIP3   OH241220   1.125   5.842   2.621  0.2763 -0.0139  0.2606
 6602TIP3    H141221   1.071   5.892   2.683  0.1027 -0.4573  0.4675
 6602TIP3    H241222   1.155   5.766   2.670  0.3215 -0.2535 -0.1331
 6603TIP3   OH241223   0.699   2.069   4.465 -0.3072  0.0085 -0.2174
 6603TIP3    H141224   0.686   1.988   4.417 -0.7412 -0.5299  0.7818
 6603TIP3    H241225   0.632   2.069   4.533  0.0002  0.9605  0.1135
 6604TIP3   OH241226   5.149   3.997   4.857  0.1552 -0.0896 -0.0827
 6604TIP3    H141227   5.163   4.011   4.764  1.0476  0.0656  0.0669
 6604TIP3    H241228   5.232   3.961   4.889 -0.1217 -0.0919  0.6611
 6605TIP3   OH241229   5.642   6.441  16.573  0.1790  0.0707 -0.1466
 6605TIP3    H141230   5.737   6.444  16.586  0.4065 -1.1743 -1.3027
 6605TIP3    H241231   5.631   6.406  16.485 -1.3753 -0.2003  0.1312
 6606TIP3   OH241232   3.700   0.731  15.457  0.2849  0.5561 -0.5190
 6606TIP3    H141233   3.676   0.714  15.548  0.7902  0.4713 -0.3968
 6606TIP3    H241234   3.792   0.759  15.462  1.3299 -2.3735 -1.2841
 6607TIP3   OH241235   2.076   4.372  14.013 -0.1534 -0.3419 -0.2847
 6607TIP3    H141236   2.062   4.462  14.040 -0.9668 -0.6619  0.3824
 6607TIP3    H241237   2.135   4.336  14.079  1.3992  0.0907 -1.3521
 6608TIP3   OH241238   5.607   3.953   2.696 -0.5894  0.0748 -0.2072
 6608TIP3    H141239   5.640   4.027   2.747  2.9211 -0.7988 -0.9892
 6608TIP3    H241240   5.639   3.969   2.607 -0.5926 -1.8924 -0.5924
 6609TIP3   OH241241   2.180   3.661   1.695  0.0009 -0.2888 -0.2951
 6609TIP3    H141242   2.144   3.596   1.636  0.4770 -0.2841 -0.5994
 6609TIP3    H241243   2.111   3.677   1.759  0.1355 -1.6368  0.2225
 6610TIP3   OH241244   5.242   1.391   4.689 -0.1220 -0.1608  0.8496
 6610TIP3    H141245   5.311   1.420   4.749 -0.4110 -0.9732  1.6080
 6610TIP3    H241246   5.166   1.375   4.746 -0.9857  0.8399  0.0113
 6611TIP3   OH241247   0.007   4.609   4.024  0.0706  0.7019  0.2438
 6611TIP3    H141248   0.049   4.537   4.071  2.4933  1.1664 -1.0595
 6611TIP3    H241249   0.002   4.579   3.933 -2.6290  0.6483  0.3325
 6612TIP3   OH241250   6.202   1.125   6.291 -0.8735 -0.1213 -0.2008
 6612TIP3    H141251   6.184   1.039   6.254  1.3983 -0.6822 -0.1554
 6612TIP3    H241252   6.235   1.107   6.379 -0.8279  0.8341 -0.0128
 6613TIP3   OH241253   5.635   5.142   0.049  0.0131  0.5262 -0.1158
 6613TIP3    H141254   5.601   5.202  -0.017 -0.6193  0.6127  0.2750
 6613TIP3    H241255   5.621   5.055   0.011  2.5526  0.6150 -1.4621
 6614TIP3   OH241256   0.138   6.607   2.940  0.1201  0.2469  0.4253
 6614TIP3    H141257   0.187   6.682   2.973  0.7842 -0.1399  0.3292
 6614TIP3    H241258   0.187   6.578   2.863 -0.1972 -0.2180  0.3954
 6615TIP3   OH241259   0.047   4.953   5.602 -0.4319 -0.6011  0.1143
 6615TIP3    H141260   0.091   4.980   5.683  0.0306  0.1775 -0.3818
 6615TIP3    H241261  -0.026   5.014   5.593 -0.9177 -1.1478  0.3206
 6616TIP3   OH241262   3.585   4.914  14.236  0.1074  0.1605  0.4134
 6616TIP3    H141263   3.582   4.963  14.154  1.7358  2.4791  1.6043
 6616TIP3    H241264   3.496   4.918  14.270 -0.4769 -0.4149 -0.9940
 6617TIP3   OH241265   5.873   0.937  11.259 -1.1266 -0.0624  0.0067
 6617TIP3    H141266   5.952   0.890  11.283 -0.2779  0.7750 -1.0337
 6617TIP3    H241267   5.807   0.907  11.322  0.0352 -0.6778  0.9808
 6618TIP3   OH241268   5.516   5.081   1.385 -0.2447 -0.0066 -0.7738
 6618TIP3    H141269   5.558   5.167   1.376 -0.8034  0.1655 -1.9766
 6618TIP3    H241270   5.538   5.053   1.473  0.2112  1.2377 -0.4639
 6619TIP3   OH241271   4.928   3.552   3.060 -0.2794 -0.6588 -0.0246
 6619TIP3    H141272   4.890   3.570   3.146  0.4839  0.3477  0.1323
 6619TIP3    H241273   4.978   3.471   3.072 -2.9954 -2.5108 -0.4677
 6620TIP3   OH241274   0.603   5.175   1.589  0.0149  0.6691 -0.4674
 6620TIP3    H141275   0.513   5.142   1.588 -0.0351  0.7858  0.0356
 6620TIP3    H241276   0.654   5.103   1.625 -0.0658  1.0493  0.4422
 6621TIP3   OH241277   4.889   1.733  13.089  0.1937  0.4639 -0.6555
 6621TIP3    H141278   4.934   1.714  13.172 -1.0270 -0.4336 -0.1783
 6621TIP3    H241279   4.960   1.755  13.028  1.1022  1.2394  0.6374
 6622TIP3   OH241280   4.558   4.766  16.628 -0.1373  0.0823  0.2649
 6622TIP3    H141281   4.494   4.715  16.679 -1.1932  0.1207 -0.9738
 6622TIP3    H241282   4.640   4.717  16.639 -0.1358  0.4720  2.5443
 6623TIP3   OH241283   4.356   1.821   3.260 -0.3315  0.5200 -0.0403
 6623TIP3    H141284   4.279   1.870   3.290  0.7591  1.6455  1.0825
 6623TIP3    H241285   4.430   1.878   3.282  0.9118 -1.0775  0.0936
 6624TIP3   OH241286   4.553   4.298   4.784  0.2050 -0.3192 -0.3672
 6624TIP3    H141287   4.481   4.253   4.740 -0.0459  0.3169 -0.6138
 6624TIP3    H241288   4.561   4.255   4.869 -1.2740  0.3980  0.1689
 6625TIP3   OH241289   2.940   1.399   3.892 -0.1577  0.2703  0.2483
 6625TIP3    H141290   2.877   1.347   3.942  1.0750 -2.0941 -0.4999
 6625TIP3    H241291   2.998   1.438   3.957 -0.8838  0.4545  0.8023
 6626TIP3   OH241292   3.558   2.054   4.978 -0.0186 -0.0178  0.0447
 6626TIP3    H141293   3.541   2.148   4.980 -0.3392 -0.0344 -1.0998
 6626TIP3    H241294   3.548   2.025   5.068  0.0938  1.0489  0.4069
 6627TIP3   OH241295   1.301   4.240  13.758 -0.3663  0.6856  0.6994
 6627TIP3    H141296   1.241   4.199  13.695 -2.6405  1.2973  2.3484
 6627TIP3    H241297   1.387   4.201  13.737 -1.0947  0.4206 -2.3238
 6628TIP3   OH241298   6.176   4.034  10.958  0.1023  0.1146  0.1904
 6628TIP3    H141299   6.160   4.063  11.048 -0.3864 -0.4137  0.2816
 6628TIP3    H241300   6.089   4.022  10.921  0.2039 -2.4491  0.5725
 6629TIP3   OH241301   4.908   4.776   4.349  0.2066  0.4192  0.2976
 6629TIP3    H141302   4.904   4.870   4.370 -0.0009  0.7226 -1.0280
 6629TIP3    H241303   4.989   4.746   4.391  0.0445  1.0893  1.1187
 6630TIP3   OH241304   2.750   0.964   2.193 -0.0332  0.4621  0.0309
 6630TIP3    H141305   2.693   0.973   2.116  0.1184 -1.4644 -0.3419
 6630TIP3    H241306   2.717   0.887   2.239 -0.0380  1.5162  1.8652
 6631TIP3   OH241307   2.062   2.698   0.208  0.4172  0.0632 -0.1166
 6631TIP3    H141308   2.083   2.609   0.182  0.9869  0.5496 -1.3953
 6631TIP3    H241309   2.109   2.753   0.146  0.4773  1.2708  0.9495
 6632TIP3   OH241310   3.165   2.883   3.943 -0.1525  0.2292  0.4435
 6632TIP3    H141311   3.166   2.973   3.976  0.7166 -0.2889  1.9561
 6632TIP3    H241312   3.225   2.884   3.869 -1.3570  1.2136 -0.5552
 6633TIP3   OH241313   5.962   3.972  14.459  0.0286 -0.5981 -0.2356
 6633TIP3    H141314   6.058   3.975  14.460  0.3858 -0.6891  5.7410
 6633TIP3    H241315   5.940   3.894  14.511 -3.2054  0.4160  0.1673
 6634TIP3   OH241316   3.079   4.226  14.942  0.3586  0.9554  0.0455
 6634TIP3    H141317   3.163   4.185  14.962  0.2332 -0.3419 -1.7997
 6634TIP3    H241318   3.050   4.263  15.025  2.2510  0.5138  0.9625
 6635TIP3   OH241319   3.545   5.780   6.067 -0.6503  0.1745  0.1881
 6635TIP3    H141320   3.508   5.859   6.026  0.5737 -0.2588 -1.8858
 6635TIP3    H241321   3.586   5.732   5.995  0.2552 -1.4531  1.7023
 6636TIP3   OH241322   2.829   2.680  14.450 -0.2787 -0.0659 -0.4631
 6636TIP3    H141323   2.923   2.683  14.469 -0.3687  0.0069 -0.0064
 6636TIP3    H241324   2.791   2.743  14.512 -0.7977 -1.1859  0.4019
 6637TIP3   OH241325   1.518   4.438  12.168 -0.1178  0.2539 -0.9474
 6637TIP3    H141326   1.495   4.348  12.191 -0.2440  0.4839 -0.1535
 6637TIP3    H241327   1.590   4.429  12.105  1.5418 -0.3684  0.9514
 6638TIP3   OH241328   4.493   5.037  16.635  0.4041 -0.4921 -0.0169
 6638TIP3    H141329   4.512   4.946  16.617 -2.6793 -1.2644 -0.0283
 6638TIP3    H241330   4.578   5.081  16.635  1.8482 -3.0804 -1.3961
 6639TIP3   OH241331   2.109   2.726  15.116 -0.2387  0.2038 -0.2979
 6639TIP3    H141332   2.068   2.779  15.184  0.8177 -0.2022  0.6899
 6639TIP3    H241333   2.131   2.643  15.160 -0.1183 -0.3108 -1.3036
 6640TIP3   OH241334   1.467   5.897  11.341  0.7911 -0.0963  0.0448
 6640TIP3    H141335   1.417   5.830  11.295  0.0286 -0.5602  1.4680
 6640TIP3    H241336   1.404   5.967  11.356  0.8753 -0.1770  0.8095
 6641TIP3   OH241337   2.890   2.313  16.582  0.3383  0.2130  0.0035
 6641TIP3    H141338   2.899   2.328  16.676  0.7950  1.1512 -0.1769
 6641TIP3    H241339   2.955   2.246  16.562  0.1220 -0.1165  0.3771
 6642TIP3   OH241340   0.091   3.968  16.833 -0.3618  0.5398  0.4195
 6642TIP3    H141341   0.021   4.031  16.816  0.7574  1.6147 -0.3967
 6642TIP3    H241342   0.119   3.986  16.923  0.1959  1.4977  0.0710
 6643TIP3   OH241343   2.889   5.398  16.898 -0.1177  0.2483 -0.3717
 6643TIP3    H141344   2.936   5.396  16.815 -0.1183 -0.4846 -0.3581
 6643TIP3    H241345   2.902   5.487  16.931 -0.8545  0.8300 -1.5785
 6644TIP3   OH241346   3.710   5.542  12.804  0.2329 -0.0784 -0.1098
 6644TIP3    H141347   3.717   5.568  12.712 -0.4480  0.7195  0.0529
 6644TIP3    H241348   3.731   5.449  12.804 -1.3095 -0.4759 -1.3025
 6645TIP3   OH241349   2.501   4.701  14.762 -0.2842  0.2308 -0.2116
 6645TIP3    H141350   2.468   4.779  14.719  2.1006  0.6861 -1.3784
 6645TIP3    H241351   2.460   4.628  14.715 -0.5654  0.7634 -0.8045
 6646TIP3   OH241352   0.991   2.543  17.120 -0.0867 -1.0251 -0.3643
 6646TIP3    H141353   0.931   2.580  17.185 -0.4408 -1.5095 -0.4059
 6646TIP3    H241354   1.077   2.544  17.163 -0.2709 -1.0924  0.0104
 6647TIP3   OH241355   1.280   5.995   1.127  0.2125  0.0707  0.4268
 6647TIP3    H141356   1.273   5.953   1.213 -2.1771 -0.6100 -0.0317
 6647TIP3    H241357   1.228   6.075   1.134 -0.2237 -0.1192 -0.4431
 6648TIP3   OH241358   4.854   3.289  11.581 -0.8474 -0.7480  0.3258
 6648TIP3    H141359   4.906   3.327  11.510 -1.0930 -2.2819 -0.7188
 6648TIP3    H241360   4.798   3.361  11.610 -1.6672 -0.3719 -1.9278
 6649TIP3   OH241361   3.923   2.279  17.383  0.6770  0.3779 -0.4904
 6649TIP3    H141362   3.983   2.205  17.385  0.2926  0.0679 -0.1386
 6649TIP3    H241363   3.979   2.356  17.369  1.2586  0.1932  0.7239
 6650TIP3   OH241364   3.308   2.064  14.633  0.1353 -0.1549 -0.0634
 6650TIP3    H141365   3.357   1.997  14.586  0.1489 -0.9154  1.0139
 6650TIP3    H241366   3.317   2.142  14.579 -0.7486 -1.2489 -1.8975
 6651TIP3   OH241367   2.058   4.445  15.671 -0.3366  0.4307  0.1934
 6651TIP3    H141368   2.119   4.393  15.618 -0.1376 -0.8307  1.5905
 6651TIP3    H241369   1.973   4.433  15.628 -0.2062 -0.6752  0.2148
 6652TIP3   OH241370   2.175   6.344  17.175 -0.3251  0.0733  0.6002
 6652TIP3    H141371   2.228   6.284  17.228 -0.4533  0.4858  1.2132
 6652TIP3    H241372   2.090   6.346  17.219 -0.9082 -0.6803 -0.4462
 6653TIP3   OH241373   6.520   6.176   0.142 -0.2205 -0.2482  0.2908
 6653TIP3    H141374   6.608   6.186   0.106 -0.0370  1.8874  1.2197
 6653TIP3    H241375   6.534   6.125   0.223  0.4178  1.3358  1.2265
 6654TIP3   OH241376   4.169   2.351   4.055  0.1926  0.1655  0.7181
 6654TIP3    H141377   4.085   2.305   4.059  0.0793  0.2660 -0.3028
 6654TIP3    H241378   4.149   2.440   4.084 -0.5518  0.8179 -1.5398
 6655TIP3   OH241379   2.252   1.601  14.427  0.2734 -0.2459 -0.4215
 6655TIP3    H141380   2.206   1.526  14.387  0.0734 -0.5035  0.2789
 6655TIP3    H241381   2.182   1.650  14.471  0.3020  0.7065 -1.3935
 6656TIP3   OH241382   0.683   6.749  16.495  0.2650  0.1103 -0.1478
 6656TIP3    H141383   0.772   6.753  16.461 -0.3351 -0.1081 -1.8360
 6656TIP3    H241384   0.655   6.659  16.480 -0.2971  0.2110  0.2396
 6657TIP3   OH241385   5.513   2.489  10.580  0.3200 -0.0382  0.4113
 6657TIP3    H141386   5.534   2.473  10.672 -1.9881 -0.7583  0.8737
 6657TIP3    H241387   5.519   2.584  10.570  0.7429  0.0330  1.2573
 6658TIP3   OH241388   6.703   0.661  12.773 -0.0131 -0.6857 -0.0527
 6658TIP3    H141389   6.709   0.754  12.795 -0.4448 -1.0429  1.7883
 6658TIP3    H241390   6.773   0.620  12.823 -0.1946 -1.4159 -0.3895
 6659TIP3   OH241391   2.625   6.411  17.266  0.0038  0.0125 -0.0931
 6659TIP3    H141392   2.601   6.320  17.251  0.4235 -0.0872 -0.1689
 6659TIP3    H241393   2.622   6.422  17.361 -2.2626  0.5374 -0.1758
 6660TIP3   OH241394   3.523   0.335  15.253  0.5047 -0.4615 -0.3101
 6660TIP3    H141395   3.473   0.347  15.334 -0.0848  0.4306 -0.7831
 6660TIP3    H241396   3.509   0.243  15.230 -0.9571 -0.2449 -0.4193
 6661TIP3   OH241397   1.970   2.734  16.345 -0.7102  0.5492 -0.6921
 6661TIP3    H141398   1.955   2.784  16.425  1.2481  0.0437  0.0588
 6661TIP3    H241399   1.896   2.674  16.340 -1.0575  0.8549  0.5503
 6662TIP3   OH241400   6.152   1.889  13.383  0.1437  0.4496  0.3497
 6662TIP3    H141401   6.168   1.899  13.477  0.7524 -3.7432  0.8926
 6662TIP3    H241402   6.233   1.852  13.348 -0.8555 -0.2944 -1.3253
 6663TIP3   OH241403   2.678   3.148   3.769 -0.1049  0.1686 -0.1550
 6663TIP3    H141404   2.662   3.227   3.820  0.3583  1.0112 -1.2849
 6663TIP3    H241405   2.773   3.143   3.761 -0.1397 -0.4114 -0.2432
 6664TIP3   OH241406   2.139   3.631  15.535  0.1730 -0.3371  0.4274
 6664TIP3    H141407   2.156   3.719  15.501 -0.6629 -1.0321 -2.0226
 6664TIP3    H241408   2.172   3.633  15.624  0.1318  2.4795  0.4739
 6665TIP3   OH241409   3.214   3.787  12.323 -0.1844 -0.6875  0.0205
 6665TIP3    H141410   3.126   3.761  12.350  0.0268 -2.1999 -0.6537
 6665TIP3    H241411   3.271   3.719  12.358  0.4794 -0.8106 -1.2320
 6666TIP3   OH241412   1.867   1.010   0.454  0.0240  0.4129  0.1351
 6666TIP3    H141413   1.891   1.100   0.432 -0.5605  0.8893  1.2840
 6666TIP3    H241414   1.785   0.995   0.407 -0.7000  1.0691  1.1172
 6667TIP3   OH241415   1.967   5.054  13.956  0.0198 -0.1829 -0.2565
 6667TIP3    H141416   1.932   5.109  13.886 -0.0113  0.0038 -0.0980
 6667TIP3    H241417   2.013   5.116  14.013 -0.5904 -0.2171  0.2870
 6668TIP3   OH241418   3.353   4.244  16.287 -0.2136  0.6429  0.1968
 6668TIP3    H141419   3.263   4.269  16.308 -0.4434 -1.3068  1.8420
 6668TIP3    H241420   3.379   4.186  16.358  1.2424 -1.3965 -1.8748
 6669TIP3   OH241421   6.119   4.773   3.284  0.1155 -0.2914 -0.1664
 6669TIP3    H141422   6.182   4.702   3.272 -1.3196 -2.0894  1.9870
 6669TIP3    H241423   6.034   4.729   3.284 -0.8196  1.3887  1.3886
 6670TIP3   OH241424   3.837   6.722   0.628 -0.2297 -0.6855 -0.4208
 6670TIP3    H141425   3.887   6.783   0.682 -1.5269  0.3140 -0.3012
 6670TIP3    H241426   3.747   6.729   0.660 -0.5295 -2.2318 -0.8044
 6671TIP3   OH241427   6.286   4.703   5.602  0.1494 -0.1401  0.0949
 6671TIP3    H141428   6.215   4.660   5.650 -0.2369 -1.1415 -1.3110
 6671TIP3    H241429   6.309   4.641   5.533  1.9282  0.4721  0.0827
 6672TIP3   OH241430   2.082   5.386   4.396 -0.1387  0.0903  0.0139
 6672TIP3    H141431   1.998   5.345   4.376  0.0357 -0.2798  0.0297
 6672TIP3    H241432   2.112   5.344   4.476  0.3918 -0.2866 -0.3710
 6673TIP3   OH241433   5.050   6.008  17.376  0.2511 -0.0783  0.1792
 6673TIP3    H141434   4.988   5.935  17.378  1.5515 -1.3319 -1.5585
 6673TIP3    H241435   5.004   6.077  17.328  0.3198 -1.2106 -1.6400
 6674TIP3   OH241436   6.223   3.367   5.579 -0.2275  0.0414  0.8331
 6674TIP3    H141437   6.152   3.414   5.535 -0.5656 -1.6364 -0.5494
 6674TIP3    H241438   6.300   3.420   5.564 -0.8463  0.9110  0.6420
 6675TIP3   OH241439   5.476   6.012  13.319 -0.3173 -0.5435 -0.0689
 6675TIP3    H141440   5.405   6.056  13.366  1.0715  1.6835  0.1100
 6675TIP3    H241441   5.527   6.083  13.280  0.8826 -2.1431 -1.5963
 6676TIP3   OH241442   5.193   1.868  16.740 -0.6090 -0.0846 -0.3404
 6676TIP3    H141443   5.255   1.926  16.783 -1.0128  0.1080 -0.0090
 6676TIP3    H241444   5.151   1.923  16.673 -1.2518  0.1124  0.2178
 6677TIP3   OH241445   1.700   6.750   0.542 -0.5437 -0.1462  0.1905
 6677TIP3    H141446   1.672   6.795   0.622  1.1669  1.7237 -0.1728
 6677TIP3    H241447   1.711   6.659   0.569 -1.3762  0.1675  1.7196
 6678TIP3   OH241448   4.357   2.899   2.806  0.0846  0.2845 -0.9546
 6678TIP3    H141449   4.319   2.811   2.808 -0.5489  0.5520 -1.1967
 6678TIP3    H241450   4.450   2.883   2.789  0.0273 -0.3521 -0.7160
 6679TIP3   OH241451   6.401   1.783   0.527 -0.2348  0.1769  0.1090
 6679TIP3    H141452   6.363   1.857   0.480  0.4589 -0.6991 -1.9158
 6679TIP3    H241453   6.325   1.736   0.561 -0.7827  0.5975 -0.4988
 6680TIP3   OH241454   3.504   3.775   0.316  0.4103 -0.2451 -0.0322
 6680TIP3    H141455   3.494   3.719   0.393 -0.8187  0.4942  0.3826
 6680TIP3    H241456   3.594   3.810   0.324  0.2792 -0.1161  1.1317
 6681TIP3   OH241457   4.058   4.161  14.489  0.5623 -0.5478  0.3802
 6681TIP3    H141458   4.088   4.194  14.404 -0.4614 -0.4684  0.0366
 6681TIP3    H241459   4.073   4.066  14.484  3.7496 -0.2373  1.4660
 6682TIP3   OH241460   4.149   6.089  11.024 -0.4039  0.1976  0.4773
 6682TIP3    H141461   4.081   6.127  11.081 -0.4076  2.2425 -0.7873
 6682TIP3    H241462   4.100   6.041  10.957 -0.5976  1.0234  0.0120
 6683TIP3   OH241463   1.259   4.281  15.894  0.1516 -0.0087 -0.3370
 6683TIP3    H141464   1.331   4.341  15.875 -0.0818  1.3179  2.4776
 6683TIP3    H241465   1.201   4.289  15.818  2.2008 -0.0207 -1.9918
 6684TIP3   OH241466   1.046   1.961  15.892 -0.2590 -0.1222  0.0922
 6684TIP3    H141467   1.016   2.052  15.887 -1.9270 -0.5916  0.7868
 6684TIP3    H241468   1.000   1.917  15.821  0.2940 -0.4811 -0.0420
 6685TIP3   OH241469   3.759   5.204   5.176 -0.5403 -0.1159 -0.9423
 6685TIP3    H141470   3.775   5.297   5.161  1.9773 -0.5892 -1.7215
 6685TIP3    H241471   3.820   5.181   5.247 -2.5757 -0.7903  0.6821
 6686TIP3   OH241472   3.178   5.963   2.153 -0.2182 -0.0727 -0.3470
 6686TIP3    H141473   3.154   6.053   2.173 -1.0560  0.0057 -1.5779
 6686TIP3    H241474   3.226   5.968   2.070  2.2249 -0.4914  0.9567
 6687TIP3   OH241475   3.680   6.598  15.670  0.1001 -0.4512  0.1391
 6687TIP3    H141476   3.599   6.554  15.694  1.3110 -1.8141  2.0598
 6687TIP3    H241477   3.745   6.527  15.663  1.4080  0.7142 -0.0257
 6688TIP3   OH241478   4.760   5.390  13.439  0.3705  0.1228 -0.8249
 6688TIP3    H141479   4.799   5.329  13.501  1.3843  1.7696  0.2440
 6688TIP3    H241480   4.684   5.426  13.485 -1.1710 -1.3912 -2.0357
 6689TIP3   OH241481   3.106   6.211  11.823  0.0371 -0.0888  0.0706
 6689TIP3    H141482   3.135   6.237  11.910  1.1931 -1.9875  0.2957
 6689TIP3    H241483   3.059   6.129  11.836 -2.4706  1.1106 -0.7590
 6690TIP3   OH241484   3.259   0.016  11.562 -0.6066 -0.1298  0.2803
 6690TIP3    H141485   3.196   0.083  11.589 -2.1489 -0.9252 -1.1876
 6690TIP3    H241486   3.327   0.065  11.515 -0.7780  0.6045  0.7827
 6691TIP3   OH241487   3.751   6.448  13.162 -0.9492  0.2384  0.0703
 6691TIP3    H141488   3.676   6.507  13.153 -0.0760  1.2475 -0.9260
 6691TIP3    H241489   3.751   6.397  13.081 -1.0607 -0.3758  0.4510
 6692TIP3   OH241490   2.433   0.198   2.455 -0.1587 -0.0994  0.5608
 6692TIP3    H141491   2.509   0.255   2.448  0.3732 -0.9601 -1.4266
 6692TIP3    H241492   2.363   0.246   2.411 -0.1794 -0.2608  0.4203
 6693TIP3   OH241493   2.882   3.498  16.876  0.2871 -0.2704  0.4402
 6693TIP3    H141494   2.854   3.528  16.790 -0.3472 -1.2075  0.2929
 6693TIP3    H241495   2.806   3.450  16.910  0.4662  0.2316  1.5912
 6694TIP3   OH241496   0.318   1.333   1.994 -0.0667 -0.1880 -0.0651
 6694TIP3    H141497   0.350   1.320   1.904  0.3207  0.3293 -0.0097
 6694TIP3    H241498   0.317   1.428   2.005  0.8849 -0.2597  0.8246
 6695TIP3   OH241499   6.662   4.158  12.919 -0.0871  0.2188 -0.1104
 6695TIP3    H141500   6.718   4.080  12.916 -0.5556 -0.1167 -0.2697
 6695TIP3    H241501   6.635   4.173  12.829  1.1744  1.4488 -0.3142
 6696TIP3   OH241502   5.438   2.058  16.863 -0.0272  0.6684  0.4226
 6696TIP3    H141503   5.391   2.141  16.856  1.1784  1.2673 -1.1063
 6696TIP3    H241504   5.522   2.074  16.820  0.9663 -0.8236  1.6801
 6697TIP3   OH241505   2.111   4.901   3.983 -0.1124  0.5532  0.1631
 6697TIP3    H141506   2.030   4.898   3.933 -0.7853  0.7799  1.2022
 6697TIP3    H241507   2.098   4.974   4.043 -0.0868 -0.8124  1.8994
 6698TIP3   OH241508   1.882   1.823   2.297 -0.0261 -0.1070  0.1463
 6698TIP3    H141509   1.942   1.822   2.222  0.5977  0.9557  0.5991
 6698TIP3    H241510   1.845   1.735   2.299  1.3069 -0.7162 -0.3348
 6699TIP3   OH241511   4.376   6.521   5.371 -0.5857 -0.4703 -0.1087
 6699TIP3    H141512   4.303   6.460   5.369 -1.7294  0.8332  0.5411
 6699TIP3    H241513   4.376   6.562   5.285 -0.1629 -0.9813 -0.3548
 6700TIP3   OH241514   0.775   5.744   2.979 -0.3301 -0.3576 -0.4494
 6700TIP3    H141515   0.799   5.785   2.895 -0.4963  1.2665  0.2650
 6700TIP3    H241516   0.695   5.695   2.959  0.1692 -0.8114 -1.4534
 6701TIP3   OH241517   2.603   1.352   6.463  0.2059 -0.6657  0.2743
 6701TIP3    H141518   2.630   1.266   6.496  0.8436 -0.2973  0.7258
 6701TIP3    H241519   2.541   1.332   6.393  0.2686 -1.4937  0.4458
 6702TIP3   OH241520   0.887   0.702  15.258  0.2413 -0.3197 -0.1068
 6702TIP3    H141521   0.950   0.769  15.234  0.7797 -0.7564  0.0799
 6702TIP3    H241522   0.816   0.750  15.301 -0.3935  0.3901 -1.8331
 6703TIP3   OH241523   2.256   5.761  12.853  0.5738 -0.3994 -0.0153
 6703TIP3    H141524   2.212   5.678  12.832 -1.5440  0.4521  0.7503
 6703TIP3    H241525   2.343   5.735  12.882  0.6038 -2.2075 -1.5096
 6704TIP3   OH241526   2.121   4.999  17.248 -0.1879  0.2026  0.3961
 6704TIP3    H141527   2.211   5.029  17.257 -0.4109  0.8575  0.4496
 6704TIP3    H241528   2.087   5.047  17.173 -0.8318  0.7890  1.0527
 6705TIP3   OH241529   0.776   2.709   4.936 -0.3167  0.1110  0.8564
 6705TIP3    H141530   0.845   2.736   4.996 -0.1641  0.4064  0.5573
 6705TIP3    H241531   0.821   2.654   4.872 -0.2321  0.7731  0.3261
 6706TIP3   OH241532   1.962   3.169  13.793  0.1616  0.3002 -0.1023
 6706TIP3    H141533   1.879   3.163  13.840  1.1648 -1.6102  1.5822
 6706TIP3    H241534   1.954   3.248  13.739 -2.7541  0.1175 -0.0889
 6707TIP3   OH241535   0.910   1.710  16.606 -0.0048 -0.3496  0.4556
 6707TIP3    H141536   0.841   1.677  16.548 -0.0169 -0.2461  0.4119
 6707TIP3    H241537   0.991   1.674  16.570  0.0343  0.0687  0.1193
 6708TIP3   OH241538   5.997   1.376  15.813  0.1732 -0.0127  0.2032
 6708TIP3    H141539   6.012   1.298  15.866  0.8355 -0.1444 -0.1694
 6708TIP3    H241540   6.084   1.409  15.793 -0.0708  0.1861 -0.5705
 6709TIP3   OH241541   6.516   3.439   4.823 -0.2935  0.7420  0.1219
 6709TIP3    H141542   6.584   3.506   4.820 -0.6010  1.2475  2.5432
 6709TIP3    H241543   6.434   3.489   4.813 -0.4129  0.3360 -1.0849
 6710TIP3   OH241544   4.802   4.775  11.690  0.4902  0.0564  0.4712
 6710TIP3    H141545   4.852   4.695  11.683  0.9002  0.2374  1.2193
 6710TIP3    H241546   4.820   4.823  11.609  0.6067 -0.3917  0.2324
 6711TIP3   OH241547   0.927   6.359  13.814  0.3074  0.1093 -0.2588
 6711TIP3    H141548   0.949   6.435  13.759 -0.1950  0.9957  0.7252
 6711TIP3    H241549   0.906   6.290  13.751  2.6542  0.1630 -1.2065
 6712TIP3   OH241550   5.562   6.712  16.986  0.4765 -0.1433 -0.5868
 6712TIP3    H141551   5.635   6.773  16.999 -1.6917  2.1895  1.4332
 6712TIP3    H241552   5.542   6.719  16.892  3.1103 -1.3079 -1.3388
 6713TIP3   OH241553   4.791   5.381  17.403 -0.0239 -0.1968 -0.1450
 6713TIP3    H141554   4.714   5.354  17.452 -0.3150  1.5221  0.4214
 6713TIP3    H241555   4.767   5.466  17.365  1.7606  0.6606  0.5232
 6714TIP3   OH241556   0.580   5.361   2.134  0.8458 -0.4676 -0.5021
 6714TIP3    H141557   0.657   5.336   2.083  2.4348 -1.0514  1.9895
 6714TIP3    H241558   0.540   5.278   2.160 -1.0714 -0.1756 -2.2635
 6715TIP3   OH241559   2.906   2.346  15.192 -0.1258  0.0263 -0.3853
 6715TIP3    H141560   2.841   2.277  15.206 -0.5539  0.3031 -0.9994
 6715TIP3    H241561   2.983   2.300  15.157 -0.0547 -0.2715  0.1499
 6716TIP3   OH241562   3.019   4.672  15.717  0.3255  0.4269  0.1919
 6716TIP3    H141563   3.087   4.612  15.686 -1.7789 -1.1290 -1.6760
 6716TIP3    H241564   2.973   4.623  15.784  0.0885  0.8848  0.3633
 6717TIP3   OH241565   0.675   1.701  11.727 -0.0261 -0.1786 -0.1527
 6717TIP3    H141566   0.583   1.719  11.744 -0.4237  1.3293 -3.2327
 6717TIP3    H241567   0.714   1.787  11.712  1.8537 -0.8201  0.6906
 6718TIP3   OH241568   4.365   0.878   4.538 -0.0595  0.5690  0.5236
 6718TIP3    H141569   4.328   0.962   4.510 -0.9455  0.1568  0.4322
 6718TIP3    H241570   4.296   0.814   4.521  0.4592 -0.1270  0.9657
 6719TIP3   OH241571   5.689   4.168   4.192  0.0817  0.1049  0.3535
 6719TIP3    H141572   5.738   4.162   4.274  1.0341 -2.0660 -0.2896
 6719TIP3    H241573   5.600   4.144   4.216  0.2937 -0.2620  0.7993
 6720TIP3   OH241574   6.055   1.779   5.532  0.1389 -0.0512 -0.4755
 6720TIP3    H141575   6.105   1.845   5.484 -2.0069  1.4688 -0.7670
 6720TIP3    H241576   5.973   1.771   5.484 -0.8556 -0.7249  1.2327
 6721TIP3   OH241577   0.326   4.096  16.625  0.0344  0.5854  0.3251
 6721TIP3    H141578   0.337   4.126  16.534 -0.6792 -0.5967 -0.1799
 6721TIP3    H241579   0.304   4.175  16.673  1.0572  1.3468 -0.4031
 6722TIP3   OH241580   1.366   5.863  14.634 -0.3510 -0.3020 -0.1017
 6722TIP3    H141581   1.390   5.878  14.543 -2.1771  1.9548 -0.3197
 6722TIP3    H241582   1.383   5.947  14.677  2.5960 -1.8998  2.2692
 6723TIP3   OH241583   2.649   4.646   0.188 -0.5236 -0.8799 -0.4943
 6723TIP3    H141584   2.580   4.679   0.246  0.5019 -0.0569  0.3010
 6723TIP3    H241585   2.714   4.717   0.185 -1.1081 -0.3159 -3.7214
 6724TIP3   OH241586   4.309   1.406   4.387  0.3668  0.1290 -0.6637
 6724TIP3    H141587   4.309   1.406   4.291 -0.9557 -0.0257 -0.6828
 6724TIP3    H241588   4.399   1.430   4.411  0.2135  2.2120 -1.9378
 6725TIP3   OH241589   3.001   2.921  12.858 -0.2507  0.3786  0.1311
 6725TIP3    H141590   2.949   2.993  12.821  0.3453 -0.3306 -2.2646
 6725TIP3    H241591   2.935   2.855  12.881 -0.6170  0.6551 -0.0980
 6726TIP3   OH241592   4.907   3.999   3.152  0.2413 -0.5197 -0.3776
 6726TIP3    H141593   4.908   3.948   3.233 -3.2916 -2.5514 -1.3946
 6726TIP3    H241594   4.960   3.947   3.091  2.6335  0.8499  0.4045
 6727TIP3   OH241595   0.358   0.217   1.808 -0.1021 -0.2859 -0.2157
 6727TIP3    H141596   0.430   0.266   1.849  0.1963 -1.4356  0.6701
 6727TIP3    H241597   0.381   0.216   1.715 -0.6760  2.1671 -0.4608
 6728TIP3   OH241598   5.431   1.289  13.971  0.1777  0.3440 -0.4980
 6728TIP3    H141599   5.393   1.206  13.941  1.7385 -0.5586 -0.0594
 6728TIP3    H241600   5.426   1.347  13.894 -1.3386  0.0346 -0.6790
 6729TIP3   OH241601   6.709   2.796   4.840 -0.1943 -0.1972 -0.5345
 6729TIP3    H141602   6.802   2.780   4.821  0.0584 -0.2904  0.7051
 6729TIP3    H241603   6.706   2.884   4.876 -0.4302 -0.5595  0.3685
 6730TIP3   OH241604   2.687   4.404  13.300  0.1636  0.2516  0.2815
 6730TIP3    H141605   2.755   4.463  13.335  0.9251  0.1999 -1.0546
 6730TIP3    H241606   2.728   4.363  13.225 -1.6264  0.8166 -1.0676
 6731TIP3   OH241607   6.591   0.687  11.780 -0.1662 -0.2291 -0.1540
 6731TIP3    H141608   6.672   0.667  11.827  0.5424 -0.3419 -1.3736
 6731TIP3    H241609   6.568   0.606  11.736  0.7936  0.5810 -2.2958
 6732TIP3   OH241610   4.496   6.160   5.186  0.4271 -0.3068  0.1803
 6732TIP3    H141611   4.527   6.249   5.164  1.3249 -0.6861 -0.1512
 6732TIP3    H241612   4.544   6.137   5.265 -0.9124  0.0625  1.1311
 6733TIP3   OH241613   6.027   0.064  15.097 -0.0658  0.2776 -0.1489
 6733TIP3    H141614   6.003   0.088  15.007  0.4570  1.3943 -0.0058
 6733TIP3    H241615   5.945   0.074  15.146 -0.1094  0.7386 -0.3031
 6734TIP3   OH241616   4.567   1.415  16.325 -0.5712  0.3262 -0.2587
 6734TIP3    H141617   4.597   1.377  16.243  1.0542  0.1917  0.3611
 6734TIP3    H241618   4.472   1.412  16.320 -0.5362  1.1054 -2.5025
 6735TIP3   OH241619   5.802   4.128  14.793 -0.4644 -0.4665 -0.3045
 6735TIP3    H141620   5.878   4.165  14.749  1.7579 -2.5149  1.5372
 6735TIP3    H241621   5.788   4.185  14.868 -0.2126 -0.5343 -0.2046
 6736TIP3   OH241622   1.042   3.363  12.549  0.1189  0.4602 -0.2932
 6736TIP3    H141623   1.035   3.359  12.454 -0.3459 -0.4034 -0.2289
 6736TIP3    H241624   1.125   3.407  12.565 -0.0241  1.0557 -1.0932
 6737TIP3   OH241625   6.259   3.338  16.177 -0.5401 -0.1002 -0.7329
 6737TIP3    H141626   6.324   3.362  16.242 -1.5385 -1.4916  0.8548
 6737TIP3    H241627   6.310   3.302  16.104  0.5407  0.4432 -0.2600
 6738TIP3   OH241628   1.419   2.484   1.532  0.0041  0.1373  0.1042
 6738TIP3    H141629   1.502   2.435   1.527 -0.1536 -0.1917  0.6406
 6738TIP3    H241630   1.351   2.416   1.530 -0.2814  0.4295 -0.8099
 6739TIP3   OH241631   1.192   4.391  12.097 -0.2744  0.7562 -0.5282
 6739TIP3    H141632   1.214   4.423  12.010 -1.1653  1.0817 -0.6414
 6739TIP3    H241633   1.213   4.465  12.155 -0.1251  0.7052 -0.5156
 6740TIP3   OH241634   2.914   4.420   3.556 -0.3159  0.3554  0.1783
 6740TIP3    H141635   2.977   4.370   3.608 -0.7912 -0.0736  0.3579
 6740TIP3    H241636   2.949   4.508   3.553  0.1042  0.2056  0.5898
 6741TIP3   OH241637   4.904   3.677   1.082  0.0416  0.1334  0.2553
 6741TIP3    H141638   4.982   3.698   1.031  1.2281 -1.4594  1.3158
 6741TIP3    H241639   4.836   3.664   1.017  0.7293  1.2117 -0.7217
 6742TIP3   OH241640   5.462   6.089  16.049 -0.2057  0.2196  0.6230
 6742TIP3    H141641   5.471   6.160  15.985  1.6163 -0.8702 -0.4091
 6742TIP3    H241642   5.396   6.031  16.011 -0.1993  0.3267  0.4494
 6743TIP3   OH241643   1.394   3.510   0.831  0.2307  0.0400 -0.3212
 6743TIP3    H141644   1.316   3.459   0.809 -0.4606 -0.3876  2.6266
 6743TIP3    H241645   1.465   3.446   0.835 -0.0713 -0.2365  0.7048
 6744TIP3   OH241646   5.943   0.132  14.827 -0.1003  0.1201  0.4685
 6744TIP3    H141647   5.859   0.169  14.856 -0.3138  0.0030  0.0058
 6744TIP3    H241648   5.973   0.193  14.759 -0.1916 -0.2667  0.0829
 6745TIP3   OH241649   0.612   6.318   2.928 -0.3599  0.5848 -0.0229
 6745TIP3    H141650   0.612   6.383   2.999  0.4089  1.4709 -0.8084
 6745TIP3    H241651   0.548   6.352   2.865 -0.1204  0.4553 -0.3355
 6746TIP3   OH241652   6.741   2.093  13.486  0.2550 -0.2915 -0.3341
 6746TIP3    H141653   6.774   2.074  13.574 -1.4266  0.5236  0.5230
 6746TIP3    H241654   6.652   2.058  13.486 -0.3480  1.1729 -1.1462
 6747TIP3   OH241655   4.925   3.223   0.274  0.2272 -0.1083 -0.1688
 6747TIP3    H141656   4.844   3.247   0.229  0.6411  2.2266  0.2408
 6747TIP3    H241657   4.994   3.269   0.226  1.0303 -0.0722  0.9798
 6748TIP3   OH241658   2.847   2.781  15.798  0.1398 -0.1643  0.6833
 6748TIP3    H141659   2.904   2.707  15.777 -0.2042 -0.0923 -0.5759
 6748TIP3    H241660   2.895   2.858  15.768 -0.2217 -0.0227  0.4616
 6749TIP3   OH241661   3.351   4.320   0.331 -0.4433 -0.0573 -0.3531
 6749TIP3    H141662   3.321   4.260   0.398  0.7275 -1.2189 -0.8210
 6749TIP3    H241663   3.321   4.282   0.249 -1.4724  1.1155 -0.5495
 6750TIP3   OH241664   3.295   0.448  12.735  0.5561  0.1221  0.4275
 6750TIP3    H141665   3.331   0.361  12.720 -0.9934 -0.2818 -1.2812
 6750TIP3    H241666   3.360   0.508  12.700  1.4020 -0.3544  1.1514
 6751TIP3   OH241667   3.451   2.728   4.437  0.1868  0.1906  0.5435
 6751TIP3    H141668   3.488   2.685   4.514 -0.8908 -0.2727  0.8203
 6751TIP3    H241669   3.468   2.667   4.365  0.5087  0.2678  0.5525
 6752TIP3   OH241670   1.499   5.254   4.827  0.1781  0.7288 -0.3601
 6752TIP3    H141671   1.508   5.193   4.900  1.4404  1.6520  0.2906
 6752TIP3    H241672   1.586   5.291   4.815 -0.0774  0.8697 -2.1218
 6753TIP3   OH241673   0.744   4.883  12.349 -0.4157  0.2033  0.1294
 6753TIP3    H141674   0.782   4.887  12.437 -1.1747  0.8435  0.4281
 6753TIP3    H241675   0.681   4.811  12.354 -1.4073  1.0838  0.4885
 6754TIP3   OH241676   5.832   1.344   2.023  0.0493  0.5094  0.7263
 6754TIP3    H141677   5.895   1.348   1.951 -0.1174 -0.3002  0.5295
 6754TIP3    H241678   5.746   1.342   1.981 -0.0623  0.4404  0.9531
 6755TIP3   OH241679   4.847   1.446   0.222  0.0558  0.1784  0.5577
 6755TIP3    H141680   4.885   1.373   0.174  0.2779  2.1429 -2.5924
 6755TIP3    H241681   4.756   1.421   0.236 -0.0587 -0.4564 -1.1280
 6756TIP3   OH241682   2.406   2.845   1.251  0.1864 -0.4389  0.4989
 6756TIP3    H141683   2.321   2.888   1.255 -0.4690 -1.5851 -0.3507
 6756TIP3    H241684   2.388   2.759   1.212  1.3720 -1.6578  2.4622
 6757TIP3   OH241685   6.743   5.489   4.549  0.0556  0.0746 -0.0408
 6757TIP3    H141686   6.712   5.469   4.637 -2.0722  1.2352 -0.4424
 6757TIP3    H241687   6.755   5.404   4.507  0.5958 -0.4703  1.1916
 6758TIP3   OH241688   5.889   0.488   3.845 -0.4101 -0.3776  0.3328
 6758TIP3    H141689   5.952   0.559   3.832 -0.8154 -0.1385 -0.3858
 6758TIP3    H241690   5.933   0.410   3.811 -0.5944 -0.1636 -0.4156
 6759TIP3   OH241691   2.163   1.090   2.988  0.1762  0.8670 -0.0070
 6759TIP3    H141692   2.181   1.111   3.080  0.7655  2.5488 -0.4631
 6759TIP3    H241693   2.230   1.026   2.965  0.8502  1.4268  0.3744
 6760TIP3   OH241694   0.366   4.050  14.654 -0.2822  0.0401  0.3877
 6760TIP3    H141695   0.348   4.128  14.602 -0.0603 -0.1680 -0.0057
 6760TIP3    H241696   0.295   3.990  14.632 -0.3030  0.0308  0.4817
 6761TIP3   OH241697   3.308   1.331   3.630  0.6790 -0.3005 -0.0772
 6761TIP3    H141698   3.243   1.263   3.650 -0.5202  0.3471 -1.5963
 6761TIP3    H241699   3.339   1.360   3.716 -2.1304  0.4052  0.8081
 6762TIP3   OH241700   1.549   1.744   1.150 -0.3318  0.2942  0.0784
 6762TIP3    H141701   1.563   1.701   1.235  0.2808 -1.1389 -0.7209
 6762TIP3    H241702   1.454   1.739   1.137 -0.3098 -0.5440  0.1605
 6763TIP3   OH241703   3.205   6.607  11.772 -0.4388  0.4657 -0.0991
 6763TIP3    H141704   3.194   6.668  11.699 -1.1745  0.3600 -0.0785
 6763TIP3    H241705   3.241   6.528  11.733 -1.6418  0.1011 -0.4889
 6764TIP3   OH241706   6.018   5.766   0.579  0.3745  0.1082  0.0235
 6764TIP3    H141707   5.996   5.739   0.668 -2.1675 -0.2197 -0.6139
 6764TIP3    H241708   5.978   5.853   0.570  1.5755  0.6285 -0.4611
 6765TIP3   OH241709   0.009   0.917   1.141 -0.2062 -0.0201  0.5496
 6765TIP3    H141710   0.061   0.923   1.222  0.7318  1.2839 -0.1175
 6765TIP3    H241711   0.045   0.841   1.095 -0.6110 -0.6479  1.2391
 6766TIP3   OH241712   1.062   3.561  14.211 -0.5540  0.2385 -0.0049
 6766TIP3    H141713   1.072   3.580  14.305  1.0200 -1.3695  0.2126
 6766TIP3    H241714   1.136   3.606  14.170  0.5302 -1.4698 -0.0421
 6767TIP3   OH241715   5.289   0.296   4.370  0.2976  0.0545  0.3841
 6767TIP3    H141716   5.231   0.231   4.408  0.0301  1.1161  1.8831
 6767TIP3    H241717   5.231   0.355   4.321  0.5023 -0.6113 -0.6998
 6768TIP3   OH241718   6.326   0.701   4.416  0.1568  0.5351 -0.1610
 6768TIP3    H141719   6.408   0.654   4.402 -0.8687 -1.8131  1.1122
 6768TIP3    H241720   6.347   0.765   4.483  1.0689  0.2958 -0.2022
 6769TIP3   OH241721   5.922   5.159  15.460 -0.7345  0.3299  0.1325
 6769TIP3    H141722   5.869   5.187  15.535 -1.4002  1.0667 -0.5823
 6769TIP3    H241723   5.894   5.217  15.389  0.3074  0.0385 -0.5314
 6770TIP3   OH241724   5.111   2.029   5.068  0.2239 -0.2103  0.4000
 6770TIP3    H141725   5.114   1.950   5.121 -0.9750 -1.0833 -0.7534
 6770TIP3    H241726   5.154   2.096   5.121  1.2581 -1.6168  1.4091
 6771TIP3   OH241727   1.258   5.463   2.628  0.0958 -0.1280  1.0913
 6771TIP3    H141728   1.347   5.432   2.640  0.4009  0.0910 -0.4511
 6771TIP3    H241729   1.260   5.513   2.546 -0.7201  2.6216  2.5902
 6772TIP3   OH241730   0.154   2.060  16.674 -0.1774  0.5198 -0.0027
 6772TIP3    H141731   0.176   1.995  16.740  0.1352  0.7102  0.0867
 6772TIP3    H241732   0.234   2.111  16.664  0.1171 -0.1485 -1.2763
 6773TIP3   OH241733   5.917   3.958  13.033  0.1774  0.6634 -0.1145
 6773TIP3    H141734   5.982   3.923  12.972 -1.1767 -0.1221 -1.1509
 6773TIP3    H241735   5.899   4.046  13.001 -1.3863 -0.1510 -1.6195
 6774TIP3   OH241736   3.157   5.501   5.808 -0.0229 -0.2208 -0.8492
 6774TIP3    H141737   3.083   5.443   5.790 -0.0048 -0.3930 -0.3898
 6774TIP3    H241738   3.154   5.513   5.903 -0.3292  0.9253 -0.9861
 6775TIP3   OH241739   5.808   6.442   2.628  0.7501 -0.7236  0.0644
 6775TIP3    H141740   5.725   6.429   2.674 -0.3634 -1.2174 -1.9733
 6775TIP3    H241741   5.812   6.372   2.564  2.3314 -0.1893 -0.4861
 6776TIP3   OH241742   3.282   1.872  13.314 -0.2215 -0.0523  0.5880
 6776TIP3    H141743   3.294   1.787  13.355 -0.5842 -0.9116 -1.0179
 6776TIP3    H241744   3.305   1.858  13.222 -0.0591  1.6420  0.3407
 6777TIP3   OH241745   5.210   0.034  13.490  0.3665  0.0421 -0.0282
 6777TIP3    H141746   5.217   0.130  13.492 -0.4616  0.1091  0.9256
 6777TIP3    H241747   5.280   0.005  13.432  0.8505  1.2104 -0.0488
 6778TIP3   OH241748   3.020   2.168   3.315  0.1456  0.2304  0.5018
 6778TIP3    H141749   2.941   2.185   3.264 -0.0242 -1.0379  0.2924
 6778TIP3    H241750   3.042   2.077   3.295  1.4771  0.4597  0.8098
 6779TIP3   OH241751   2.277   1.237  14.016 -0.3365 -0.1820 -0.0528
 6779TIP3    H141752   2.286   1.166  13.953 -1.1900  0.3242 -0.7661
 6779TIP3    H241753   2.360   1.237  14.064  0.9308  0.3149 -2.1013
 6780TIP3   OH241754   0.518   0.989  17.305 -0.3427 -0.1537 -0.3030
 6780TIP3    H141755   0.599   1.014  17.349 -0.6552  0.1694  0.0992
 6780TIP3    H241756   0.497   0.903  17.340 -0.3599 -0.0831 -0.1395
 6781TIP3   OH241757   3.822   5.664  13.817  0.0637 -0.0122  0.0064
 6781TIP3    H141758   3.814   5.595  13.751 -2.0600 -0.0575  0.2357
 6781TIP3    H241759   3.741   5.714  13.810  0.9562  1.6191  0.8047
 6782TIP3   OH241760   1.908   5.809  14.858 -0.0102 -0.2320  0.5444
 6782TIP3    H141761   1.992   5.852  14.843 -0.6374  0.6152 -0.7452
 6782TIP3    H241762   1.843   5.871  14.825 -1.1015 -1.1661  0.8548
 6783TIP3   OH241763   4.837   3.679   4.717 -0.2138  0.0604 -0.0868
 6783TIP3    H141764   4.891   3.757   4.732 -0.8978  0.6631 -0.6907
 6783TIP3    H241765   4.864   3.617   4.785 -1.6172  1.8580  2.2553
 6784TIP3   OH241766   3.923   1.740  12.128 -0.0267  0.2674  0.0303
 6784TIP3    H141767   3.900   1.649  12.111 -0.5992  0.4132  0.0186
 6784TIP3    H241768   3.922   1.781  12.041 -0.8745  0.5334  0.1554
 6785TIP3   OH241769   6.003   1.935  14.707 -0.6644  0.5422  0.2110
 6785TIP3    H141770   6.068   1.923  14.637  0.1080 -0.4224  1.0598
 6785TIP3    H241771   5.951   2.010  14.678 -0.0830  0.4507 -1.1813
 6786TIP3   OH241772   3.812   5.108  14.979  0.0451 -0.1493 -0.1310
 6786TIP3    H141773   3.718   5.091  14.989  0.1269  0.2942  1.8000
 6786TIP3    H241774   3.816   5.201  14.956 -0.0065 -0.2411 -0.5066
 6787TIP3   OH241775   0.846   1.406   0.228  0.0767  0.0950 -0.3967
 6787TIP3    H141776   0.776   1.369   0.282  0.8477  1.0664  1.3668
 6787TIP3    H241777   0.836   1.501   0.237  0.4432  0.2841 -1.7278
 6788TIP3   OH241778   3.964   2.412  11.430  0.2648  0.2289  0.3298
 6788TIP3    H141779   3.900   2.482  11.415 -0.6694 -0.7428 -0.4050
 6788TIP3    H241780   4.004   2.397  11.345  0.9141  0.2902  0.6202
 6789TIP3   OH241781   3.925   1.924  17.286  0.3433  0.0534  0.2720
 6789TIP3    H141782   3.910   1.833  17.261  1.0041  0.1650 -0.5862
 6789TIP3    H241783   3.949   1.920  17.379  0.4526 -0.6578  0.2189
 6790TIP3   OH241784   4.938   3.045  13.445 -0.5708  0.3522  0.2810
 6790TIP3    H141785   4.933   2.950  13.448  0.4253  0.2226 -1.1611
 6790TIP3    H241786   4.930   3.067  13.352  0.5042  1.5737  0.4395
 6791TIP3   OH241787   1.250   0.059  14.004 -0.0247  0.0628 -1.0856
 6791TIP3    H141788   1.220   0.117  14.074  1.1713 -2.7094  1.9805
 6791TIP3    H241789   1.312   0.112  13.953  1.5385  1.3420  1.9247
 6792TIP3   OH241790   0.128   2.866   3.667  0.6809  0.2618  0.0115
 6792TIP3    H141791   0.129   2.821   3.752  0.4423 -0.6475 -0.4669
 6792TIP3    H241792   0.167   2.804   3.606  2.4036  1.5325 -0.2599
 6793TIP3   OH241793   0.579   6.138  11.761 -0.4443  0.3147  0.4856
 6793TIP3    H141794   0.643   6.070  11.739 -1.2600  0.4595 -2.8227
 6793TIP3    H241795   0.632   6.209  11.797  0.9636 -0.4418  0.0037
 6794TIP3   OH241796   2.339   5.523  17.284 -0.3254 -0.5800  0.0823
 6794TIP3    H141797   2.336   5.534  17.189 -2.1030 -0.2189  0.1371
 6794TIP3    H241798   2.432   5.521  17.305  0.1371  1.3130 -1.4420
 6795TIP3   OH241799   4.443   0.236  15.167  0.3774  0.2928  0.3405
 6795TIP3    H141800   4.508   0.185  15.216 -0.0922 -0.0686  0.5948
 6795TIP3    H241801   4.430   0.188  15.086  1.4544  1.1037 -0.3440
 6796TIP3   OH241802   0.517   2.587  12.401 -0.2458  0.0698 -0.1594
 6796TIP3    H141803   0.495   2.497  12.379  0.9008 -0.1087 -0.6437
 6796TIP3    H241804   0.467   2.606  12.481  0.6161 -1.4875  0.8017
 6797TIP3   OH241805   2.571   4.743  15.089  0.3473  0.1775  0.5208
 6797TIP3    H141806   2.483   4.737  15.125 -0.0285 -0.3943 -0.4699
 6797TIP3    H241807   2.583   4.662  15.040  1.6749 -0.0529  1.1878
 6798TIP3   OH241808   1.493   1.727   0.878  0.7006 -0.2554 -0.0471
 6798TIP3    H141809   1.546   1.657   0.838  1.2429 -0.7944  1.5433
 6798TIP3    H241810   1.538   1.748   0.960 -0.1929  1.0472  0.1443
 6799TIP3   OH241811   6.003   1.773   2.625  0.3142 -0.2647  0.6349
 6799TIP3    H141812   5.909   1.769   2.604  0.4068 -0.1076  0.1747
 6799TIP3    H241813   6.011   1.848   2.684  0.1806 -0.1276  0.4813
 6800TIP3   OH241814   0.859   6.159  13.654 -0.6245 -0.2829  0.0857
 6800TIP3    H141815   0.851   6.177  13.560  0.2467 -1.8841 -0.3177
 6800TIP3    H241816   0.825   6.071  13.665 -1.3379  0.1246  1.4188
 6801TIP3   OH241817   3.670   6.650   1.798  0.2442  0.1976  0.5928
 6801TIP3    H141818   3.619   6.638   1.879 -2.4805 -0.0479 -1.0237
 6801TIP3    H241819   3.643   6.577   1.742  0.2228  1.6432 -1.3771
 6802TIP3   OH241820   2.359   2.942   3.557 -0.2520  1.1629 -0.3615
 6802TIP3    H141821   2.451   2.958   3.540  0.0505 -1.4749 -1.8065
 6802TIP3    H241822   2.359   2.879   3.629 -0.7880 -0.2083 -1.5170
 6803TIP3   OH241823   3.695   1.211   0.357 -0.3259  0.2659 -0.2403
 6803TIP3    H141824   3.771   1.247   0.310 -0.2187  0.1926 -0.1246
 6803TIP3    H241825   3.622   1.267   0.330 -0.6470 -0.8713 -1.9265
 6804TIP3   OH241826   6.725   0.634  13.915  0.0660 -0.4249 -0.6023
 6804TIP3    H141827   6.818   0.646  13.931 -0.6216  1.8060  2.7596
 6804TIP3    H241828   6.708   0.682  13.833  1.4760  1.5509  0.1903
 6805TIP3   OH241829   2.043   1.321   5.377 -0.5631  0.5639 -0.5510
 6805TIP3    H141830   1.991   1.388   5.333 -1.1364 -0.3989 -1.3634
 6805TIP3    H241831   2.064   1.257   5.309 -0.5354 -0.3902  0.3267
 6806TIP3   OH241832   1.567   3.322  17.228 -0.3674  0.1831  0.2018
 6806TIP3    H141833   1.605   3.250  17.279  2.9582  1.1239 -0.7300
 6806TIP3    H241834   1.637   3.350  17.170 -2.7849  1.7193 -2.1954
 6807TIP3   OH241835   1.211   3.723  16.866  0.0192 -0.0985 -0.0593
 6807TIP3    H141836   1.226   3.722  16.961 -0.5859 -1.3457  0.0523
 6807TIP3    H241837   1.123   3.687  16.856 -0.5993  1.5887 -1.0159
 6808TIP3   OH241838   4.096   3.870   3.452  0.1420  0.7519  0.4076
 6808TIP3    H141839   4.074   3.888   3.544  0.7921  1.3686  0.4461
 6808TIP3    H241840   4.186   3.899   3.442  0.9042 -1.4661  0.1728
 6809TIP3   OH241841   1.575   5.657   2.384 -0.0001  0.7683 -0.3098
 6809TIP3    H141842   1.574   5.586   2.320 -0.4798  0.7305 -0.2570
 6809TIP3    H241843   1.642   5.717   2.350  0.6632  0.1263 -0.1618
 6810TIP3   OH241844   6.745   3.526  16.967 -0.5966 -0.1704 -0.0478
 6810TIP3    H141845   6.834   3.545  16.938 -0.3007  0.1970  1.0546
 6810TIP3    H241846   6.697   3.608  16.951 -0.3959  0.0838  0.6160
 6811TIP3   OH241847   5.556   1.675  15.634  0.2203  0.1608  0.5934
 6811TIP3    H141848   5.609   1.635  15.565 -1.1434 -1.2179  0.2993
 6811TIP3    H241849   5.509   1.746  15.589  1.7276  1.3892  0.8535
 6812TIP3   OH241850   0.784   4.991  11.126  0.1903  0.3321  0.3649
 6812TIP3    H141851   0.735   4.910  11.110  0.8591 -0.5767  2.4970
 6812TIP3    H241852   0.772   5.043  11.047 -2.2343 -0.8451 -0.1166
 6813TIP3   OH241853   2.015   0.644  11.478  0.7563  0.3590  0.8294
 6813TIP3    H141854   2.061   0.711  11.529  2.4660  1.1268 -1.5372
 6813TIP3    H241855   1.923   0.653  11.504  0.5280  5.0407 -0.6727
 6814TIP3   OH241856   1.766   0.435  14.187 -0.1249 -0.1314  0.4754
 6814TIP3    H141857   1.772   0.472  14.099 -1.5314 -0.6875  0.1064
 6814TIP3    H241858   1.853   0.445  14.224  0.0602  1.6630 -0.3504
 6815TIP3   OH241859   3.759   3.125  13.411 -0.7069 -0.3844  0.1206
 6815TIP3    H141860   3.840   3.156  13.450  0.0725  0.5634 -2.1065
 6815TIP3    H241861   3.695   3.194  13.429 -1.1591 -1.2430  2.0884
 6816TIP3   OH241862   6.223   4.358   5.214  0.4689  0.1035 -0.2091
 6816TIP3    H141863   6.143   4.403   5.186 -1.3113 -3.4062 -1.4781
 6816TIP3    H241864   6.291   4.424   5.210 -1.9331  2.7125 -1.4792
 6817TIP3   OH241865   2.848   2.196   0.861 -0.2122 -0.2673 -0.1655
 6817TIP3    H141866   2.896   2.271   0.829 -0.4418 -0.5872 -1.3281
 6817TIP3    H241867   2.766   2.232   0.896  0.6921  0.2404  1.5254
 6818TIP3   OH241868   2.633   0.694  15.740 -0.1497  0.0515 -0.1956
 6818TIP3    H141869   2.656   0.656  15.825 -1.0665 -0.7840 -0.2936
 6818TIP3    H241870   2.672   0.635  15.676  1.2805  1.1507 -0.3923
 6819TIP3   OH241871   2.025   6.235   5.416 -0.6776 -0.7481 -0.1571
 6819TIP3    H141872   2.030   6.140   5.429 -0.3703 -0.6929  0.1666
 6819TIP3    H241873   1.951   6.248   5.357 -2.2075 -1.0211  1.5836
 6820TIP3   OH241874   3.205   1.940   0.940  0.4929 -0.0462  0.2116
 6820TIP3    H141875   3.228   1.958   0.848  0.3683 -0.5988  0.0668
 6820TIP3    H241876   3.258   1.864   0.963 -0.2307 -0.5527  0.2665
 6821TIP3   OH241877   5.302   6.596  12.117  0.2815 -0.2878  0.2298
 6821TIP3    H141878   5.338   6.630  12.035  0.4776  0.0239  0.4425
 6821TIP3    H241879   5.378   6.574  12.169  0.1779 -2.0758 -0.2995
 6822TIP3   OH241880   6.461   5.391  14.875 -0.5706 -0.6496 -0.1087
 6822TIP3    H141881   6.435   5.481  14.896 -1.9589 -0.7907 -1.0808
 6822TIP3    H241882   6.549   5.382  14.912  0.0691  1.4699 -0.9498
 6823TIP3   OH241883   1.636   4.697  16.586 -0.1547  0.1379 -0.3333
 6823TIP3    H141884   1.729   4.721  16.586 -0.7751  2.8926  1.3623
 6823TIP3    H241885   1.608   4.711  16.495  0.9514 -0.3612 -0.7764
 6824TIP3   OH241886   5.994   5.169   4.018 -0.2860  0.1728  0.0959
 6824TIP3    H141887   6.027   5.260   4.020  1.5092 -0.3809  3.2699
 6824TIP3    H241888   5.979   5.151   3.925  2.1430  2.7623 -0.9613
 6825TIP3   OH241889   1.533   2.481  17.343  0.1681 -0.2609  0.0678
 6825TIP3    H141890   1.513   2.398  17.387 -1.1740  0.2113  0.3860
 6825TIP3    H241891   1.499   2.548  17.402  4.6992  0.8562  1.8716
 6826TIP3   OH241892   5.320   6.035  13.005  0.0574  0.5497  0.6791
 6826TIP3    H141893   5.391   6.098  13.015  0.6414 -0.1810  1.3095
 6826TIP3    H241894   5.269   6.042  13.086  0.0357  0.3279  0.6870
 6827TIP3   OH241895   2.390   5.338  15.334 -0.1743  0.1122  0.0821
 6827TIP3    H141896   2.432   5.265  15.289  1.2090  1.1419 -0.3559
 6827TIP3    H241897   2.399   5.317  15.427 -2.7866 -1.8829  0.0120
 6828TIP3   OH241898   0.462   3.848  12.359 -0.1091  0.4518 -0.0783
 6828TIP3    H141899   0.378   3.873  12.397 -0.6138  0.6291 -1.2864
 6828TIP3    H241900   0.478   3.914  12.292  0.8026  0.1773 -0.1418
 6829TIP3   OH241901   3.726   3.189  15.105 -0.9793  0.7005 -0.1489
 6829TIP3    H141902   3.630   3.185  15.103 -1.1451  3.0883  0.2062
 6829TIP3    H241903   3.746   3.254  15.172  1.1084 -2.6039  2.7815
 6830TIP3   OH241904   5.209   2.101  16.126  0.1640 -0.4788  0.0191
 6830TIP3    H141905   5.150   2.031  16.099 -0.6451 -0.3925  1.4699
 6830TIP3    H241906   5.180   2.178  16.077 -0.1539 -0.7211 -0.1763
 6831TIP3   OH241907   1.370   1.691  13.463  0.3025 -0.0836 -0.0665
 6831TIP3    H141908   1.434   1.756  13.434 -3.4049  3.5588 -1.0716
 6831TIP3    H241909   1.386   1.682  13.557  1.5100  1.6626 -0.0501
 6832TIP3   OH241910   3.454   0.688   1.792  0.5540  0.3964 -0.5129
 6832TIP3    H141911   3.471   0.770   1.839 -0.5338  0.3853 -0.0699
 6832TIP3    H241912   3.375   0.706   1.741 -1.9216 -1.4165  2.3417
 6833TIP3   OH241913   6.196   4.537  11.819  0.0208 -0.3604  0.5065
 6833TIP3    H141914   6.260   4.603  11.792 -1.2947  0.8694  0.3006
 6833TIP3    H241915   6.199   4.471  11.750  0.7668 -0.1059  0.2906
 6834TIP3   OH241916   0.460   3.184   4.051  0.0085  0.1427 -0.1091
 6834TIP3    H141917   0.472   3.135   3.970 -3.0487 -3.3034  1.2196
 6834TIP3    H241918   0.516   3.139   4.115  0.0275  0.8032  0.3446
 6835TIP3   OH241919   6.049   4.388   2.326 -0.6181  0.6656 -0.0276
 6835TIP3    H141920   6.045   4.377   2.421 -0.8582  0.7442 -0.0278
 6835TIP3    H241921   5.963   4.423   2.303  0.0264  2.3289 -0.0584
 6836TIP3   OH241922   1.163   0.807   2.961 -0.3565  0.0293 -0.2472
 6836TIP3    H141923   1.227   0.799   2.890 -0.4780 -0.3778 -0.3151
 6836TIP3    H241924   1.125   0.720   2.968 -1.7459  0.5517 -0.9935
 6837TIP3   OH241925   2.617   3.439   0.937 -0.2896 -0.2062 -0.1535
 6837TIP3    H141926   2.546   3.473   0.992  0.7758  0.2949  0.9522
 6837TIP3    H241927   2.691   3.428   0.996  0.6695 -0.4107 -1.3384
 6838TIP3   OH241928   4.134   0.020  15.223 -0.1272 -0.4205 -0.5973
 6838TIP3    H141929   4.057   0.012  15.279 -0.0544  0.6628 -0.3191
 6838TIP3    H241930   4.099   0.022  15.134 -0.4561  0.4857 -0.4511
 6839TIP3   OH241931   5.218   5.783   1.825 -0.5783  0.4274  0.0234
 6839TIP3    H141932   5.143   5.842   1.826 -1.5445 -0.7268  2.4123
 6839TIP3    H241933   5.286   5.829   1.875  0.5847  1.6518 -2.4754
 6840TIP3   OH241934   1.488   4.592   3.882  0.2018  0.2898 -0.2933
 6840TIP3    H141935   1.502   4.546   3.965  0.5552  1.2004  0.1698
 6840TIP3    H241936   1.534   4.675   3.893  2.2306 -0.4939 -2.2625
 6841TIP3   OH241937   3.605   0.698  10.793  0.5602 -0.3116  0.2008
 6841TIP3    H141938   3.516   0.726  10.774  0.1057 -1.6503  0.2794
 6841TIP3    H241939   3.657   0.731  10.720  0.1897  1.2500  0.5882
 6842TIP3   OH241940   6.240   1.614   0.665 -0.6118  0.4331 -0.0322
 6842TIP3    H141941   6.276   1.528   0.644 -1.3306  0.0190  0.3824
 6842TIP3    H241942   6.194   1.601   0.748  1.7260  1.8919  1.6111
 6843TIP3   OH241943   2.726   2.681   1.305  0.1301  0.1575 -0.0814
 6843TIP3    H141944   2.675   2.717   1.233  1.6203  0.1698 -1.1779
 6843TIP3    H241945   2.794   2.629   1.263 -0.7230 -2.3241  1.4216
 6844TIP3   OH241946   3.409   4.812   5.891  0.5136  0.2154 -0.3379
 6844TIP3    H141947   3.485   4.849   5.936  1.0500  0.2813 -1.2785
 6844TIP3    H241948   3.420   4.838   5.800  0.8052 -2.0858 -1.0102
 6845TIP3   OH241949   0.653   6.049   0.835  0.3858  0.0969 -0.5382
 6845TIP3    H141950   0.582   6.068   0.897  1.2603 -0.5733  0.7040
 6845TIP3    H241951   0.611   5.996   0.767 -0.2424 -0.6077  0.3777
 6846TIP3   OH241952   2.635   0.654   1.563 -0.1001  0.0294  0.0662
 6846TIP3    H141953   2.671   0.567   1.578 -0.6394 -0.0540  1.0015
 6846TIP3    H241954   2.546   0.650   1.600 -1.3113  0.0696 -2.6330
 6847TIP3   OH241955   6.525   4.029  11.195 -0.0908  1.0079  0.2416
 6847TIP3    H141956   6.496   4.113  11.160  0.1529  0.9889 -0.0062
 6847TIP3    H241957   6.596   4.002  11.137  0.3257  0.9839  0.7586
 6848TIP3   OH241958   3.005   6.539  12.601 -0.3122 -0.1555 -0.9211
 6848TIP3    H141959   2.933   6.598  12.623 -0.3962 -0.6283  0.1311
 6848TIP3    H241960   3.079   6.572  12.653 -0.8922 -2.1808  1.3595
 6849TIP3   OH241961   6.417   1.717  15.056  0.4211  0.1888  0.1530
 6849TIP3    H141962   6.476   1.702  15.130  0.3201 -2.4590 -0.2308
 6849TIP3    H241963   6.330   1.714  15.094  0.3861 -0.6743  0.0118
 6850TIP3   OH241964   3.802   4.130  14.900  0.2344 -0.2883  0.7569
 6850TIP3    H141965   3.835   4.166  14.818  1.2996 -0.3354  1.1423
 6850TIP3    H241966   3.718   4.174  14.914 -0.1190 -0.5351 -0.5191
 6851TIP3   OH241967   0.407   0.340   4.658 -0.6303 -0.3398  0.0730
 6851TIP3    H141968   0.500   0.362   4.647 -0.3760 -0.5834  1.6043
 6851TIP3    H241969   0.364   0.424   4.674 -0.3938 -0.3971  1.0824
 6852TIP3   OH241970   3.975   1.314   0.387  0.6285  0.7079 -0.1437
 6852TIP3    H141971   4.001   1.250   0.321  1.0258 -1.1894  1.7584
 6852TIP3    H241972   4.038   1.385   0.377  1.1409  0.1196 -1.2960
 6853TIP3   OH241973   3.841   5.734   2.998 -0.0354 -0.0794  0.7478
 6853TIP3    H141974   3.806   5.811   3.042 -0.8086 -1.0967  1.9712
 6853TIP3    H241975   3.890   5.687   3.066  1.0405 -0.3234 -0.1595
 6854TIP3   OH241976   2.396   4.570   1.115 -0.3197  0.1520  0.1221
 6854TIP3    H141977   2.340   4.506   1.071 -0.6208  0.8594 -0.5328
 6854TIP3    H241978   2.336   4.636   1.149 -0.2848 -1.1474  3.0573
 6855TIP3   OH241979   6.097   3.532  16.056  0.0953 -0.1821  0.1369
 6855TIP3    H141980   6.151   3.464  16.097  0.5209  0.2209  0.2593
 6855TIP3    H241981   6.041   3.563  16.127 -1.0317 -1.3012 -0.2321
 6856TIP3   OH241982   5.831   5.117  14.789 -0.6448 -0.6496 -0.1195
 6856TIP3    H141983   5.917   5.154  14.773 -1.3323  0.2585 -1.9772
 6856TIP3    H241984   5.782   5.186  14.834 -0.5986 -0.9599  0.4236
 6857TIP3   OH241985   1.751   6.701  13.557 -0.6550  0.0194  0.4288
 6857TIP3    H141986   1.726   6.642  13.486  0.1094  1.3398 -0.9753
 6857TIP3    H241987   1.746   6.647  13.636 -1.2171 -1.5642 -0.6583
 6858TIP3   OH241988   0.771   6.541  15.938  0.1635 -0.0662 -0.1939
 6858TIP3    H141989   0.784   6.636  15.946 -0.1049 -0.1164  1.0512
 6858TIP3    H241990   0.800   6.520  15.849  0.6310  1.1169 -0.3371
 6859TIP3   OH241991   4.546   5.171  15.354 -0.1227  0.1607  0.0538
 6859TIP3    H141992   4.500   5.253  15.371  1.7801  0.8617  2.3258
 6859TIP3    H241993   4.609   5.192  15.284  0.1087  0.5537  0.3784
 6860TIP3   OH241994   0.196   2.984   5.755 -0.6303  0.1000  0.5232
 6860TIP3    H141995   0.235   2.953   5.837  0.1342 -0.4856 -0.0352
 6860TIP3    H241996   0.243   3.065   5.736  0.3421 -0.5871 -0.1306
 6861TIP3   OH241997   6.134   3.886   6.296 -0.5525 -0.0997  0.8101
 6861TIP3    H141998   6.202   3.953   6.300  1.2965 -1.6656 -1.1110
 6861TIP3    H241999   6.172   3.818   6.240 -3.9382 -0.8529 -0.8409
 6862TIP3   OH242000   2.270   2.904   2.164  0.0537 -0.0978  0.3944
 6862TIP3    H142001   2.306   2.839   2.223 -0.6298 -0.3784  0.5123
 6862TIP3    H242002   2.309   2.987   2.193  2.9367 -0.7151 -1.3424
 6863TIP3   OH242003   2.142   5.335   6.223  0.3640  0.4656  0.1323
 6863TIP3    H142004   2.156   5.412   6.167 -0.2778  0.5352  0.0648
 6863TIP3    H242005   2.188   5.264   6.177 -2.9838 -0.3149 -2.4035
 6864TIP3   OH242006   3.934   2.148   2.883 -0.7934  0.4710  0.0031
 6864TIP3    H142007   3.913   2.219   2.822 -0.2588 -0.9637 -1.9856
 6864TIP3    H242008   4.028   2.157   2.899 -0.8638  0.6280  0.3357
 6865TIP3   OH242009   5.442   0.864  16.773 -0.2931  0.7773  0.2145
 6865TIP3    H142010   5.456   0.930  16.840 -0.7410  0.0011  1.0947
 6865TIP3    H242011   5.358   0.886  16.734  0.1447  1.4516 -0.3696
 6866TIP3   OH242012   5.448   1.175   1.188 -0.3154 -0.1096  0.2443
 6866TIP3    H142013   5.528   1.174   1.240  0.2678  0.8072 -0.5876
 6866TIP3    H242014   5.470   1.229   1.112 -1.4382 -0.6158 -0.4652
 6867TIP3   OH242015   2.522   1.558   5.292  0.1777  0.0832 -0.0799
 6867TIP3    H142016   2.593   1.521   5.344 -0.0408 -0.2040  0.0145
 6867TIP3    H242017   2.565   1.590   5.213  0.3908 -0.2509 -0.1014
 6868TIP3   OH242018   1.061   6.625   4.214  0.0922  0.3971 -0.5611
 6868TIP3    H142019   1.131   6.571   4.251  1.3375  2.4047  0.1762
 6868TIP3    H242020   1.014   6.566   4.156  2.7358 -0.9565 -1.5107
 6869TIP3   OH242021   5.823   0.343  16.753  0.0716 -0.2858 -0.2643
 6869TIP3    H142022   5.862   0.404  16.816  1.1888 -0.8279 -0.4043
 6869TIP3    H242023   5.765   0.288  16.806 -0.2504  0.3027  0.0097
 6870TIP3   OH242024   2.887   4.832   5.849  0.1069 -0.6330  0.3404
 6870TIP3    H142025   2.888   4.821   5.754  0.3310  0.5428  0.2010
 6870TIP3    H242026   2.799   4.864   5.869  0.5366  0.5844  0.3429
 6871TIP3   OH242027   1.519   4.204   2.434  0.3809  0.1597  0.0519
 6871TIP3    H142028   1.454   4.241   2.375 -0.6620 -3.0489 -1.0212
 6871TIP3    H242029   1.468   4.164   2.505  1.1070 -1.8098 -0.4474
 6872TIP3   OH242030   5.388   5.102  15.745  0.1520  0.3116 -0.3403
 6872TIP3    H142031   5.300   5.137  15.740 -0.0630 -0.2889 -1.0161
 6872TIP3    H242032   5.380   5.024  15.800  0.3532  0.5098 -0.0263
 6873TIP3   OH242033   0.948   3.758  16.728 -0.2207 -0.0355  0.1126
 6873TIP3    H142034   0.941   3.662  16.732  1.6109 -0.1693  1.1528
 6873TIP3    H242035   0.950   3.778  16.634  2.1501 -1.3156 -0.1945
 6874TIP3   OH242036   5.006   4.957   5.613  0.3854  0.2938  0.3280
 6874TIP3    H142037   5.038   5.017   5.681  1.4530  3.2945 -2.5451
 6874TIP3    H242038   5.035   4.997   5.531 -0.5664 -3.2544 -1.9476
 6875TIP3   OH242039   1.402   1.608  13.724  0.3071 -0.1160 -0.1668
 6875TIP3    H142040   1.446   1.688  13.754 -1.4725  0.5206  0.9122
 6875TIP3    H242041   1.445   1.538  13.773  2.0137  0.1191 -1.2618
 6876TIP3   OH242042   0.823   2.715   4.306  0.2004 -0.1424  0.5754
 6876TIP3    H142043   0.825   2.801   4.349 -2.1038  0.4836 -0.4139
 6876TIP3    H242044   0.799   2.735   4.215 -0.5666 -1.8537  0.3747
 6877TIP3   OH242045   5.412   0.514  13.615 -0.4549 -0.0383 -0.2137
 6877TIP3    H142046   5.504   0.500  13.639 -0.9692  0.8750  2.7298
 6877TIP3    H242047   5.408   0.606  13.588 -0.4398 -0.1890 -0.7331
 6878TIP3   OH242048   5.579   1.138   4.190  0.7002  0.3173  0.1619
 6878TIP3    H142049   5.532   1.221   4.186  2.1030  1.1413  0.0780
 6878TIP3    H242050   5.670   1.161   4.170  1.2704 -1.1096  0.9689
 6879TIP3   OH242051   1.710   0.794  12.024  0.3030  0.2497  0.3998
 6879TIP3    H142052   1.738   0.750  11.943  1.2115 -0.4936  1.0964
 6879TIP3    H242053   1.787   0.842  12.053  0.4759 -0.7174  1.6292
 6880TIP3   OH242054   4.788   0.688  16.617  0.3162  0.3600 -0.4197
 6880TIP3    H142055   4.859   0.673  16.556 -2.2806 -1.2357 -3.3016
 6880TIP3    H242056   4.793   0.616  16.680  1.0819  0.1450 -0.7290
 6881TIP3   OH242057   0.518   2.086   2.981 -0.6191 -0.4449  0.5511
 6881TIP3    H142058   0.562   2.115   2.902 -0.9301  0.8044  0.8204
 6881TIP3    H242059   0.584   2.033   3.027 -0.8147 -2.1746 -1.0660
 6882TIP3   OH242060   5.019   4.376   0.695  0.0756  0.2998 -0.2953
 6882TIP3    H142061   5.053   4.455   0.737  0.8670  0.2988 -0.9192
 6882TIP3    H242062   5.093   4.341   0.647  0.3262 -1.9602  1.5840
 6883TIP3   OH242063   1.152   5.603   2.879 -0.2593 -0.4793 -0.4822
 6883TIP3    H142064   1.212   5.673   2.903 -0.3292 -0.2224 -1.0431
 6883TIP3    H242065   1.205   5.544   2.825 -0.6251 -0.0050 -1.3803
 6884TIP3   OH242066   3.698   3.775   5.613  0.2104  0.1689  0.2115
 6884TIP3    H142067   3.759   3.730   5.671 -1.4894  0.9714  2.8320
 6884TIP3    H242068   3.753   3.818   5.548  2.4349  0.6480  2.2824
 6885TIP3   OH242069   5.308   3.856  15.029  0.1888 -0.5303 -0.1093
 6885TIP3    H142070   5.327   3.922  14.962  0.8879 -0.6916 -0.0732
 6885TIP3    H242071   5.221   3.823  15.005  0.7246 -1.1056 -1.3925
 6886TIP3   OH242072   5.844   3.550  16.208  0.3386 -0.0113  0.1841
 6886TIP3    H142073   5.831   3.473  16.152 -1.5981  1.4476 -1.5340
 6886TIP3    H242074   5.777   3.540  16.277 -0.5871  0.5720 -0.6042
 6887TIP3   OH242075   3.587   4.246  13.522  0.0255  0.1812  0.5764
 6887TIP3    H142076   3.546   4.314  13.468 -0.5969 -0.4643  0.1982
 6887TIP3    H242077   3.679   4.271  13.528  0.1717  0.1320 -1.0408
 6888TIP3   OH242078   4.810   6.548  16.912 -0.4327 -0.3434 -0.3683
 6888TIP3    H142079   4.865   6.609  16.961 -1.3425 -0.3510  0.7052
 6888TIP3    H242080   4.871   6.481  16.880  0.3525  0.3062 -0.2799
 6889TIP3   OH242081   1.064   2.169   5.769 -0.0784  0.1812 -0.1484
 6889TIP3    H142082   1.035   2.089   5.813 -1.0544  0.6351  0.0513
 6889TIP3    H242083   1.110   2.218   5.837 -2.8159  1.5389  0.8284
 6890TIP3   OH242084   0.335   5.935   2.718 -0.5588  0.3791 -0.0262
 6890TIP3    H142085   0.258   5.887   2.688  0.8129 -1.8270 -0.2726
 6890TIP3    H242086   0.332   5.927   2.813 -1.4573  1.6957  0.0700
 6891TIP3   OH242087   4.217   0.371  12.995  0.5094  0.7196 -0.1113
 6891TIP3    H142088   4.270   0.417  13.060  0.0971  0.5552  0.3458
 6891TIP3    H242089   4.127   0.395  13.017  0.1916 -1.1378  0.8167
 6892TIP3   OH242090   4.121   3.869  15.179  0.2052  0.0052 -0.1738
 6892TIP3    H142091   4.175   3.816  15.237  1.2667  1.3534  0.1176
 6892TIP3    H242092   4.040   3.819  15.169  0.8589 -1.2803  0.6988
 6893TIP3   OH242093   4.683   4.454   3.808 -0.3128 -0.1006 -0.0482
 6893TIP3    H142094   4.684   4.378   3.751  0.4356 -1.4303  1.6509
 6893TIP3    H242095   4.768   4.497   3.793 -0.0951 -0.4785  0.0873
 6894TIP3   OH242096   1.816   0.193  15.604 -0.0689 -0.0637 -0.6612
 6894TIP3    H142097   1.721   0.179  15.600  0.1615 -1.7112 -1.1350
 6894TIP3    H242098   1.833   0.214  15.696 -1.0043  1.3869 -0.7859
 6895TIP3   OH242099   2.961   5.225   1.623  0.0440  0.0422  0.7383
 6895TIP3    H142100   2.969   5.318   1.641 -1.7293  0.3520  0.0943
 6895TIP3    H242101   2.879   5.199   1.663 -0.5488 -0.7586 -0.9000
 6896TIP3   OH242102   6.534   5.414  11.210  0.2188  0.5062  0.0580
 6896TIP3    H142103   6.543   5.363  11.129 -0.3792  1.3877 -0.5807
 6896TIP3    H242104   6.475   5.362  11.265  0.6343 -0.1005 -0.0586
 6897TIP3   OH242105   3.441   0.077  15.223 -0.4185  0.0632  0.5698
 6897TIP3    H142106   3.493   0.013  15.270  1.3083  0.6411 -0.4785
 6897TIP3    H242107   3.374   0.025  15.177 -0.2218 -0.7759  1.2162
 6898TIP3   OH242108   1.637   4.331   1.081 -0.3181  0.2345  0.1293
 6898TIP3    H142109   1.601   4.246   1.107 -0.7498  0.1906 -0.5740
 6898TIP3    H242110   1.572   4.394   1.111  0.4220  0.4105  1.4457
 6899TIP3   OH242111   3.388   2.910  12.900 -0.2858  0.3128 -0.1139
 6899TIP3    H142112   3.387   2.975  12.830 -0.7362 -1.0933 -1.4817
 6899TIP3    H242113   3.480   2.886  12.909 -0.0218  1.5847  0.8820
 6900TIP3   OH242114   1.418   0.249   3.582 -0.1537  0.9692  0.4639
 6900TIP3    H142115   1.383   0.196   3.654  0.5501  0.4247  0.4137
 6900TIP3    H242116   1.393   0.201   3.503  0.5336  0.6608  0.4209
 6901TIP3   OH242117   1.370   6.156   6.643 -0.0064 -0.3033  0.5301
 6901TIP3    H142118   1.289   6.193   6.605  0.0847  0.4882  1.0737
 6901TIP3    H242119   1.374   6.067   6.609 -1.7791 -0.7991  1.4868
 6902TIP3   OH242120   0.285   6.478   0.510 -0.2320  0.2181  0.2017
 6902TIP3    H142121   0.195   6.488   0.540  0.5016  0.6082  2.4861
 6902TIP3    H242122   0.301   6.384   0.513  0.2669  0.3051  2.7203
 6903TIP3   OH242123   5.734   1.813   0.959 -0.4391 -0.6101 -0.1584
 6903TIP3    H142124   5.689   1.881   0.909  0.4671 -0.8312 -1.3370
 6903TIP3    H242125   5.780   1.761   0.893  1.4233 -0.4737  0.9492
 6904TIP3   OH242126   2.746   5.333  12.052 -0.5810 -1.2615 -0.7132
 6904TIP3    H142127   2.767   5.400  12.116 -0.6236 -0.5722 -1.4070
 6904TIP3    H242128   2.831   5.300  12.023 -0.5023 -0.4566 -1.4478
 6905TIP3   OH242129   3.364   3.003   1.395  0.4201 -0.5543 -0.2787
 6905TIP3    H142130   3.419   3.045   1.329 -0.0325  0.4913 -0.0026
 6905TIP3    H242131   3.426   2.966   1.458  0.8321 -0.6689 -0.7507
 6906TIP3   OH242132   6.702   3.848  11.886  0.7097 -0.3104 -0.5745
 6906TIP3    H142133   6.655   3.769  11.860  1.1855 -0.7816 -0.0466
 6906TIP3    H242134   6.760   3.868  11.812 -0.7270  0.6195 -1.4779
 6907TIP3   OH242135   6.515   6.669  11.717  0.3423 -0.0745  0.1615
 6907TIP3    H142136   6.501   6.616  11.638 -1.2031  1.0357 -0.3544
 6907TIP3    H242137   6.465   6.749  11.702  0.8504  0.6102  1.8444
 6908TIP3   OH242138   0.403   4.147   0.692 -0.4645  0.0432 -0.4865
 6908TIP3    H142139   0.372   4.237   0.709  0.9858  0.4269  0.3076
 6908TIP3    H242140   0.462   4.128   0.765 -0.0505 -1.2304 -1.1264
 6909TIP3   OH242141   3.098   5.021   5.715  0.0170  0.2080 -0.6651
 6909TIP3    H142142   3.101   5.047   5.807 -1.8077 -0.0375 -0.4988
 6909TIP3    H242143   3.075   4.928   5.718  0.1226  0.1581 -1.3739
 6910TIP3   OH242144   0.594   0.621  13.452  0.0585 -0.6411 -0.1081
 6910TIP3    H142145   0.653   0.690  13.481  1.4175 -0.3193 -3.2173
 6910TIP3    H242146   0.517   0.667  13.419 -0.3818 -0.8397  0.6195
 6911TIP3   OH242147   4.743   3.582   6.222  0.1241 -0.0818  0.1385
 6911TIP3    H142148   4.707   3.494   6.216  0.7711 -0.3740  0.3952
 6911TIP3    H242149   4.802   3.589   6.147  0.4464 -0.0501  0.3930
 6912TIP3   OH242150   3.324   5.054   0.202  0.5759 -0.3529 -0.6791
 6912TIP3    H142151   3.327   4.959   0.217  1.4685 -0.4021 -1.1365
 6912TIP3    H242152   3.369   5.091   0.277  0.4122 -0.3010 -0.6063
 6913TIP3   OH242153   1.728   6.553   3.135  0.6550 -0.5121 -0.4070
 6913TIP3    H142154   1.696   6.599   3.213  0.5301 -3.0021  1.1138
 6913TIP3    H242155   1.664   6.574   3.067 -2.0409 -2.0104  1.4705
 6914TIP3   OH242156   1.793   0.247  15.896  0.3506  0.3045 -0.3756
 6914TIP3    H142157   1.864   0.282  15.950  1.6744  0.6032 -2.2192
 6914TIP3    H242158   1.713   0.269  15.945  1.4441  0.8918  1.2436
 6915TIP3   OH242159   5.247   2.906  11.425 -0.0267 -0.0078  0.0845
 6915TIP3    H142160   5.252   2.833  11.363 -0.3809 -0.3669  0.4763
 6915TIP3    H242161   5.253   2.865  11.511  0.8369  0.5230  0.2916
 6916TIP3   OH242162   1.517   1.112   4.815  0.2937  0.3621 -0.2194
 6916TIP3    H142163   1.576   1.180   4.848  0.2182  0.2078  0.2488
 6916TIP3    H242164   1.565   1.030   4.831  0.5787  0.3290 -1.1925
 6917TIP3   OH242165   4.511   5.878  11.619 -0.3777 -0.1823  0.1962
 6917TIP3    H142166   4.417   5.868  11.630 -0.4263 -0.2396 -0.2640
 6917TIP3    H242167   4.521   5.939  11.546 -0.0666  1.2292  1.3613
 6918TIP3   OH242168   2.943   0.033   5.009 -0.3063  0.7585  0.0321
 6918TIP3    H142169   2.884   0.094   5.052  0.8395  1.4555  0.6644
 6918TIP3    H242170   2.902  -0.053   5.022 -2.0423  1.3628 -1.0569
 6919TIP3   OH242171   2.150   2.183  17.255 -0.3025 -0.2061  0.8007
 6919TIP3    H142172   2.063   2.218  17.235 -0.1942  0.3007  1.1968
 6919TIP3    H242173   2.203   2.202  17.178 -0.2320  0.5558  1.0290
 6920TIP3   OH242174   4.702   1.516  11.204  0.1535  0.3512 -0.0774
 6920TIP3    H142175   4.735   1.506  11.115  3.2723 -1.6785  1.1468
 6920TIP3    H242176   4.622   1.462  11.206 -0.4386  1.1018 -1.8068
 6921TIP3   OH242177   1.329   5.166  14.613 -0.2178  0.3987  0.0160
 6921TIP3    H142178   1.354   5.244  14.564 -0.8887 -0.2808 -1.5118
 6921TIP3    H242179   1.237   5.181  14.637 -0.0729  0.4705  0.5245
 6922TIP3   OH242180   0.063   5.011  14.139 -0.1785 -0.3233 -0.6880
 6922TIP3    H142181   0.147   5.014  14.183  0.0962 -0.5661 -1.1874
 6922TIP3    H242182   0.031   4.922  14.154 -0.6223 -0.0557  0.0002
 6923TIP3   OH242183   5.226   4.179  11.424 -0.4344 -0.7659  0.6596
 6923TIP3    H142184   5.204   4.148  11.336 -1.7240 -2.0802  1.3883
 6923TIP3    H242185   5.201   4.106  11.481 -1.3555  0.7306  2.2719
 6924TIP3   OH242186   0.174   5.375  15.355 -0.2546  0.7052  0.3174
 6924TIP3    H142187   0.145   5.285  15.372 -2.8897  1.5673  0.7389
 6924TIP3    H242188   0.153   5.389  15.263  2.7104  0.0809 -0.5669
 6925TIP3   OH242189   1.000   6.524   3.118  0.6335 -0.2159 -0.2065
 6925TIP3    H142190   1.005   6.603   3.063 -0.7963  0.7928  1.0145
 6925TIP3    H242191   0.907   6.517   3.140  1.0795 -0.9204  1.5833
 6926TIP3   OH242192   1.221   0.987  14.276 -0.0345  0.0888 -0.3539
 6926TIP3    H142193   1.216   0.989  14.372  0.6384 -1.5798 -0.2413
 6926TIP3    H242194   1.161   0.916  14.251  1.2177 -0.7935 -0.9958
 6927TIP3   OH242195   5.323   6.022  11.455  0.1950 -0.3889  0.1522
 6927TIP3    H142196   5.338   6.060  11.368 -0.6554 -0.1107  0.1206
 6927TIP3    H242197   5.328   5.928  11.441 -0.8824 -0.3796 -0.3934
 6928TIP3   OH242198   3.593   5.432   1.894  0.4918  0.0762  0.2834
 6928TIP3    H142199   3.609   5.526   1.900  1.5455 -0.1089  0.6438
 6928TIP3    H242200   3.616   5.410   1.803 -0.7380  0.3252 -0.1026
 6929TIP3   OH242201   0.926   5.775   2.436  0.2824  0.4094  0.2476
 6929TIP3    H142202   0.867   5.729   2.496  0.5061 -1.7103 -1.0501
 6929TIP3    H242203   0.994   5.812   2.492 -0.1957 -0.4389  1.4245
 6930TIP3   OH242204   0.636   6.404  12.790  0.5717  0.5043  0.2472
 6930TIP3    H142205   0.656   6.311  12.783  0.6917  0.5925 -0.8035
 6930TIP3    H242206   0.540   6.407  12.789  0.5712  0.4150 -0.1237
 6931TIP3   OH242207   6.094   6.432  13.264  0.6475  0.3450 -0.8193
 6931TIP3    H142208   6.067   6.344  13.236  0.9680  0.5569 -1.8383
 6931TIP3    H242209   6.025   6.460  13.323  0.6396 -0.6718 -0.3197
 6932TIP3   OH242210   3.770   0.609   2.086 -0.1888 -0.0722  0.1078
 6932TIP3    H142211   3.802   0.625   2.175 -0.6117  0.3349  0.1868
 6932TIP3    H242212   3.825   0.538   2.054  0.4657  0.2852  0.4232
 6933TIP3   OH242213   3.647   3.441  16.365  0.4678  0.1500 -0.9184
 6933TIP3    H142214   3.595   3.381  16.312 -0.8769 -0.3419  0.8636
 6933TIP3    H242215   3.733   3.399  16.373  0.8026  0.3708 -2.8620
 6934TIP3   OH242216   5.671   0.324   4.716  0.4171 -0.1348 -0.5585
 6934TIP3    H142217   5.716   0.240   4.714 -0.6589 -0.7141 -2.1194
 6934TIP3    H242218   5.581   0.304   4.692  0.1354  1.4831 -1.0014
 6935TIP3   OH242219   4.702   4.205  13.478  0.0755 -0.0967  0.3397
 6935TIP3    H142220   4.754   4.227  13.401  1.5915  0.8770  1.5805
 6935TIP3    H242221   4.739   4.122  13.509 -1.2073 -1.0246 -0.5176
 6936TIP3   OH242222   0.190   5.716  12.554  0.0315  0.3959 -0.3523
 6936TIP3    H142223   0.276   5.701  12.594  0.1791  0.0551 -0.7929
 6936TIP3    H242224   0.180   5.645  12.491 -0.9126 -0.0351  0.2443
 6937TIP3   OH242225   0.463   2.658  12.123 -0.3700 -0.4751  0.3220
 6937TIP3    H142226   0.486   2.642  12.215  2.6585  1.4034  0.0409
 6937TIP3    H242227   0.497   2.745  12.105 -0.5314 -0.9370 -2.7104
 6938TIP3   OH242228   5.478   0.177   4.195  0.3126  0.1228 -0.1614
 6938TIP3    H142229   5.416   0.200   4.264  0.1311  0.4664 -0.4411
 6938TIP3    H242230   5.488   0.256   4.143  1.8340  0.4241  0.5306
 6939TIP3   OH242231   5.053   0.262   2.545  0.0383 -0.0058 -0.0780
 6939TIP3    H142232   5.120   0.294   2.606 -0.7970  0.2972  0.6885
 6939TIP3    H242233   4.972   0.264   2.595 -0.5539 -0.3547 -1.0109
 6940TIP3   OH242234   3.082   2.643  15.263 -0.5669 -0.6016  0.2522
 6940TIP3    H142235   3.016   2.708  15.288  0.8177  1.0008 -0.0350
 6940TIP3    H242236   3.064   2.625  15.171 -0.1121  0.4784 -0.0630
 6941TIP3   OH242237   2.846   3.763  12.833  0.0904 -0.2601  0.3478
 6941TIP3    H142238   2.774   3.700  12.827 -1.6342  1.6110  0.3749
 6941TIP3    H242239   2.837   3.801  12.921  2.8383 -1.8624  1.4459
 6942TIP3   OH242240   6.377   3.970  10.790 -0.2752 -0.0125 -0.0017
 6942TIP3    H142241   6.302   3.979  10.850 -0.0381  0.9497  0.1773
 6942TIP3    H242242   6.412   3.883  10.808 -0.0689  0.3304  1.4447
 6943TIP3   OH242243   2.007   1.565  15.139  0.1321 -0.1940  0.0680
 6943TIP3    H142244   2.093   1.586  15.104 -0.1465 -0.1682 -0.6088
 6943TIP3    H242245   1.945   1.608  15.080 -0.3489 -0.3523  0.4474
 6944TIP3   OH242246   6.329   4.517   2.963 -0.3279  0.6070 -0.2161
 6944TIP3    H142247   6.260   4.584   2.955  0.1572  1.1267 -0.0988
 6944TIP3    H242248   6.374   4.519   2.878  0.2819  1.0960  0.1089
 6945TIP3   OH242249   5.642   6.439  12.561  0.6920 -0.2132  0.1029
 6945TIP3    H142250   5.556   6.481  12.559  1.4567  1.4315  0.3253
 6945TIP3    H242251   5.632   6.361  12.506 -0.5600  0.7342 -1.0741
 6946TIP3   OH242252   2.074   6.354   1.183  0.2432 -0.4638  0.7478
 6946TIP3    H142253   2.021   6.351   1.263 -0.7243  0.6693  0.1719
 6946TIP3    H242254   2.025   6.410   1.123  2.0152  0.5166  0.1264
 6947TIP3   OH242255   2.436   6.548   0.731 -0.6082 -0.3013 -0.0040
 6947TIP3    H142256   2.416   6.556   0.638  1.0130  2.2377 -0.2079
 6947TIP3    H242257   2.532   6.550   0.736 -0.6688  1.0224  1.7767
 6948TIP3   OH242258   0.159   0.151   1.332  0.2528 -0.3405 -0.4939
 6948TIP3    H142259   0.127   0.144   1.242  0.9987  1.2442 -0.9216
 6948TIP3    H242260   0.080   0.169   1.383 -0.8529 -5.0771 -0.1109
 6949TIP3   OH242261   3.983   0.078  11.683  0.2831  0.3191  0.2588
 6949TIP3    H142262   4.038   0.114  11.614 -0.6975  0.8864 -0.2412
 6949TIP3    H242263   3.898   0.119  11.670 -1.0150 -2.4197 -0.5707
 6950TIP3   OH242264   3.343   4.965  12.508  0.0063 -0.4321  0.2564
 6950TIP3    H142265   3.379   4.880  12.532  1.5242  0.1153  0.0201
 6950TIP3    H242266   3.250   4.949  12.494  0.8310 -3.0594 -4.0486
 6951TIP3   OH242267   5.796   2.185  13.065 -0.5477  0.2473  0.1065
 6951TIP3    H142268   5.744   2.227  12.996  0.5526  1.7595  0.1506
 6951TIP3    H242269   5.864   2.249  13.086  0.8036 -1.3070  0.6782
 6952TIP3   OH242270   0.629   3.891  17.349 -0.8758 -0.6766 -0.4301
 6952TIP3    H142271   0.629   3.922  17.440  0.0572 -1.7440 -0.0521
 6952TIP3    H242272   0.544   3.848  17.339 -1.4559  0.4099 -0.4290
 6953TIP3   OH242273   1.715   2.445   2.006  0.4342  0.3658  0.0208
 6953TIP3    H142274   1.689   2.444   1.914 -0.7674  0.3545  0.3487
 6953TIP3    H242275   1.758   2.530   2.017  0.2438  0.5281 -0.4626
 6954TIP3   OH242276   0.913   5.346  12.304 -0.4422 -0.1711 -0.3101
 6954TIP3    H142277   0.883   5.332  12.394 -1.2339 -0.5504 -0.6171
 6954TIP3    H242278   0.998   5.389  12.313 -0.8628  0.5046  0.6163
 6955TIP3   OH242279   2.870   4.028   5.513  0.3228 -0.4870 -0.0484
 6955TIP3    H142280   2.788   4.020   5.562  0.9791 -0.8570  1.0415
 6955TIP3    H242281   2.899   3.937   5.500  1.1073 -0.3455  0.5821
 6956TIP3   OH242282   2.294   2.016  17.062 -0.5530  0.0038  0.2094
 6956TIP3    H142283   2.345   1.975  17.132  0.9667  1.1844 -0.1574
 6956TIP3    H242284   2.267   1.943  17.007 -2.2948 -1.0311  2.2893
 6957TIP3   OH242285   4.569   2.482   2.847  0.9719  0.1164  0.1282
 6957TIP3    H142286   4.639   2.515   2.902  0.7444  0.1427  0.4071
 6957TIP3    H242287   4.604   2.401   2.808  2.0264  1.3462 -1.6316
 6958TIP3   OH242288   2.565   1.725   5.621  0.1403 -0.0098  0.0559
 6958TIP3    H142289   2.526   1.728   5.533 -2.0355 -0.8520  0.9156
 6958TIP3    H242290   2.595   1.635   5.631 -1.3757 -0.4737  0.8165
 6959TIP3   OH242291   6.229   1.737   3.402 -0.0533  0.2092  0.6698
 6959TIP3    H142292   6.209   1.806   3.340 -2.7184 -0.6275  0.4863
 6959TIP3    H242293   6.205   1.773   3.487  0.7233  0.2917  0.8622
 6960TIP3   OH242294   5.707   2.828  12.035 -0.1971 -0.2334  0.3242
 6960TIP3    H142295   5.778   2.786  11.986  2.1383  0.1278  3.1458
 6960TIP3    H242296   5.739   2.916  12.052 -1.1804 -0.1636  1.9493
 6961TIP3   OH242297   2.898   2.917   0.023 -0.1725 -0.4916 -0.2363
 6961TIP3    H142298   2.826   2.967  -0.014 -0.0015  0.4447  0.6567
 6961TIP3    H242299   2.862   2.829   0.036 -0.9403 -0.2103 -0.4000
 6962TIP3   OH242300   1.162   4.562  15.250  0.3934 -0.5732 -0.1267
 6962TIP3    H142301   1.218   4.491  15.284  0.8092  1.0883  2.9510
 6962TIP3    H242302   1.088   4.566  15.310 -0.9074  0.0612 -1.6915
 6963TIP3   OH242303   0.422   6.273   2.254  0.0551  0.5667  0.1632
 6963TIP3    H142304   0.395   6.343   2.314 -0.1044  0.5675  0.0924
 6963TIP3    H242305   0.372   6.291   2.174 -1.2013 -0.5270  0.6538
 6964TIP3   OH242306   5.864   6.223  13.484 -0.4677 -0.1538 -0.1467
 6964TIP3    H142307   5.925   6.198  13.414 -0.7275 -0.1560 -0.3777
 6964TIP3    H242308   5.883   6.163  13.556 -1.1743 -1.1228 -0.7415
 6965TIP3   OH242309   5.117   6.556  13.820  0.4083 -0.2137 -0.1868
 6965TIP3    H142310   5.158   6.637  13.848 -0.9805  0.1871  0.7790
 6965TIP3    H242311   5.053   6.583  13.754  0.8165 -0.6815 -0.7885
 6966TIP3   OH242312   6.640   1.762   0.404  0.0772  0.4013  0.0060
 6966TIP3    H142313   6.581   1.721   0.341  1.1348  1.8339 -2.0602
 6966TIP3    H242314   6.584   1.789   0.476 -1.8020  1.4867 -1.7521
 6967TIP3   OH242315   1.675   4.983   1.868  0.2841  0.4375 -0.0717
 6967TIP3    H142316   1.628   5.047   1.814  3.8620  1.1925 -2.6928
 6967TIP3    H242317   1.731   5.037   1.924  1.4826 -0.3484 -0.4811
 6968TIP3   OH242318   2.164   2.220   4.168 -0.1612  0.0204 -0.1232
 6968TIP3    H142319   2.247   2.267   4.176 -0.3298  0.1979  0.6528
 6968TIP3    H242320   2.188   2.133   4.136  0.2680  0.2389 -0.3972
 6969TIP3   OH242321   3.177   5.702  13.666 -0.2778  0.2330 -0.1962
 6969TIP3    H142322   3.092   5.732  13.699  0.4095 -0.4942  2.5351
 6969TIP3    H242323   3.181   5.610  13.690  0.9493  0.0467 -1.0494
 6970TIP3   OH242324   2.824   5.973   5.145 -0.6204 -0.3306 -0.4851
 6970TIP3    H142325   2.834   5.878   5.137 -1.3181 -0.3235 -1.7491
 6970TIP3    H242326   2.893   6.009   5.090  1.2877 -0.0099  1.9535
 6971TIP3   OH242327   5.835   1.010   2.960 -0.0729  0.0420  0.9909
 6971TIP3    H142328   5.754   0.975   2.923 -0.1622  0.5967  0.6635
 6971TIP3    H242329   5.831   0.986   3.053  1.0979 -3.1990  0.3660
 6972TIP3   OH242330   4.553   3.423  10.656  0.6525 -0.5647  0.0624
 6972TIP3    H142331   4.524   3.397  10.569 -0.7498 -1.3517  0.7153
 6972TIP3    H242332   4.503   3.366  10.715 -0.3641  1.6587  1.4718
 6973TIP3   OH242333   5.603   5.977   3.997  0.3092 -0.4655  0.4760
 6973TIP3    H142334   5.674   5.927   4.037 -0.4412 -3.8456 -1.9459
 6973TIP3    H242335   5.647   6.049   3.952  1.9622 -1.1480  0.9228
 6974TIP3   OH242336   6.341   1.596   3.069  0.6187  0.2067 -0.4155
 6974TIP3    H142337   6.430   1.584   3.036  0.6417  0.9048 -0.6193
 6974TIP3    H242338   6.292   1.523   3.032  0.4727  1.3379 -2.6287
 6975TIP3   OH242339   1.979   2.100  15.075  0.4192 -0.2372 -0.0210
 6975TIP3    H142340   2.008   2.056  14.994  0.3806 -0.2720 -0.0150
 6975TIP3    H242341   1.924   2.035  15.119 -0.3847  0.1321 -0.4520
 6976TIP3   OH242342   4.556   4.716   1.669 -0.3890 -0.5300  0.1077
 6976TIP3    H142343   4.506   4.795   1.651  1.2697  0.4431 -0.4369
 6976TIP3    H242344   4.537   4.695   1.760 -1.6547 -0.1138 -0.0469
 6977TIP3   OH242345   3.136   3.770  12.803 -0.0939  0.1094 -0.0774
 6977TIP3    H142346   3.041   3.760  12.814 -0.0910  0.9425  0.7498
 6977TIP3    H242347   3.155   3.859  12.831  0.9673 -0.1086 -0.0505
 6978TIP3   OH242348   1.078   2.138   4.586 -0.4263 -0.0392  0.3238
 6978TIP3    H142349   1.098   2.199   4.656  3.5330  1.7033 -1.9919
 6978TIP3    H242350   1.157   2.085   4.577 -1.3589 -1.2131 -1.8413
 6979TIP3   OH242351   6.646   6.520  16.772  0.0876 -0.1331  0.1357
 6979TIP3    H142352   6.706   6.563  16.712 -2.0793  1.4893 -1.0232
 6979TIP3    H242353   6.686   6.530  16.859  0.8481  2.0872 -0.4238
 6980TIP3   OH242354   4.752   2.700  17.316  0.7274 -0.7071 -0.0415
 6980TIP3    H142355   4.833   2.660  17.346  0.8785  0.1695  0.7803
 6980TIP3    H242356   4.742   2.778  17.371 -0.7862 -0.9118  0.0144
 6981TIP3   OH242357   1.646   2.267  12.708 -0.5639  0.8767 -0.1442
 6981TIP3    H142358   1.567   2.305  12.669 -0.6012  1.3978  0.4329
 6981TIP3    H242359   1.718   2.309  12.661 -0.6085 -0.2063 -1.2553
 6982TIP3   OH242360   1.065   0.053   5.313  0.2563  0.0183  0.5961
 6982TIP3    H142361   1.083   0.146   5.313 -0.7731  0.2299  0.7431
 6982TIP3    H242362   1.139   0.014   5.359  1.1322  0.6538 -0.2237
 6983TIP3   OH242363   5.246   4.046  16.721 -0.3880  0.0755 -0.2486
 6983TIP3    H142364   5.191   3.969  16.737  0.3167 -0.5033 -0.5593
 6983TIP3    H242365   5.332   4.010  16.702 -0.0968  0.9433 -0.5964
 6984TIP3   OH242366   0.205   4.778   0.876 -0.4837  0.5323  0.0767
 6984TIP3    H142367   0.274   4.713   0.865  0.2416  1.4126 -0.7306
 6984TIP3    H242368   0.126   4.727   0.894  0.3649 -0.4881  1.0303
 6985TIP3   OH242369   4.203   3.243   3.358 -0.1429  0.0990 -0.3045
 6985TIP3    H142370   4.261   3.217   3.287 -2.2602  1.2472 -2.5886
 6985TIP3    H242371   4.131   3.180   3.354 -1.7505  1.9012 -1.2021
 6986TIP3   OH242372   0.361   1.786   0.982  0.3925  0.6116  0.1122
 6986TIP3    H142373   0.442   1.816   0.942  0.7651 -1.3079 -0.6794
 6986TIP3    H242374   0.333   1.859   1.038  2.4959  1.4115  0.1957
 6987TIP3   OH242375   5.644   3.524  14.405  0.2710  0.5205  0.0396
 6987TIP3    H142376   5.636   3.572  14.323 -0.4201  1.9810  0.9148
 6987TIP3    H242377   5.560   3.480  14.416 -0.3291  1.8028  0.8147
 6988TIP3   OH242378   5.296   5.857   0.266  0.9292  0.0659 -0.4121
 6988TIP3    H142379   5.299   5.948   0.297  0.0042 -0.5750  1.7345
 6988TIP3    H242380   5.351   5.857   0.188  0.1518  2.6766 -1.0450
 6989TIP3   OH242381   6.375   5.124  10.702  0.2442  0.5070 -0.1645
 6989TIP3    H142382   6.292   5.167  10.683 -0.1552 -0.4193 -0.6057
 6989TIP3    H242383   6.359   5.032  10.681  1.3684  0.3060 -0.1978
 6990TIP3   OH242384   6.123   6.417  11.854  0.1129  0.0307 -0.2624
 6990TIP3    H142385   6.125   6.509  11.828 -0.5601  0.2849  0.5247
 6990TIP3    H242386   6.182   6.411  11.929 -0.0494 -0.1254 -0.1447
 6991TIP3   OH242387   5.889   0.728   1.507 -0.1072  0.1829 -0.0685
 6991TIP3    H142388   5.954   0.799   1.503 -0.6536  0.6480 -2.9356
 6991TIP3    H242389   5.936   0.656   1.547  0.8741  1.7388  1.7567
 6992TIP3   OH242390   6.267   4.946  13.103 -0.0651  0.3110  0.2644
 6992TIP3    H142391   6.175   4.972  13.101 -0.7169 -1.8569 -0.9566
 6992TIP3    H242392   6.309   5.002  13.038 -1.0158 -0.2558 -0.8679
 6993TIP3   OH242393   4.089   1.986  14.444  0.4878  0.3110 -0.3219
 6993TIP3    H142394   4.185   1.992  14.435  0.7185 -2.0657 -0.0210
 6993TIP3    H242395   4.059   1.956  14.359  0.2450 -0.7896  0.1365
 6994TIP3   OH242396   2.464   1.028   3.460  0.3942  0.3828 -0.5445
 6994TIP3    H142397   2.407   1.006   3.534  1.3986 -0.7615 -0.0671
 6994TIP3    H242398   2.426   0.983   3.385  0.1435  0.4095 -0.4327
 6995TIP3   OH242399   6.467   2.087  14.505 -0.5517  0.3409  0.0436
 6995TIP3    H142400   6.505   2.061  14.421  1.0812  0.5340  0.6803
 6995TIP3    H242401   6.461   2.183  14.499 -0.5635  0.3429  0.0908
 6996TIP3   OH242402   6.648   0.912   4.541 -0.0195  0.0575  0.3428
 6996TIP3    H142403   6.609   0.830   4.570 -2.8805  0.4438 -1.9655
 6996TIP3    H242404   6.711   0.886   4.474 -0.5348 -0.3164 -0.0030
 6997TIP3   OH242405   0.759   5.919  13.728  0.1738  0.1894 -0.4899
 6997TIP3    H142406   0.798   5.862  13.661  1.2824 -0.2606  0.5139
 6997TIP3    H242407   0.745   5.861  13.803 -2.2357  0.3909 -0.6993
 6998TIP3   OH242408   1.134   6.570   5.730 -0.1532 -0.2655 -0.6856
 6998TIP3    H142409   1.089   6.523   5.660  0.3000 -2.0350  0.1634
 6998TIP3    H242410   1.227   6.562   5.708  0.1910 -2.8798  1.2153
 6999TIP3   OH242411   0.035   2.651  13.804  0.2397  0.0415  0.3837
 6999TIP3    H142412  -0.008   2.660  13.719 -0.0662  0.6742  0.5885
 6999TIP3    H242413   0.095   2.577  13.794 -1.1242 -1.0756  0.1772
 7000TIP3   OH242414   5.719   0.697  11.045  0.4101  0.0722 -0.2597
 7000TIP3    H142415   5.678   0.784  11.036 -1.4666 -0.6523  0.7119
 7000TIP3    H242416   5.813   0.714  11.035  0.0609  2.1354 -0.6108
 7001TIP3   OH242417   3.230   3.258   5.776  0.0698  0.4384 -0.5750
 7001TIP3    H142418   3.213   3.250   5.870 -0.5204 -1.4948 -0.8137
 7001TIP3    H242419   3.286   3.184   5.755  2.6708  2.4468 -1.2613
 7002TIP3   OH242420   0.943   0.301   3.839  0.0330  0.5672  0.4115
 7002TIP3    H142421   0.973   0.246   3.912 -2.4171 -1.5886 -0.0425
 7002TIP3    H242422   1.005   0.284   3.769 -0.0048 -0.7851  0.6753
 7003TIP3   OH242423   0.986   1.644  13.345  0.5017  0.6908  0.6199
 7003TIP3    H142424   1.051   1.706  13.378 -1.5616  2.7200  1.2054
 7003TIP3    H242425   0.981   1.576  13.412  0.5787  1.6199  1.6044
 7004TIP3   OH242426   5.319   4.136   0.124  0.7286  0.2376  0.0859
 7004TIP3    H142427   5.350   4.157   0.212 -1.6986  0.8815  0.8834
 7004TIP3    H242428   5.236   4.091   0.139  0.8690 -0.7461 -1.8780
 7005TIP3   OH242429   0.455   2.622  13.153 -0.2234 -1.3140 -0.1587
 7005TIP3    H142430   0.526   2.583  13.204  0.6242 -0.7281 -0.8641
 7005TIP3    H242431   0.414   2.685  13.212  0.2100 -1.2468  0.0724
 7006TIP3   OH242432   0.172   4.323  10.902  0.4586 -0.0009  0.6123
 7006TIP3    H142433   0.078   4.327  10.891  0.6452  0.9458 -0.8771
 7006TIP3    H242434   0.185   4.326  10.997 -1.0161 -0.9846  0.8746
 7007TIP3   OH242435   5.680   5.953   4.511  0.4023  0.3611  0.7060
 7007TIP3    H142436   5.756   6.011   4.509  1.9438 -1.3812 -3.3453
 7007TIP3    H242437   5.716   5.867   4.534 -0.7250 -0.1229  0.7175
 7008TIP3   OH242438   3.231   0.515   3.763  0.1133 -0.2345 -0.0068
 7008TIP3    H142439   3.252   0.597   3.719  0.7883  1.0715  2.5040
 7008TIP3    H242440   3.161   0.538   3.824  1.2856 -1.0766  1.7769
 7009TIP3   OH242441   1.541   6.277  14.204  0.2022 -0.2566  1.5087
 7009TIP3    H142442   1.462   6.250  14.250  0.1703 -1.2448  0.8957
 7009TIP3    H242443   1.508   6.328  14.130  0.1495 -0.4534  1.3966
 7010TIP3   OH242444   1.696   3.413  15.811 -0.2158 -0.1117  0.1121
 7010TIP3    H142445   1.717   3.416  15.904  0.7239 -0.7733 -0.0696
 7010TIP3    H242446   1.607   3.449  15.805 -0.3970 -0.3383  1.2892
 7011TIP3   OH242447   1.594   0.014   4.285  0.0868 -0.7827 -0.1446
 7011TIP3    H142448   1.682  -0.012   4.257 -0.5452 -2.6063 -0.5963
 7011TIP3    H242449   1.551   0.043   4.205  0.9725  2.4821  0.4472
 7012TIP3   OH242450   3.668   6.010   6.260  0.4444  0.0719 -0.2083
 7012TIP3    H142451   3.611   5.936   6.243 -0.8723  0.6779  1.3081
 7012TIP3    H242452   3.727   5.981   6.330  0.6644  0.1055 -0.3764
 7013TIP3   OH242453   2.052   2.467   0.036 -0.5432  0.2066  0.1075
 7013TIP3    H142454   1.960   2.477   0.061 -0.5312  1.0327 -0.1409
 7013TIP3    H242455   2.056   2.500  -0.054  0.1976  1.2421  0.5028
 7014TIP3   OH242456   0.857   0.020   5.136 -0.0597  0.1307 -0.1282
 7014TIP3    H142457   0.932  -0.002   5.192 -0.4845 -0.2115  0.3132
 7014TIP3    H242458   0.850   0.115   5.142  1.4143  0.3723 -1.5615
 7015TIP3   OH242459   4.783   3.666   5.464  0.1033  0.2311 -0.3944
 7015TIP3    H142460   4.779   3.704   5.552 -0.9060 -1.1975  0.2146
 7015TIP3    H242461   4.859   3.607   5.467 -1.2170 -1.5191  0.2872
 7016TIP3   OH242462   1.269   2.609  17.168  0.0111 -0.3881  0.1250
 7016TIP3    H142463   1.324   2.535  17.142 -0.7141 -0.8189 -0.2309
 7016TIP3    H242464   1.320   2.655  17.234  1.6708  0.4273 -1.6597
 7017TIP3   OH242465   2.577   6.655  13.648 -0.1532  0.4997 -0.0384
 7017TIP3    H142466   2.484   6.661  13.625 -0.5496 -0.3433  1.2253
 7017TIP3    H242467   2.577   6.637  13.742  1.2124 -1.7146 -0.3836
 7018TIP3   OH242468   5.459   1.009   3.968  0.1956 -0.0364 -0.4595
 7018TIP3    H142469   5.385   0.986   4.024 -0.2024 -0.9613 -1.3485
 7018TIP3    H242470   5.519   1.055   4.027  0.2811 -1.9143  1.0400
 7019TIP3   OH242471   3.056   0.159  14.254  0.4186 -0.2103  0.1813
 7019TIP3    H142472   2.998   0.131  14.325  1.1156  0.0208  0.8603
 7019TIP3    H242473   3.116   0.084  14.241 -0.2657 -0.6105 -0.7929
 7020TIP3   OH242474   6.475   2.275   3.555  0.1576  0.2453 -0.0002
 7020TIP3    H142475   6.523   2.327   3.491 -0.2220  2.4859  1.3878
 7020TIP3    H242476   6.542   2.233   3.608  0.4759 -0.8877 -1.2603
 7021TIP3   OH242477   6.411   5.688  14.064  0.2707 -0.0905  0.6605
 7021TIP3    H142478   6.348   5.624  14.031  1.6511 -1.3213  0.2921
 7021TIP3    H242479   6.478   5.635  14.107 -0.0981  1.3168  3.1123
 7022TIP3   OH242480   3.017   4.211  13.131  0.2078 -0.1797 -0.1542
 7022TIP3    H142481   2.974   4.192  13.048 -0.5739 -1.2163  0.4549
 7022TIP3    H242482   2.973   4.153  13.194  0.5051  0.8619  1.0513
 7023TIP3   OH242483   4.681   1.389   6.036  0.4979 -1.1148 -0.2550
 7023TIP3    H142484   4.755   1.328   6.044  2.1322  0.9309  1.3966
 7023TIP3    H242485   4.686   1.443   6.115 -2.7943 -0.8559 -0.1028
 7024TIP3   OH242486   2.167   3.401   0.674  0.1051 -0.0195  0.3485
 7024TIP3    H142487   2.215   3.343   0.733  1.4419  1.1281  0.4215
 7024TIP3    H242488   2.091   3.429   0.726 -0.8529 -2.0459  0.1399
 7025TIP3   OH242489   2.696   1.673   3.759  0.4910  0.3740  0.5240
 7025TIP3    H142490   2.785   1.706   3.776  0.7645 -0.3166  0.4889
 7025TIP3    H242491   2.675   1.621   3.836  0.9168 -1.0834 -0.3062
 7026TIP3   OH242492   5.784   2.500  15.267  0.1142 -0.6630 -0.0317
 7026TIP3    H142493   5.853   2.544  15.217 -1.2475  0.7058 -0.7851
 7026TIP3    H242494   5.712   2.489  15.205 -0.4255 -1.9339  0.7789
 7027TIP3   OH242495   2.047   0.474   5.531 -0.5918 -0.0393 -1.0842
 7027TIP3    H142496   1.961   0.496   5.567 -0.0964 -0.5006  0.4698
 7027TIP3    H242497   2.028   0.432   5.447 -1.9837 -1.6000 -0.0357
 7028TIP3   OH242498   6.283   4.666  15.375  0.0037  0.1854 -0.0731
 7028TIP3    H142499   6.368   4.640  15.339 -1.5759 -2.7353 -2.0266
 7028TIP3    H242500   6.286   4.636  15.466  1.4693  1.2759  0.2793
 7029TIP3   OH242501   2.776   4.141   2.016  0.2848 -0.0919  0.2419
 7029TIP3    H142502   2.734   4.173   1.936 -0.4937 -0.7257  0.3781
 7029TIP3    H242503   2.863   4.181   2.016 -0.0554  0.6664 -0.4352
 7030TIP3   OH242504   3.144   1.863  15.868  0.3807 -0.4192 -0.0825
 7030TIP3    H142505   3.124   1.940  15.814  1.1596 -0.5789 -0.6089
 7030TIP3    H242506   3.188   1.899  15.945  1.3114 -0.3810 -0.6213
 7031TIP3   OH242507   2.775   6.008   3.996  0.0098  0.6033  0.0662
 7031TIP3    H142508   2.835   5.975   4.063  1.6463  1.2183 -1.0608
 7031TIP3    H242509   2.699   6.040   4.046  0.2572 -0.8540  1.4686
 7032TIP3   OH242510   4.562   5.109   2.617 -0.3457 -0.3234  0.1690
 7032TIP3    H142511   4.587   5.069   2.700  0.5853 -0.0052  0.0462
 7032TIP3    H242512   4.616   5.066   2.551 -1.1983 -0.6955 -0.3132
 7033TIP3   OH242513   3.549   2.257  11.458 -0.7746  0.2813 -0.5169
 7033TIP3    H142514   3.622   2.239  11.399  1.0748 -2.2534  2.2467
 7033TIP3    H242515   3.505   2.172  11.468 -0.4210  0.3555  2.3673
 7034TIP3   OH242516   5.163   2.889  13.589  0.4432 -0.5207 -0.0881
 7034TIP3    H142517   5.169   2.833  13.667 -0.4850 -0.5510 -0.0297
 7034TIP3    H242518   5.098   2.846  13.534 -0.9883  0.9460  0.3535
 7035TIP3   OH242519   1.230   2.860  13.182  0.3606 -0.4330  0.4058
 7035TIP3    H142520   1.280   2.814  13.249  0.3555  0.3620  0.9740
 7035TIP3    H242521   1.147   2.883  13.224  0.8371  1.1372  0.5473
 7036TIP3   OH242522   0.398   1.471   4.364 -0.1042  0.2141  0.3888
 7036TIP3    H142523   0.476   1.520   4.338 -0.9143  1.1821 -0.2933
 7036TIP3    H242524   0.431   1.403   4.423  1.2922  0.3992 -0.1330
 7037TIP3   OH242525   1.998   5.496  17.445 -0.2602  0.1181 -0.2524
 7037TIP3    H142526   2.036   5.567  17.393  1.1922 -0.7129 -0.3935
 7037TIP3    H242527   2.058   5.422  17.431 -0.3245 -0.3897  1.8777
 7038TIP3   OH242528   0.169   2.876  13.430  0.3049  0.4205  0.1201
 7038TIP3    H142529   0.241   2.813  13.440 -0.4686 -0.8402 -1.6033
 7038TIP3    H242530   0.099   2.840  13.484 -0.0651 -0.1264 -0.6977
 7039TIP3   OH242531   3.495   1.688   5.834 -0.4301 -0.2355  0.4326
 7039TIP3    H142532   3.556   1.615   5.827 -1.2376 -1.0924  1.7893
 7039TIP3    H242533   3.496   1.729   5.747  0.5785 -1.4110 -0.1416
 7040TIP3   OH242534   5.316   5.057   1.060  0.4196 -1.3167  0.1530
 7040TIP3    H142535   5.338   4.980   1.111  0.1124 -1.4954  0.0168
 7040TIP3    H242536   5.389   5.067   0.999  1.9479  0.2024  2.0605
 7041TIP3   OH242537   0.342   3.652   0.187 -0.4567  0.4901 -0.0223
 7041TIP3    H142538   0.398   3.601   0.129 -0.3713  0.6544 -0.0835
 7041TIP3    H242539   0.259   3.659   0.141 -0.1906  1.1548 -0.3982
 7042TIP3   OH242540   0.037   1.998   1.598  0.5054 -0.7058 -0.2222
 7042TIP3    H142541   0.125   1.965   1.580  1.5590  2.1397 -0.8463
 7042TIP3    H242542   0.052   2.075   1.654 -1.3931  0.8426 -1.7030
 7043TIP3   OH242543   2.882   2.009  12.874 -0.6001 -0.0636 -0.3973
 7043TIP3    H142544   2.894   1.949  12.800  1.2451 -1.7972  1.1718
 7043TIP3    H242545   2.821   1.964  12.932  0.5054 -0.3332  0.6165
 7044TIP3   OH242546   3.684   4.688   0.991 -0.6304 -0.3970  0.1057
 7044TIP3    H142547   3.601   4.650   0.964 -0.6248 -0.2487 -0.1235
 7044TIP3    H242548   3.685   4.776   0.952  0.8003 -1.3338 -2.2015
 7045TIP3   OH242549   4.018   3.694  15.987 -0.0106  1.0015 -0.2430
 7045TIP3    H142550   3.940   3.733  16.027 -0.3006  0.5052 -0.3087
 7045TIP3    H242551   3.996   3.601  15.979  0.9417  0.6951  0.5738
 7046TIP3   OH242552   0.044   2.875   3.011 -0.2202  0.6889  0.0283
 7046TIP3    H142553   0.105   2.929   2.961  0.0300 -0.2118 -0.6730
 7046TIP3    H242554   0.050   2.788   2.970 -1.2776  0.3548  0.5491
 7047TIP3   OH242555   3.742   1.890  13.855  0.0885 -0.3097 -0.1446
 7047TIP3    H142556   3.771   1.893  13.764 -1.0735  1.0854 -0.4975
 7047TIP3    H242557   3.793   1.958  13.899  0.7168 -1.0433  0.3020
 7048TIP3   OH242558   4.504   1.922   4.172 -0.3902  0.0030 -0.3787
 7048TIP3    H142559   4.567   1.859   4.208  0.8923  1.1273 -0.5585
 7048TIP3    H242560   4.512   1.911   4.077 -0.3324  0.2628 -0.4046
 7049TIP3   OH242561   0.036   5.397   5.461 -0.2559  0.2774 -0.5259
 7049TIP3    H142562   0.008   5.430   5.376 -1.2916  0.5583 -0.0886
 7049TIP3    H242563   0.131   5.412   5.463 -0.1112 -0.3495 -1.8897
 7050TIP3   OH242564   4.653   6.677   1.384  0.4750 -0.2184 -0.4136
 7050TIP3    H142565   4.708   6.639   1.452  0.8395  0.0588 -0.5456
 7050TIP3    H242566   4.693   6.763   1.367 -1.4227  1.0987  1.2606
 7051TIP3   OH242567   2.586   3.117  15.776  0.2511  0.1653 -0.2166
 7051TIP3    H142568   2.563   3.024  15.776  0.4861  0.1030  0.4364
 7051TIP3    H242569   2.615   3.135  15.865 -1.2777  1.2406  0.1044
 7052TIP3   OH242570   0.430   3.518  13.634  0.9399  0.3559  0.6006
 7052TIP3    H142571   0.445   3.541  13.543  0.5986  0.5102  0.5812
 7052TIP3    H242572   0.457   3.596  13.683 -0.5528  0.9565  0.5138
 7053TIP3   OH242573   6.419   3.302  16.638 -0.5486  0.1823  0.0506
 7053TIP3    H142574   6.507   3.336  16.655 -0.7102  0.7253 -0.1809
 7053TIP3    H242575   6.390   3.350  16.561  0.0251 -1.9236 -1.5848
 7054TIP3   OH242576   6.704   0.928  12.805  0.0742 -0.2986 -0.6609
 7054TIP3    H142577   6.682   0.985  12.732 -1.0353  0.1913  0.0365
 7054TIP3    H242578   6.788   0.961  12.837 -0.1033  0.3517 -0.8583
 7055TIP3   OH242579   4.780   1.697   6.069 -0.4462  0.4278  0.0186
 7055TIP3    H142580   4.731   1.752   6.130  0.4324  1.5038 -0.2216
 7055TIP3    H242581   4.857   1.668   6.118 -0.9453 -0.6951  0.1735
 7056TIP3   OH242582   6.224   1.144   1.658  0.3420  0.5230  0.1927
 7056TIP3    H142583   6.149   1.084   1.667 -0.8244  1.4820 -2.1539
 7056TIP3    H242584   6.185   1.224   1.623  2.6384  0.4633 -2.8996
 7057TIP3   OH242585   1.117   0.104  11.676  0.5148  0.5153  0.5079
 7057TIP3    H142586   1.152   0.031  11.625 -1.6955 -0.0373 -0.3431
 7057TIP3    H242587   1.120   0.074  11.767 -1.9189 -1.4442  0.0517
 7058TIP3   OH242588   1.532   2.641  11.868  0.1606  0.3717  0.1021
 7058TIP3    H142589   1.577   2.642  11.783  1.3877 -0.9621  0.6752
 7058TIP3    H242590   1.465   2.574  11.858 -0.1314  0.6856 -0.0271
 7059TIP3   OH242591   1.733   4.261  16.538  0.0544  0.2046 -0.4391
 7059TIP3    H142592   1.781   4.315  16.475 -1.1123  1.4496 -0.3112
 7059TIP3    H242593   1.801   4.213  16.586  1.2049  1.9978 -0.1706
 7060TIP3   OH242594   3.786   5.453  15.279 -0.3752  0.1570 -0.0695
 7060TIP3    H142595   3.828   5.520  15.333 -0.0620 -1.4551  1.7840
 7060TIP3    H242596   3.847   5.380  15.279 -1.1488 -0.5154 -1.2016
 7061TIP3   OH242597   5.887   2.702  11.868 -0.2559  0.4568  0.3024
 7061TIP3    H142598   5.850   2.756  11.798 -0.4684 -0.9020 -0.7039
 7061TIP3    H242599   5.976   2.735  11.879  0.4748 -0.4692 -2.0163
 7062TIP3   OH242600   5.712   5.444  13.769  0.0620 -0.2041 -0.0412
 7062TIP3    H142601   5.752   5.455  13.855  0.6427  1.8608 -0.5240
 7062TIP3    H242602   5.618   5.445  13.786  0.1570 -1.3553  0.6986
 7063TIP3   OH242603   3.452   0.202  12.686  0.4009 -0.5441 -0.0904
 7063TIP3    H142604   3.410   0.188  12.601  0.4096 -1.1101 -0.0070
 7063TIP3    H242605   3.537   0.159  12.677  0.4456 -0.5090  0.1705
 7064TIP3   OH242606   0.464   5.588  15.326 -0.4414  0.0105  0.3273
 7064TIP3    H142607   0.423   5.573  15.240 -0.9222  0.6437  0.4444
 7064TIP3    H242608   0.464   5.501  15.367 -0.0923 -0.3265 -0.3572
 7065TIP3   OH242609   0.627   4.963   5.570  0.3488  0.5537 -0.3096
 7065TIP3    H142610   0.586   4.895   5.623  0.0673  0.3362 -0.7924
 7065TIP3    H242611   0.715   4.973   5.605  0.1055  0.5397  0.3039
 7066TIP3   OH242612   5.670   5.700  14.765  0.4609  0.2623 -0.5817
 7066TIP3    H142613   5.609   5.766  14.800  1.6807  0.9711  0.2776
 7066TIP3    H242614   5.630   5.674  14.682 -1.3035  0.2835  0.1978
 7067TIP3   OH242615   3.700   6.060  16.283 -0.6227 -0.1596  0.5482
 7067TIP3    H142616   3.641   6.028  16.215  1.1700  0.1905 -1.2680
 7067TIP3    H242617   3.776   6.003  16.278  0.2746  0.9388  1.0805
 7068TIP3   OH242618   5.584   5.277   3.782  0.0188  0.2538 -0.2077
 7068TIP3    H142619   5.647   5.232   3.840  0.6689  0.1805 -0.9575
 7068TIP3    H242620   5.638   5.314   3.712 -0.7967 -0.0203 -0.9990
 7069TIP3   OH242621   2.237   1.473   3.004 -0.2654  0.0018  0.1016
 7069TIP3    H142622   2.289   1.430   3.072 -0.6040 -0.7990 -0.1331
 7069TIP3    H242623   2.261   1.565   3.010  0.9705 -0.3082  0.1817
 7070TIP3   OH242624   6.582   2.123  12.051  0.0331  0.5694 -0.1674
 7070TIP3    H142625   6.564   2.068  12.128  0.2699  0.4124 -0.2236
 7070TIP3    H242626   6.516   2.096  11.987 -1.1597  1.7695  0.5006
 7071TIP3   OH242627   4.697   2.203   2.003 -0.3063 -0.1679  0.4263
 7071TIP3    H142628   4.694   2.138   2.073  0.3115  0.2470  0.8431
 7071TIP3    H242629   4.721   2.152   1.925  0.1748 -0.4467  0.7495
 7072TIP3   OH242630   0.812   5.552  16.298  0.3310  0.1118  0.2777
 7072TIP3    H142631   0.825   5.627  16.239 -0.9502  0.3147  0.2243
 7072TIP3    H242632   0.717   5.542  16.303  0.4744 -1.2666  0.6064
 7073TIP3   OH242633   6.573   3.092   1.869  0.2528  0.2695  0.1163
 7073TIP3    H142634   6.570   3.131   1.781 -0.2419  2.4773  1.0298
 7073TIP3    H242635   6.482   3.096   1.899  0.4060 -0.5629  0.6952
 7074TIP3   OH242636   4.112   1.939  17.069  0.3641 -0.1833  0.6329
 7074TIP3    H142637   4.156   1.861  17.102  0.7178 -0.6226 -0.8353
 7074TIP3    H242638   4.067   1.910  16.990  0.9524  1.2200 -0.2415
 7075TIP3   OH242639   0.738   3.029  13.386 -0.0711 -0.3097  0.1974
 7075TIP3    H142640   0.727   2.973  13.463  2.3139 -0.6358  0.3550
 7075TIP3    H242641   0.686   3.107  13.407  0.1266 -0.5902  1.9272
 7076TIP3   OH242642   3.753   0.410  14.426  0.0006  0.6647 -0.0090
 7076TIP3    H142643   3.706   0.476  14.374 -0.1901  0.5577  0.0259
 7076TIP3    H242644   3.721   0.423  14.515 -0.2345  0.3527 -0.0462
 7077TIP3   OH242645   6.001   4.722  12.400  0.1052  0.0354 -0.1965
 7077TIP3    H142646   5.939   4.708  12.472 -0.2759 -0.7078 -0.6591
 7077TIP3    H242647   5.968   4.799  12.354 -1.0360 -0.8860 -0.9928
 7078TIP3   OH242648   2.565   6.474   1.695 -1.0249 -0.1524  0.5522
 7078TIP3    H142649   2.526   6.440   1.614 -2.3725 -3.3674  2.3824
 7078TIP3    H242650   2.496   6.530   1.732 -0.8869  0.3046  0.1417
 7079TIP3   OH242651   2.162   5.828   4.913 -0.2121  0.1875 -0.2123
 7079TIP3    H142652   2.186   5.911   4.871  1.0634 -1.1678 -2.3720
 7079TIP3    H242653   2.184   5.840   5.005 -0.5177  2.3856 -0.3749
 7080TIP3   OH242654   2.522   2.277   2.203 -0.1763  0.2113  0.7087
 7080TIP3    H142655   2.564   2.310   2.283  0.3000  0.5458  0.3228
 7080TIP3    H242656   2.436   2.247   2.232 -0.4840  1.4457  1.1396
 7081TIP3   OH242657   3.824   0.968   0.373 -0.2258  0.0448  0.5159
 7081TIP3    H142658   3.877   0.992   0.449 -3.3062 -1.7608  3.5164
 7081TIP3    H242659   3.755   1.034   0.369  0.3658  0.6069 -1.3397
 7082TIP3   OH242660   3.535   4.471   2.675  0.4350 -0.0133 -0.2026
 7082TIP3    H142661   3.514   4.492   2.584 -1.6523 -0.6881  0.0679
 7082TIP3    H242662   3.560   4.555   2.715 -1.6968  0.8889 -0.6506
 7083TIP3   OH242663   3.900   3.501   1.377  0.4438 -0.2588  0.4252
 7083TIP3    H142664   3.835   3.455   1.323 -0.1607 -1.4742  2.1049
 7083TIP3    H242665   3.961   3.539   1.314 -1.2004 -0.1255 -1.1662
 7084TIP3   OH242666   1.932   2.062  17.430 -0.0917 -0.3488 -0.3170
 7084TIP3    H142667   1.855   2.068  17.373  0.7000  0.2146 -1.3556
 7084TIP3    H242668   2.006   2.059  17.370  0.8421  1.5421  0.6654
 7085TIP3   OH242669   5.706   2.386  11.602 -0.0190  0.6417  0.1706
 7085TIP3    H142670   5.737   2.296  11.601 -1.1086  0.2546 -0.7978
 7085TIP3    H242671   5.721   2.417  11.512 -2.9154  0.2217 -0.5561
 7086TIP3   OH242672   2.962   4.197   1.600  0.7318 -0.2205 -0.0752
 7086TIP3    H142673   3.026   4.183   1.530 -0.8675 -0.7084 -1.4976
 7086TIP3    H242674   2.919   4.279   1.577  3.0382  1.9965  2.7069
 7087TIP3   OH242675   3.431   6.190   2.552  0.7684 -0.1441  0.1813
 7087TIP3    H142676   3.433   6.189   2.457 -0.3829 -1.0615  0.1454
 7087TIP3    H242677   3.399   6.104   2.577 -0.8482  0.7250  1.3238
 7088TIP3   OH242678   5.426   1.377   1.744 -0.4887  0.2380 -0.6028
 7088TIP3    H142679   5.437   1.358   1.650 -0.0511  0.2914 -0.5653
 7088TIP3    H242680   5.331   1.381   1.757 -0.5478  0.8950 -1.1790
 7089TIP3   OH242681   1.944   3.329   3.597  0.3118  0.2617  0.7609
 7089TIP3    H142682   1.998   3.251   3.584 -0.4001 -0.0148 -0.7189
 7089TIP3    H242683   1.864   3.296   3.639  0.4317  0.3651  1.0774
 7090TIP3   OH242684   6.420   6.194  10.933 -0.0721 -0.8198  0.0147
 7090TIP3    H142685   6.463   6.271  10.970 -0.8957 -0.2807 -0.1419
 7090TIP3    H242686   6.346   6.177  10.991 -1.6586  0.3183 -1.5939
 7091TIP3   OH242687   0.907   4.928   4.284  0.5380  0.3829  0.5765
 7091TIP3    H142688   0.974   4.869   4.319 -0.4802 -2.1527 -1.3990
 7091TIP3    H242689   0.950   4.972   4.211  0.9326  1.1754  1.2725
 7092TIP3   OH242690   0.323   0.178   4.175  0.5133  0.1515  0.3081
 7092TIP3    H142691   0.283   0.133   4.101 -1.3471  1.2502  0.5583
 7092TIP3    H242692   0.362   0.109   4.228  0.5734 -0.7907 -0.9222
 7093TIP3   OH242693   0.560   1.297  11.704 -0.3267 -0.1482 -0.0577
 7093TIP3    H142694   0.465   1.311  11.706 -0.3380 -0.2446  0.0648
 7093TIP3    H242695   0.595   1.361  11.766 -0.2888  0.0673 -0.2994
 7094TIP3   OH242696   6.124   0.846   4.962  0.8647 -0.4031  0.3846
 7094TIP3    H142697   6.041   0.880   4.996  0.5332  1.3832 -1.9453
 7094TIP3    H242698   6.190   0.899   5.006  0.7124 -1.0136  1.3655
 7095TIP3   OH242699   2.251   6.711  13.666 -0.2411 -0.1063  0.2356
 7095TIP3    H142700   2.181   6.743  13.723 -0.6950 -1.3229  0.4114
 7095TIP3    H242701   2.205   6.657  13.602  0.5709 -1.3669  0.6802
 7096TIP3   OH242702   2.215   0.210  11.981  0.1910 -0.3515 -0.3016
 7096TIP3    H142703   2.122   0.197  11.964 -0.6720  0.7549  2.9135
 7096TIP3    H242704   2.235   0.296  11.943 -0.5882  0.2184  0.5556
 7097TIP3   OH242705   5.533   4.926   0.249  0.4163  0.1697  0.0567
 7097TIP3    H142706   5.524   4.894   0.159  0.7473  1.3213 -0.4026
 7097TIP3    H242707   5.505   4.852   0.303  0.4494 -0.6333 -0.9776
 7098TIP3   OH242708   1.313   3.236  17.294  0.3522  0.4295 -0.4679
 7098TIP3    H142709   1.404   3.263  17.283  0.1904  0.5945 -1.4500
 7098TIP3    H242710   1.296   3.175  17.223  0.4754 -1.7633  1.2935
 7099TIP3   OH242711   5.069   2.929   2.588 -0.0146 -0.6396 -0.1333
 7099TIP3    H142712   5.080   3.021   2.564  0.0556 -0.2973  1.1165
 7099TIP3    H242713   5.070   2.882   2.505  1.1511  0.3716 -0.7258
 7100TIP3   OH242714   4.376   1.727   5.277 -0.4468 -0.1065 -0.0874
 7100TIP3    H142715   4.281   1.723   5.273 -0.5760  1.6528  0.3089
 7100TIP3    H242716   4.395   1.747   5.369  0.1460  1.8673 -0.5822
 7101TIP3   OH242717   2.381   4.919   3.453  0.4998 -0.2938 -0.3803
 7101TIP3    H142718   2.430   5.001   3.456  0.4642 -0.2665 -0.5201
 7101TIP3    H242719   2.291   4.945   3.431  0.5792 -0.4050 -0.8485
 7102TIP3   OH242720   3.417   1.428   3.010 -0.3725 -0.2391  0.1624
 7102TIP3    H142721   3.344   1.374   2.981  1.7144 -2.7998 -0.7180
 7102TIP3    H242722   3.377   1.499   3.061 -3.5003 -0.7312 -1.4290
 7103TIP3   OH242723   2.146   4.706  16.881  0.3336  0.1563 -0.4861
 7103TIP3    H142724   2.112   4.795  16.881  2.0229  0.8500 -0.2227
 7103TIP3    H242725   2.110   4.667  16.961  2.2025  1.7523  1.2690
 7104TIP3   OH242726   0.894   6.316   2.553 -0.3721 -0.1980  0.8265
 7104TIP3    H142727   0.889   6.317   2.649 -0.7010  0.2927  0.8058
 7104TIP3    H242728   0.954   6.387   2.532  0.7288 -1.1325  0.7189
 7105TIP3   OH242729   4.504   4.051  15.851 -0.3034  0.1265 -0.4786
 7105TIP3    H142730   4.437   4.027  15.916 -0.1028  0.4924 -0.1354
 7105TIP3    H242731   4.548   4.127  15.889  1.2650 -0.9705 -0.0419
 7106TIP3   OH242732   5.131   1.872   4.306 -0.2652  0.3325  0.3182
 7106TIP3    H142733   5.184   1.896   4.230 -1.0603  2.2411  0.3305
 7106TIP3    H242734   5.187   1.811   4.355 -0.4661 -2.5723 -2.7142
 7107TIP3   OH242735   6.154   3.207  11.224 -0.4251  0.0349 -0.1303
 7107TIP3    H142736   6.227   3.246  11.176 -0.2031 -0.5126 -0.2497
 7107TIP3    H242737   6.137   3.125  11.178 -0.3922 -0.3627  0.5548
 7108TIP3   OH242738   4.442   4.066  13.046 -0.0161 -0.5018 -0.3521
 7108TIP3    H142739   4.534   4.042  13.043  0.4426  0.8504  1.3092
 7108TIP3    H242740   4.416   4.055  13.137 -0.9748  0.8580 -0.4161
 7109TIP3   OH242741   6.077   0.254  12.507  0.2386 -0.2196 -0.0831
 7109TIP3    H142742   6.076   0.159  12.520  0.3024 -0.6018 -2.3997
 7109TIP3    H242743   6.165   0.274  12.476  0.0084  0.4769 -0.3254
 7110TIP3   OH242744   2.256   1.018  14.321  0.4597 -0.3468  0.1313
 7110TIP3    H142745   2.337   1.065  14.298  0.2063 -0.1071 -0.2816
 7110TIP3    H242746   2.282   0.925  14.320  0.5094 -0.3365 -0.9509
 7111TIP3   OH242747   2.203   4.304  12.679  0.2748  0.1844 -0.2681
 7111TIP3    H142748   2.166   4.325  12.593 -0.2743 -0.6907 -0.2584
 7111TIP3    H242749   2.196   4.209  12.686  1.2181  0.1493  0.3462
 7112TIP3   OH242750   1.593   3.555  12.173 -0.1464  0.4339 -0.0245
 7112TIP3    H142751   1.638   3.484  12.218 -1.1023 -0.3583 -0.2735
 7112TIP3    H242752   1.663   3.606  12.132  0.6117  0.1606  0.9045
 7113TIP3   OH242753   3.648   3.007   3.514 -0.0213  0.0636 -0.1089
 7113TIP3    H142754   3.738   3.030   3.536 -0.0074  0.6677 -0.7574
 7113TIP3    H242755   3.595   3.078   3.549 -0.2077 -0.1030 -0.0511
 7114TIP3   OH242756   2.947   2.111  14.889 -0.4046  0.5626  0.1583
 7114TIP3    H142757   2.928   2.192  14.842 -0.3482  0.5681  0.1444
 7114TIP3    H242758   2.878   2.050  14.861  0.4058  0.1400 -0.9876
 7115TIP3   OH242759   6.465   6.313  14.578  0.2406 -0.3889  0.1287
 7115TIP3    H142760   6.542   6.330  14.524  0.1598  0.7238  0.3253
 7115TIP3    H242761   6.497   6.261  14.651  1.3669  2.0938  1.5236
 7116TIP3   OH242762   1.363   6.404  12.871 -0.0953  0.4175 -0.2360
 7116TIP3    H142763   1.353   6.396  12.776 -0.5192 -0.1444 -0.1512
 7116TIP3    H242764   1.444   6.454  12.883 -0.9139  1.9792 -0.9128
 7117TIP3   OH242765   1.951   2.940  15.301 -0.2615 -0.1396 -0.4807
 7117TIP3    H142766   1.945   2.910  15.392  0.1104  0.0397 -0.3928
 7117TIP3    H242767   1.877   2.899  15.257  0.0013 -0.8483 -0.2749
 7118TIP3   OH242768   0.036   6.654   6.520 -0.5106 -0.2611 -0.0255
 7118TIP3    H142769  -0.049   6.669   6.562 -0.7616  2.9737 -1.4271
 7118TIP3    H242770   0.100   6.676   6.588 -0.8075 -0.6478  0.3886
 7119TIP3   OH242771   0.865   6.136   2.346 -0.2397 -0.0952 -0.1758
 7119TIP3    H142772   0.898   6.206   2.402  1.5827  0.0590 -1.3577
 7119TIP3    H242773   0.873   6.057   2.401 -0.6652  0.3662  0.5625
 7120TIP3   OH242774   3.148   0.610   5.305 -0.3300  0.3605 -0.7520
 7120TIP3    H142775   3.089   0.657   5.364  0.3357 -0.7723  0.8853
 7120TIP3    H242776   3.221   0.583   5.361 -0.9821 -3.2198 -1.3804
 7121TIP3   OH242777   3.504   6.000  13.782 -0.5210 -0.2238  0.3686
 7121TIP3    H142778   3.456   5.969  13.860  0.5701 -1.3672  0.6116
 7121TIP3    H242779   3.457   5.961  13.708  0.1437 -1.5551  0.6189
 7122TIP3   OH242780   5.091   0.330  11.035 -0.3671 -0.4623  0.0626
 7122TIP3    H142781   5.096   0.373  10.950  3.9448 -1.4748 -0.4641
 7122TIP3    H242782   5.023   0.264  11.025 -0.7739  0.2056 -2.1940
 7123TIP3   OH242783   5.580   5.541  13.221  0.1297 -0.5323 -0.0580
 7123TIP3    H142784   5.541   5.567  13.138 -0.7063 -0.1615  0.4310
 7123TIP3    H242785   5.658   5.491  13.197  0.6767  0.7360 -1.0609
 7124TIP3   OH242786   6.733   1.471   3.525 -0.0565  0.4742 -0.2832
 7124TIP3    H142787   6.788   1.449   3.450  0.7007  0.6802  0.2016
 7124TIP3    H242788   6.728   1.566   3.525  0.0541  0.4837 -0.0097
 7125TIP3   OH242789   2.155   4.015  12.802  0.4481 -0.2275 -0.3123
 7125TIP3    H142790   2.181   3.998  12.711 -0.4323 -0.2352 -0.5669
 7125TIP3    H242791   2.238   4.033  12.847  0.8639  0.1226 -1.1855
 7126TIP3   OH242792   0.095   0.649   4.383  0.1913  0.4253 -0.0981
 7126TIP3    H142793   0.122   0.688   4.300  2.5898  1.6121  1.1689
 7126TIP3    H242794   0.140   0.564   4.385  0.9230  0.8171  0.3941
 7127TIP3   OH242795   4.952   1.567   5.599  0.4196 -0.2744  0.4254
 7127TIP3    H142796   4.962   1.627   5.525 -0.1626 -0.0308  0.5357
 7127TIP3    H242797   4.961   1.623   5.676  0.7123 -0.4741  0.5358
 7128TIP3   OH242798   1.581   5.625   6.826 -0.6977 -0.3982  0.0849
 7128TIP3    H142799   1.605   5.573   6.903 -0.4845 -0.7643 -0.2266
 7128TIP3    H242800   1.657   5.682   6.811 -1.4916  1.0348  1.2818
 7129TIP3   OH242801   6.026   5.346   4.327 -0.8150 -1.0741 -0.3756
 7129TIP3    H142802   6.001   5.261   4.364  0.3088 -1.8853 -1.4316
 7129TIP3    H242803   6.109   5.330   4.282 -0.9546  0.4205 -1.2312
 7130TIP3   OH242804   1.385   4.050   0.520  0.1514  0.7554 -0.3206
 7130TIP3    H142805   1.443   4.098   0.462 -0.1709 -0.6704 -1.9045
 7130TIP3    H242806   1.324   4.116   0.553  0.5911  1.6773 -1.2826
 7131TIP3   OH242807   6.238   5.651  15.890 -0.4462  0.7762 -0.0214
 7131TIP3    H142808   6.281   5.682  15.970  1.3020 -1.1262 -0.1398
 7131TIP3    H242809   6.308   5.651  15.825 -1.5228  0.9527 -1.2054
 7132TIP3   OH242810   6.115   1.361   6.485 -0.2945 -0.3082 -0.0642
 7132TIP3    H142811   6.067   1.281   6.464 -0.4121 -0.5384  1.0236
 7132TIP3    H242812   6.105   1.416   6.407  0.7708 -1.7937 -1.3346
 7133TIP3   OH242813   5.753   4.244   1.554 -0.4622  0.6649  0.4652
 7133TIP3    H142814   5.669   4.249   1.599 -1.1092  0.9108 -0.7315
 7133TIP3    H242815   5.764   4.151   1.532 -0.8838  0.7690 -0.2096
 7134TIP3   OH242816   1.666   4.097  15.058  0.0877  0.4877  0.3215
 7134TIP3    H142817   1.626   4.183  15.069 -1.3851 -0.0258 -0.7916
 7134TIP3    H242818   1.647   4.072  14.967  2.5882  0.0114 -0.1683
 7135TIP3   OH242819   3.411   4.337  13.099 -0.2327 -0.1762 -0.3353
 7135TIP3    H142820   3.474   4.405  13.123 -0.4551 -0.3949  0.9222
 7135TIP3    H242821   3.361   4.320  13.179 -0.0811 -1.9398 -0.5630
 7136TIP3   OH242822   6.533   1.321   5.934 -0.2288  0.1264 -0.0812
 7136TIP3    H142823   6.461   1.293   5.990  0.2166  0.1108  0.4851
 7136TIP3    H242824   6.587   1.378   5.989  0.4314 -0.2152 -0.3605
 7137TIP3   OH242825   2.903   2.412  14.778  0.2970  0.4481 -0.6155
 7137TIP3    H142826   2.814   2.412  14.812  0.3889 -1.4360 -0.2496
 7137TIP3    H242827   2.895   2.384  14.687  0.5221 -0.2570 -0.4330
 7138TIP3   OH242828   1.078   0.866   2.313  0.7446 -0.2493  0.1248
 7138TIP3    H142829   1.105   0.834   2.399  0.3385 -0.2906  0.2358
 7138TIP3    H242830   1.059   0.787   2.263  0.6905 -0.2128  0.0890
 7139TIP3   OH242831   1.940   0.416  15.190 -0.7337  0.7117 -0.0080
 7139TIP3    H142832   1.992   0.401  15.269 -0.1108  1.2029 -0.3169
 7139TIP3    H242833   1.972   0.350  15.128 -0.3670  1.1011 -0.2431
 7140TIP3   OH242834   0.275   3.023   5.374 -0.1293 -0.0656 -0.0264
 7140TIP3    H142835   0.362   3.019   5.413 -0.0655  0.2974 -0.1307
 7140TIP3    H242836   0.265   2.940   5.328 -1.7242 -2.3559  3.9715
 7141TIP3   OH242837   2.508   2.607   1.766 -0.2245  0.2543 -0.0841
 7141TIP3    H142838   2.515   2.648   1.680 -1.1104 -0.3690 -0.4639
 7141TIP3    H242839   2.598   2.605   1.799  0.5787 -1.9091 -2.1207
 7142TIP3   OH242840   5.550   3.302  15.792  0.2539 -0.7715 -0.0448
 7142TIP3    H142841   5.598   3.342  15.719 -0.9293 -0.4313 -0.6558
 7142TIP3    H242842   5.575   3.210  15.790  1.1422 -0.5352 -0.1304
 7143TIP3   OH242843   0.543   6.354  11.343  0.6455 -0.1473  0.1339
 7143TIP3    H142844   0.565   6.324  11.255  0.7734  0.0410  0.0999
 7143TIP3    H242845   0.582   6.442  11.349 -0.6706  0.4888 -0.1805
 7144TIP3   OH242846   2.243   5.749  15.214  0.1911 -0.0909 -0.4597
 7144TIP3    H142847   2.334   5.773  15.228  0.1774 -0.4337  0.2174
 7144TIP3    H242848   2.209   5.816  15.155  1.5015 -1.2245 -2.6319
 7145TIP3   OH242849   1.738   1.878   5.564 -0.4731  0.6095  0.3457
 7145TIP3    H142850   1.761   1.785   5.557 -1.1846  0.4091  0.5677
 7145TIP3    H242851   1.820   1.924   5.550 -0.6043  0.0631 -3.0388
 7146TIP3   OH242852   1.280   2.483   0.281  0.6495 -0.2860  0.0795
 7146TIP3    H142853   1.271   2.537   0.202 -1.2183  0.8944  1.0128
 7146TIP3    H242854   1.301   2.546   0.350 -1.1918 -0.7511  1.1243
 7147TIP3   OH242855   3.168   2.090   4.665  0.1084 -0.0173 -0.0820
 7147TIP3    H142856   3.157   2.136   4.748 -1.5293  0.7578 -0.6853
 7147TIP3    H242857   3.251   2.043   4.674  1.4692  2.3957  0.8774
 7148TIP3   OH242858   6.217   4.146   1.201 -0.0641 -0.2402 -0.6018
 7148TIP3    H142859   6.312   4.143   1.192 -0.0108 -0.2917 -0.0655
 7148TIP3    H242860   6.185   4.076   1.144  0.2732 -0.8639 -0.0323
 7149TIP3   OH242861   6.134   1.891   5.153 -0.1621  0.0912 -0.5425
 7149TIP3    H142862   6.041   1.905   5.136 -0.2849 -1.4378 -1.3732
 7149TIP3    H242863   6.144   1.906   5.247 -1.0603  1.1305 -0.5964
 7150TIP3   OH242864   0.927   4.920   2.632  0.2279 -0.4306 -0.4260
 7150TIP3    H142865   0.948   4.977   2.706  1.0018 -2.4003  0.9876
 7150TIP3    H242866   1.009   4.872   2.616 -0.2534 -0.8110 -1.8469
 7151TIP3   OH242867   4.766   2.634   0.151 -0.2110  0.1264  0.2495
 7151TIP3    H142868   4.814   2.695   0.206  0.5192  0.7600 -1.0488
 7151TIP3    H242869   4.829   2.567   0.128  0.0148  0.8107 -1.2347
 7152TIP3   OH242870   0.315   1.035  16.551  0.4647 -0.0716 -0.8050
 7152TIP3    H142871   0.261   1.040  16.630  0.3962  0.4704 -0.8780
 7152TIP3    H242872   0.330   0.942  16.537  0.7354 -0.1580  0.0181
 7153TIP3   OH242873   2.159   5.209   2.383 -0.3705  0.0348 -0.2141
 7153TIP3    H142874   2.223   5.241   2.319 -1.1095 -1.3922 -1.7779
 7153TIP3    H242875   2.114   5.288   2.414  0.5428  0.8396 -0.8731
 7154TIP3   OH242876   2.108   3.328  14.422 -0.5942 -0.0648  0.3130
 7154TIP3    H142877   2.054   3.281  14.359 -1.1435  0.2621  0.5284
 7154TIP3    H242878   2.063   3.316  14.506 -1.1913  1.4863  0.2484
 7155TIP3   OH242879   1.177   2.914   4.061  0.4065  0.0301  0.4999
 7155TIP3    H142880   1.163   2.820   4.047  0.8457  0.2054 -1.4795
 7155TIP3    H242881   1.186   2.950   3.972  1.0603  1.8160  1.2453
 7156TIP3   OH242882   0.494   1.496  12.950 -0.1649 -0.2258  0.2664
 7156TIP3    H142883   0.474   1.536  12.865  2.1712 -0.9918 -0.7237
 7156TIP3    H242884   0.582   1.461  12.940  1.5973  2.3707  3.9511
 7157TIP3   OH242885   1.698   4.096  11.666 -0.0366 -0.1292  0.0093
 7157TIP3    H142886   1.615   4.066  11.703 -0.2221  0.2256 -0.1180
 7157TIP3    H242887   1.759   4.024  11.685 -0.0647  0.1445  1.2243
 7158TIP3   OH242888   3.437   3.978  16.717  0.3765 -0.5578  0.0178
 7158TIP3    H142889   3.356   4.027  16.700 -0.9018 -3.1411 -1.9963
 7158TIP3    H242890   3.500   4.045  16.744 -2.1244  1.6972  0.7113
 7159TIP3   OH242891   5.089   3.449  11.821  0.5819  0.4401  0.1736
 7159TIP3    H142892   5.071   3.503  11.745  0.4742 -0.8831 -0.7794
 7159TIP3    H242893   5.183   3.461  11.838  0.9117 -0.3036 -1.0301
 7160TIP3   OH242894   4.570   0.297   2.127  0.0890  0.7076 -0.1378
 7160TIP3    H142895   4.536   0.291   2.216 -0.3486  1.6102 -0.2344
 7160TIP3    H242896   4.494   0.282   2.071  0.6729 -1.5903 -0.3940
 7161TIP3   OH242897   2.515   6.494   4.594  0.1144 -0.7973 -0.3528
 7161TIP3    H142898   2.553   6.515   4.679 -1.4823  0.7919  0.0411
 7161TIP3    H242899   2.479   6.577   4.563  0.0697 -1.4913 -2.2815
 7162TIP3   OH242900   2.682   6.294   5.947 -0.5957 -0.4871  0.0213
 7162TIP3    H142901   2.735   6.217   5.927  0.0989  0.1560 -0.6846
 7162TIP3    H242902   2.745   6.366   5.954 -1.2381  0.0361  0.6057
 7163TIP3   OH242903   1.276   0.133   2.368 -0.0878  0.0872 -0.7037
 7163TIP3    H142904   1.351   0.190   2.353 -0.1753 -0.2994 -3.1176
 7163TIP3    H242905   1.312   0.045   2.369 -0.3767 -0.0357 -0.8347
 7164TIP3   OH242906   5.042   6.590  12.402  0.6008 -0.4203  0.4000
 7164TIP3    H142907   5.097   6.523  12.443  1.4822  0.0888  0.0799
 7164TIP3    H242908   5.020   6.553  12.316  0.8642 -0.4132  0.3283
 7165TIP3   OH242909   6.226   0.439   2.296  0.2260 -0.3259  0.1032
 7165TIP3    H142910   6.159   0.372   2.310  0.9058 -1.1013 -0.2566
 7165TIP3    H242911   6.308   0.396   2.322  1.0831 -0.6339 -2.7600
 7166TIP3   OH242912   6.479   6.089  13.456  0.3592 -0.5636 -0.1053
 7166TIP3    H142913   6.476   6.006  13.502  0.5016 -1.0085 -0.8883
 7166TIP3    H242914   6.483   6.155  13.525 -1.8564 -1.0836  0.5909
 7167TIP3   OH242915   4.179   6.101  14.905 -0.3786  0.7416  0.3533
 7167TIP3    H142916   4.169   6.008  14.884  2.1196  0.7067 -1.0424
 7167TIP3    H242917   4.212   6.103  14.994  2.0323  0.0880 -0.4665
 7168TIP3   OH242918   5.132   2.559  12.358  0.0043 -0.3094 -0.0184
 7168TIP3    H142919   5.150   2.531  12.448  0.0854 -0.2155 -0.0046
 7168TIP3    H242920   5.136   2.478  12.306 -4.0476 -1.1162  0.5938
 7169TIP3   OH242921   4.749   2.902   6.265 -0.8048 -0.1529 -0.2348
 7169TIP3    H142922   4.715   2.951   6.340  0.3069 -0.8981  0.7980
 7169TIP3    H242923   4.811   2.962   6.224 -3.1498  1.1944 -2.0980
 7170TIP3   OH242924   6.562   6.052   1.936 -0.4290 -0.1941  0.6675
 7170TIP3    H142925   6.650   6.034   1.971  0.0910 -0.8580 -0.8484
 7170TIP3    H242926   6.571   6.135   1.890  0.1738 -1.4542 -1.6817
 7171TIP3   OH242927   4.779   3.369   4.530 -0.1928  0.8539 -0.2883
 7171TIP3    H142928   4.742   3.362   4.618  0.5716 -0.3169 -0.0358
 7171TIP3    H242929   4.702   3.370   4.472 -0.6761 -0.5373  0.2818
 7172TIP3   OH242930   5.361   5.099   5.617  0.8447  0.0730 -0.0102
 7172TIP3    H142931   5.358   5.003   5.626 -0.9806 -0.0621 -1.2776
 7172TIP3    H242932   5.393   5.113   5.528  0.8101  0.6253  0.0606
 7173TIP3   OH242933   6.256   4.010  17.066  0.3511  0.0989  0.1740
 7173TIP3    H142934   6.304   3.932  17.092 -0.4293 -0.4967 -0.1318
 7173TIP3    H242935   6.318   4.060  17.012  0.8198 -0.3601  0.2841
 7174TIP3   OH242936   1.326   3.488  14.271 -0.5137  0.2492 -0.0080
 7174TIP3    H142937   1.238   3.454  14.255  0.0947 -0.2790 -2.6562
 7174TIP3    H242938   1.351   3.529  14.188  1.1000  1.9186  1.2325
 7175TIP3   OH242939   0.533   3.145  13.591 -0.0306  0.2431  0.5664
 7175TIP3    H142940   0.493   3.186  13.668 -2.8222  0.4141 -0.8367
 7175TIP3    H242941   0.459   3.117  13.538  1.7551  0.8372 -2.4585
 7176TIP3   OH242942   5.856   3.603   3.211 -0.2056  0.8487 -0.3226
 7176TIP3    H142943   5.940   3.578   3.173 -0.1253 -0.6168  0.7040
 7176TIP3    H242944   5.810   3.649   3.141  0.5919 -0.2656 -1.6246
 7177TIP3   OH242945   3.383   3.984   3.710 -0.1497  0.4479 -0.2925
 7177TIP3    H142946   3.351   4.035   3.784  0.7986  0.8965 -0.1834
 7177TIP3    H242947   3.312   3.922   3.692 -1.6250  2.1992 -0.8629
 7178TIP3   OH242948   0.887   0.430  15.341 -0.6338 -0.2493 -0.0220
 7178TIP3    H142949   0.903   0.442  15.434 -1.7348 -0.4886  0.2105
 7178TIP3    H242950   0.893   0.519  15.304  0.0924 -0.1942  0.2216
 7179TIP3   OH242951   0.470   0.340   3.660  0.8491 -0.4471  0.3519
 7179TIP3    H142952   0.521   0.294   3.727  1.6485  0.3960  0.3391
 7179TIP3    H242953   0.529   0.406   3.626 -0.3483  0.7768  0.5602
 7180TIP3   OH242954   0.839   3.834   3.582 -0.3139  0.4547 -0.4931
 7180TIP3    H142955   0.777   3.868   3.517  0.5686  2.2039 -0.4660
 7180TIP3    H242956   0.836   3.898   3.653  2.1728  1.0926 -0.8848
 7181TIP3   OH242957   2.394   4.246  13.131  0.6701  0.3565  0.2625
 7181TIP3    H142958   2.300   4.232  13.138  0.5772  0.9399  0.2728
 7181TIP3    H242959   2.402   4.339  13.109  1.2455  0.3308  0.3585
 7182TIP3   OH242960   5.985   1.022   1.720 -0.3046  0.3894 -0.2615
 7182TIP3    H142961   5.892   1.006   1.702 -0.5746  2.5024 -1.0660
 7182TIP3    H242962   5.987   1.049   1.811 -0.4778  0.3440 -0.2425
 7183TIP3   OH242963   2.186   0.733   3.041  0.8368 -0.3207  0.7912
 7183TIP3    H142964   2.274   0.715   3.009  0.6435 -1.0875  0.6723
 7183TIP3    H242965   2.146   0.647   3.050 -0.7987  0.0917 -1.6658
 7184TIP3   OH242966   2.993   4.220  14.126  0.1594 -0.0330  0.1427
 7184TIP3    H142967   2.968   4.288  14.188  1.3479  0.1024  0.4919
 7184TIP3    H242968   2.966   4.254  14.041 -1.4468 -0.1998  0.5397
 7185TIP3   OH242969   5.095   2.679  13.749  0.4038  0.8020  0.3138
 7185TIP3    H142970   5.153   2.645  13.817  1.2062  0.9566 -0.2735
 7185TIP3    H242971   5.007   2.677  13.788  0.6929 -0.1827  0.9362
 7186TIP3   OH242972   2.032   5.226   3.361 -0.2202  0.9465  0.0152
 7186TIP3    H142973   1.953   5.222   3.307 -0.7866  0.6376  0.8380
 7186TIP3    H242974   2.064   5.136   3.364  0.3547  1.1268 -0.5823
 7187TIP3   OH242975   1.180   0.986  16.569 -0.0744  0.1270  0.0802
 7187TIP3    H142976   1.222   1.011  16.487  1.2612  1.3878  1.0948
 7187TIP3    H242977   1.129   1.062  16.595 -0.8111 -0.4079  0.2501
 7188TIP3   OH242978   3.412   0.797   4.725  0.0270  0.4116 -0.2734
 7188TIP3    H142979   3.328   0.837   4.703  0.2173  0.8692 -0.1581
 7188TIP3    H242980   3.453   0.780   4.640  0.1012  0.7885 -0.3134
 7189TIP3   OH242981   6.391   0.453   4.133  0.9030 -0.0941 -1.2586
 7189TIP3    H142982   6.342   0.505   4.069  1.0688 -0.0381 -1.3415
 7189TIP3    H242983   6.333   0.380   4.155 -0.6435  1.7261  1.1622
 7190TIP3   OH242984   1.026   0.848  11.485 -0.2050 -0.1145 -0.4789
 7190TIP3    H142985   1.104   0.858  11.431  0.4296  0.9905  0.5940
 7190TIP3    H242986   1.042   0.768  11.536 -0.1609 -0.3467 -0.8508
 7191TIP3   OH242987   3.826   3.587   3.477 -0.4061 -0.0326 -0.3166
 7191TIP3    H142988   3.921   3.578   3.467 -0.4674 -0.6672 -0.4126
 7191TIP3    H242989   3.793   3.590   3.388 -0.4149  0.9869 -0.2833
 7192TIP3   OH242990   0.240   0.833   5.676 -0.4422  0.6372 -0.0338
 7192TIP3    H142991   0.211   0.908   5.728 -0.6844 -0.1485  1.0042
 7192TIP3    H242992   0.336   0.837   5.680 -0.3974 -0.6161  2.3814
 7193TIP3   OH242993   0.609   5.506   3.463  0.4089 -0.4227  0.2373
 7193TIP3    H142994   0.517   5.531   3.468  0.7218  1.0883 -0.9410
 7193TIP3    H242995   0.630   5.509   3.370  1.2255 -2.4833  0.3070
 7194TIP3   OH242996   0.999   3.077   4.930  0.2574 -0.0141  0.3882
 7194TIP3    H142997   0.904   3.088   4.932  0.1266 -0.7299 -0.7317
 7194TIP3    H242998   1.033   3.164   4.907  0.0175  0.6593  2.3607
 7195TIP3   OH242999   4.923   3.135  13.185  0.3511 -0.5432 -0.0303
 7195TIP3    H143000   4.831   3.125  13.161  0.2618 -1.3370  0.6043
 7195TIP3    H243001   4.940   3.228  13.176 -0.2917 -0.5036 -0.9478
 7196TIP3   OH243002   4.798   2.637  10.827 -0.1096 -0.1370  0.1045
 7196TIP3    H143003   4.855   2.568  10.862  1.3019  0.9639  0.0705
 7196TIP3    H243004   4.778   2.609  10.738 -1.4338 -1.5896  0.8045
 7197TIP3   OH243005   2.835   0.051  16.844  0.1471  0.0531 -0.0873
 7197TIP3    H143006   2.799   0.089  16.924 -0.1128  0.9519 -0.6118
 7197TIP3    H243007   2.922   0.020  16.869 -0.1669 -0.2392  0.6820
 7198TIP3   OH243008   5.788   4.731   6.574  0.6847  0.2411 -0.2348
 7198TIP3    H143009   5.855   4.735   6.642 -0.8463 -0.9678  1.4551
 7198TIP3    H243010   5.795   4.642   6.538  1.9449  1.0764 -2.2590
 7199TIP3   OH243011   5.398   4.492   1.001 -0.1261 -0.2737  0.1371
 7199TIP3    H143012   5.450   4.443   0.937 -2.1935 -1.1974 -0.9296
 7199TIP3    H243013   5.406   4.442   1.082  0.9533 -0.1531  0.1275
 7200TIP3   OH243014   0.814   5.025  12.694  0.2739  1.1219  0.4753
 7200TIP3    H143015   0.834   5.054  12.783 -0.4536 -0.9522  1.3792
 7200TIP3    H243016   0.892   4.975  12.667 -0.1321  0.4240  0.5754
 7201TIP3   OH243017   2.384   0.978   0.410  0.1394 -0.1445 -0.5370
 7201TIP3    H143018   2.311   1.011   0.462  1.7251 -0.1856  1.8364
 7201TIP3    H243019   2.458   0.976   0.470  1.8641 -1.1483 -2.5600
 7202TIP3   OH243020   3.442   0.211   1.471  0.2063 -0.3021 -0.0339
 7202TIP3    H143021   3.400   0.204   1.557 -0.0733  0.1788 -0.1259
 7202TIP3    H243022   3.506   0.281   1.481  0.2185 -0.2887 -0.2021
 7203TIP3   OH243023   1.769   0.297   0.465  0.2142  0.0233  1.0320
 7203TIP3    H143024   1.749   0.207   0.493  1.6315 -0.7548 -0.2961
 7203TIP3    H243025   1.725   0.352   0.529 -1.7198 -1.6010  1.2062
 7204TIP3   OH243026   2.150   2.908  10.498 -0.0623  0.0364 -0.4779
 7204TIP3    H143027   2.222   2.966  10.522  0.2472  0.1042 -1.4874
 7204TIP3    H243028   2.192   2.825  10.477 -0.3747 -0.1947 -0.1854
 7205TIP3   OH243029   5.468   1.996   4.636 -0.1298 -0.3589  1.0323
 7205TIP3    H143030   5.398   2.055   4.664  0.2919  0.4838  0.3718
 7205TIP3    H243031   5.473   1.930   4.704 -1.4521 -0.3346  1.1790
 7206TIP3   OH243032   6.387   4.026   4.568 -0.1165 -0.0954 -0.3701
 7206TIP3    H143033   6.459   4.067   4.521 -1.2322  0.9401 -1.2216
 7206TIP3    H243034   6.423   3.941   4.596  1.0184 -0.1748 -1.8977
 7207TIP3   OH243035   3.630   2.139   3.493  0.6782  0.4832  0.8006
 7207TIP3    H143036   3.576   2.135   3.415 -0.5924  3.3476  1.4044
 7207TIP3    H243037   3.610   2.059   3.541 -0.0006 -0.3779 -0.8533
 7208TIP3   OH243038   1.637   4.599  15.078 -0.3854 -0.1623 -0.0534
 7208TIP3    H143039   1.628   4.663  15.149 -1.0635 -1.3920  1.0150
 7208TIP3    H243040   1.561   4.616  15.021 -0.0751  0.5493 -0.2606
 7209TIP3   OH243041   2.027   1.981  10.808 -0.8606 -0.3213 -0.5089
 7209TIP3    H143042   2.084   1.982  10.731 -1.7008  0.6124 -1.1497
 7209TIP3    H243043   1.942   2.011  10.775 -1.2042  0.2346  0.8118
 7210TIP3   OH243044   6.139   2.600   5.644 -0.1079 -0.5468 -0.3662
 7210TIP3    H143045   6.232   2.601   5.622 -0.2249 -0.9579 -0.9047
 7210TIP3    H243046   6.137   2.595   5.739  0.4190  0.6216 -0.2704
 7211TIP3   OH243047   1.696   1.628  11.854 -0.1610 -0.1318  0.1901
 7211TIP3    H143048   1.763   1.652  11.918  0.2604  2.6822 -1.1741
 7211TIP3    H243049   1.735   1.558  11.803  0.7336 -0.2278  0.9808
 7212TIP3   OH243050   4.957   0.840   4.716 -0.4140 -0.2223 -0.4225
 7212TIP3    H143051   5.042   0.795   4.714 -1.2092 -1.7784 -2.4249
 7212TIP3    H243052   4.941   0.865   4.625 -2.8499 -1.5158 -0.4267
 7213TIP3   OH243053   5.592   0.210  17.290  0.0840  0.5319 -0.5424
 7213TIP3    H143054   5.658   0.270  17.254 -0.7506  1.0708 -1.1939
 7213TIP3    H243055   5.608   0.127  17.245  2.6555 -0.4650  1.8928
 7214TIP3   OH243056   1.620   4.464   3.116 -0.0860 -0.5407  0.2052
 7214TIP3    H143057   1.605   4.516   3.194  1.0475  2.4907 -1.4182
 7214TIP3    H243058   1.536   4.462   3.071  0.2096  1.4914 -0.5317
 7215TIP3   OH243059   2.873   0.496   2.517  0.4445 -0.5183 -0.1030
 7215TIP3    H143060   2.811   0.501   2.590  0.8198 -1.5172  0.2954
 7215TIP3    H243061   2.819   0.495   2.439  0.0301  0.3933  0.1558
 7216TIP3   OH243062   0.564   1.555  13.228  0.3678 -0.1001 -0.8254
 7216TIP3    H143063   0.549   1.557  13.133 -0.5185  2.6081 -0.7302
 7216TIP3    H243064   0.638   1.615  13.241  0.9379 -0.9803  0.1722
 7217TIP3   OH243065   0.049   1.032   3.028  0.2687  0.4855  0.0735
 7217TIP3    H143066  -0.037   1.074   3.039 -0.3808 -0.7363 -0.1978
 7217TIP3    H243067   0.088   1.076   2.953 -0.5289  0.4135 -0.3933
 7218TIP3   OH243068   3.115   1.522  15.899  0.1609  0.4361  0.4649
 7218TIP3    H143069   3.052   1.592  15.888  0.1740  0.3078 -0.5788
 7218TIP3    H243070   3.185   1.560  15.952  0.5420  1.4645 -0.7360
 7219TIP3   OH243071   5.506   3.652  13.294 -0.6754  0.3860  0.0391
 7219TIP3    H143072   5.585   3.697  13.326 -0.2631  0.7377 -1.3750
 7219TIP3    H243073   5.433   3.706  13.324 -0.4200 -0.1845  1.7488
 7220TIP3   OH243074   0.602   5.998   2.670  0.5515 -0.5174  0.4582
 7220TIP3    H143075   0.520   6.018   2.715  1.4500  0.5144  1.7556
 7220TIP3    H243076   0.576   5.956   2.589 -1.2478 -0.3617  0.9103
 7221TIP3   OH243077   5.820   6.050  16.422 -0.0694  0.4668  0.5823
 7221TIP3    H143078   5.799   5.985  16.355  0.7435  1.8689 -1.1101
 7221TIP3    H243079   5.915   6.049  16.426 -0.1196 -0.1993  2.3980
 7222TIP3   OH243080   2.729   1.945  16.772  0.1376 -0.0931  0.2561
 7222TIP3    H143081   2.800   1.896  16.730 -2.5330 -1.5008 -3.1070
 7222TIP3    H243082   2.689   1.883  16.832 -0.9363 -0.9482 -1.2553
 7223TIP3   OH243083   6.076   2.000  16.526  0.5213  0.3134 -0.5706
 7223TIP3    H143084   6.069   2.092  16.502 -0.0748  1.1489  2.3549
 7223TIP3    H243085   6.141   1.999  16.597  1.1205 -1.6718 -1.0809
 7224TIP3   OH243086   5.374   4.325   3.216 -0.1850 -0.0395 -0.1180
 7224TIP3    H143087   5.364   4.258   3.285 -1.4969  0.0518 -0.2112
 7224TIP3    H243088   5.294   4.376   3.220  0.5175  1.1279 -0.5112
 7225TIP3   OH243089   1.746   5.918  13.948 -0.1728  0.1426 -0.1707
 7225TIP3    H143090   1.809   5.971  13.900 -0.0732 -0.1454 -0.3573
 7225TIP3    H243091   1.711   5.857  13.883  1.2132 -1.4143  0.4669
 7226TIP3   OH243092   0.436   3.436   4.416 -0.2724 -0.1065  0.0227
 7226TIP3    H143093   0.474   3.513   4.460  1.9628 -0.5969 -0.8947
 7226TIP3    H243094   0.418   3.466   4.327 -0.0769 -0.4503 -0.1326
 7227TIP3   OH243095   6.186   0.020  17.344  0.1001 -0.1081  0.1200
 7227TIP3    H143096   6.204   0.002  17.436 -1.5137 -0.3113  0.4306
 7227TIP3    H243097   6.113   0.082  17.346  0.0691 -0.0899 -1.0257
 7228TIP3   OH243098   6.352   1.750  14.210  0.0055 -0.2182 -0.6150
 7228TIP3    H143099   6.315   1.832  14.177 -2.0670  0.3444  2.6495
 7228TIP3    H243100   6.303   1.733  14.291  0.4049 -4.6509 -1.0752
 7229TIP3   OH243101   1.931   4.497   0.341 -0.2101  0.0194  0.6634
 7229TIP3    H143102   1.983   4.570   0.376  0.2689 -0.5064  1.0701
 7229TIP3    H243103   1.842   4.533   0.334  0.3033  1.1495 -0.6933
 7230TIP3   OH243104   1.838   1.285  11.476  0.1213 -0.6611 -0.1730
 7230TIP3    H143105   1.867   1.194  11.481  1.1684 -0.4593 -1.7999
 7230TIP3    H243106   1.753   1.281  11.433  0.2392 -0.8678 -0.3890
 7231TIP3   OH243107   1.428   6.390  13.634 -0.5232  0.6022  0.0252
 7231TIP3    H143108   1.523   6.383  13.620 -0.0510  1.5067  2.2893
 7231TIP3    H243109   1.418   6.387  13.729 -2.9028 -0.5268 -0.1972
 7232TIP3   OH243110   4.106   2.335   0.717 -0.6225  0.5111  0.0073
 7232TIP3    H143111   4.148   2.260   0.758  1.1947  1.1544 -0.5457
 7232TIP3    H243112   4.021   2.342   0.759  0.0096 -0.5981  1.5461
 7233TIP3   OH243113   5.109   3.602   5.809  0.2073  0.3111  0.7447
 7233TIP3    H143114   5.100   3.697   5.800 -0.6639  0.4546  2.5876
 7233TIP3    H243115   5.203   3.586   5.812  0.3885  0.9482 -0.8564
 7234TIP3   OH243116   3.812   2.822  14.403  0.3102 -0.7325  0.9356
 7234TIP3    H143117   3.850   2.904  14.435 -0.2501 -0.6626  1.4275
 7234TIP3    H243118   3.847   2.755  14.462  1.0631 -0.9056  0.3084
 7235TIP3   OH243119   5.082   4.837  16.353 -0.1640 -0.6145 -0.1521
 7235TIP3    H143120   5.032   4.879  16.422  0.0967  0.4724 -0.6041
 7235TIP3    H243121   5.171   4.832  16.387  0.4758  1.9789 -1.2018
 7236TIP3   OH243122   1.474   2.329   5.871  0.1686 -0.1294 -0.0594
 7236TIP3    H143123   1.481   2.329   5.967 -1.1908  3.0089  0.1670
 7236TIP3    H243124   1.548   2.383   5.842  0.4826 -0.9397 -0.7944
 7237TIP3   OH243125   2.916   1.568   3.447 -0.4802  0.2404 -0.1636
 7237TIP3    H143126   2.911   1.495   3.508 -0.5995  0.9537  0.6969
 7237TIP3    H243127   3.007   1.599   3.453  0.3795 -1.4802 -2.5274
 7238TIP3   OH243128   1.667   4.773   4.827  0.0195 -0.4244 -1.0878
 7238TIP3    H143129   1.669   4.765   4.922  0.0729 -0.9713 -1.1313
 7238TIP3    H243130   1.578   4.747   4.802 -0.3532  0.8053 -1.1024
 7239TIP3   OH243131   5.158   0.098  14.418 -0.3100 -0.3026 -0.1871
 7239TIP3    H143132   5.088   0.060  14.470 -0.1879 -1.8565 -1.0905
 7239TIP3    H243133   5.237   0.087  14.471 -0.5351  0.2933  0.2857
 7240TIP3   OH243134   4.065   4.857  13.677 -0.5971 -0.3587  0.5395
 7240TIP3    H143135   4.067   4.924  13.745 -0.9611 -1.1913  1.3951
 7240TIP3    H243136   4.135   4.881  13.617 -1.4953  1.4591  0.1554
 7241TIP3   OH243137   2.117   1.152   5.161 -0.0936 -0.1967 -0.2468
 7241TIP3    H143138   2.206   1.173   5.135  0.1658 -0.6532  0.2318
 7241TIP3    H243139   2.104   1.062   5.131 -0.0900 -0.4269  0.4131
 7242TIP3   OH243140   3.296   4.908   4.330 -0.1010 -0.1281 -0.1602
 7242TIP3    H143141   3.214   4.957   4.340 -0.6554 -0.6469 -1.8795
 7242TIP3    H243142   3.305   4.895   4.236  2.0104 -0.0391 -0.0158
 7243TIP3   OH243143   0.663   0.358  16.155 -0.6050  0.5956 -0.6905
 7243TIP3    H143144   0.629   0.281  16.200 -0.1990  0.2025 -1.0454
 7243TIP3    H243145   0.707   0.409  16.223  1.1744 -0.6477 -0.8374
 7244TIP3   OH243146   3.536   5.641  13.925 -0.6376 -0.0196  0.2156
 7244TIP3    H143147   3.593   5.581  13.972  0.9642  0.6866 -0.7322
 7244TIP3    H243148   3.508   5.705  13.990 -2.9219 -2.0673  1.4062
 7245TIP3   OH243149   2.545   6.646   3.765 -0.3766 -0.0423 -0.1031
 7245TIP3    H143150   2.488   6.723   3.758 -0.4870 -0.0648  0.4761
 7245TIP3    H243151   2.486   6.572   3.755 -0.5491 -0.0773  0.9691
 7246TIP3   OH243152   3.317   0.809  15.153 -0.3450 -0.2806  0.1529
 7246TIP3    H143153   3.366   0.869  15.096 -0.7699 -0.7363 -0.7100
 7246TIP3    H243154   3.379   0.739  15.171 -0.2372 -0.1822  0.1672
 7247TIP3   OH243155   3.276   1.211   1.783  0.2048 -0.4079  0.6017
 7247TIP3    H143156   3.290   1.297   1.743 -0.5876 -0.3959  0.3174
 7247TIP3    H243157   3.253   1.230   1.874  0.6535 -0.3530  0.7023
 7248TIP3   OH243158   4.674   6.139   5.382  0.1729  0.7132 -0.5998
 7248TIP3    H143159   4.718   6.092   5.453 -1.0795  0.6949  0.1973
 7248TIP3    H243160   4.675   6.230   5.409 -2.4398  0.4476  0.7078
 7249TIP3   OH243161   5.775   3.413   4.438  0.3035  0.1839 -0.3470
 7249TIP3    H143162   5.856   3.438   4.483  0.9167 -1.4633 -0.4738
 7249TIP3    H243163   5.775   3.465   4.358 -0.6165  2.8846  1.2618
 7250TIP3   OH243164   5.584   5.678   4.022 -0.9897 -0.3250 -0.4175
 7250TIP3    H143165   5.590   5.690   3.927 -3.5863  1.8897 -0.4329
 7250TIP3    H243166   5.641   5.745   4.059 -0.4566 -0.7791 -0.4166
 7251TIP3   OH243167   5.245   2.548   5.594  0.2444 -0.5470  0.3443
 7251TIP3    H143168   5.337   2.524   5.585  0.1244 -0.9464  0.1447
 7251TIP3    H243169   5.236   2.629   5.545  0.6578 -0.0818  1.0200
 7252TIP3   OH243170   1.459   2.895  17.218  0.1335 -0.1063  0.4700
 7252TIP3    H143171   1.377   2.927  17.256 -0.4969 -0.5645 -0.4682
 7252TIP3    H243172   1.460   2.929  17.129 -0.0099 -1.7239 -0.1874
 7253TIP3   OH243173   5.885   1.128   4.614  0.4994  0.4926  0.6843
 7253TIP3    H143174   5.977   1.155   4.611  0.2313  1.6661  2.0045
 7253TIP3    H243175   5.837   1.201   4.574  0.1217 -0.0518  0.1275
 7254TIP3   OH243176   2.278   4.093  15.841  0.1871  0.1881 -0.6267
 7254TIP3    H143177   2.184   4.076  15.845  0.2888 -0.2063  0.1550
 7254TIP3    H243178   2.317   4.029  15.901  1.1139 -0.7976 -2.1986
 7255TIP3   OH243179   2.955   3.892   1.885  0.1039  0.2714 -0.3181
 7255TIP3    H143180   2.860   3.904   1.893  0.1651 -0.2267  1.3941
 7255TIP3    H243181   2.966   3.798   1.872  0.4480  0.0264  1.5390
 7256TIP3   OH243182   4.735   2.252  14.453  0.1455  0.4233 -0.1535
 7256TIP3    H143183   4.656   2.295  14.486  1.4506  1.2702  2.0544
 7256TIP3    H243184   4.787   2.234  14.531  2.3895  0.3472 -1.5904
 7257TIP3   OH243185   4.411   4.426   0.988  0.0255  0.4833  0.5156
 7257TIP3    H143186   4.437   4.347   0.940 -0.2018  0.4160  0.4998
 7257TIP3    H243187   4.491   4.477   0.996 -0.2987  1.4347 -1.6825
 7258TIP3   OH243188   2.526   5.732  12.924  0.4842 -0.3308  0.2112
 7258TIP3    H143189   2.586   5.686  12.866  1.9105  0.7750  0.7677
 7258TIP3    H243190   2.572   5.737  13.008 -0.6230  0.0600  0.8253
 7259TIP3   OH243191   0.297   5.263   1.045  0.2626 -0.2407  0.2368
 7259TIP3    H143192   0.261   5.251   1.133 -1.0319  2.5220  0.1951
 7259TIP3    H243193   0.334   5.178   1.022 -2.6261 -2.1509  1.9900
 7260TIP3   OH243194   0.933   5.967  14.068 -0.4829 -0.0580 -0.2714
 7260TIP3    H143195   0.974   5.987  13.984  1.1763  1.0318  0.7367
 7260TIP3    H243196   0.954   5.876  14.084 -0.7515 -0.2537 -0.9960
 7261TIP3   OH243197   1.030   4.213   0.218  0.5417  0.0492 -0.1171
 7261TIP3    H143198   1.113   4.182   0.182  1.4072 -1.8958  3.1143
 7261TIP3    H243199   0.964   4.155   0.180  0.5795  1.4214 -2.4826
 7262TIP3   OH243200   3.359   5.628   2.134 -0.7040 -0.1396 -0.2716
 7262TIP3    H143201   3.406   5.545   2.133 -0.6311 -0.0919 -1.0151
 7262TIP3    H243202   3.428   5.694   2.130 -0.7726 -0.0393  0.1183
 7263TIP3   OH243203   1.582   3.368  11.307  0.3505  0.2691 -0.1504
 7263TIP3    H143204   1.533   3.291  11.279 -0.0287  1.0622 -1.7577
 7263TIP3    H243205   1.516   3.435  11.319  0.6373  0.2844  1.5920
 7264TIP3   OH243206   3.305   6.417   3.378 -0.3099  0.1419  0.3247
 7264TIP3    H143207   3.382   6.412   3.322 -0.4195  0.9902  0.0904
 7264TIP3    H243208   3.319   6.495   3.432 -0.4062 -0.4142  1.1846
 7265TIP3   OH243209   1.497   2.444  17.080 -0.7171 -0.2881 -0.1325
 7265TIP3    H143210   1.471   2.354  17.060  0.0511 -0.4793 -0.3340
 7265TIP3    H243211   1.520   2.442  17.173 -0.2442 -0.4223 -0.2485
 7266TIP3   OH243212   2.600   2.807  17.303  0.7605  0.1646  0.4800
 7266TIP3    H143213   2.535   2.764  17.249 -0.7595  1.9953  0.7311
 7266TIP3    H243214   2.683   2.765  17.280 -0.3849 -1.7705 -0.3451
 7267TIP3   OH243215   0.546   4.536  15.113  0.0643 -0.5686  0.0565
 7267TIP3    H143216   0.586   4.474  15.052  0.2388 -1.0841  0.6913
 7267TIP3    H243217   0.611   4.605  15.123  0.0767 -0.5325 -0.2571
 7268TIP3   OH243218   2.463   2.379   1.903  0.5539  0.2992 -0.2951
 7268TIP3    H143219   2.523   2.379   1.978 -1.1058  1.1144  1.1117
 7268TIP3    H243220   2.470   2.467   1.867 -1.9051  1.4920  1.7801
 7269TIP3   OH243221   4.899   4.579  15.338 -0.4286  0.0758 -0.0993
 7269TIP3    H143222   4.953   4.505  15.366 -0.8714  0.1362  0.9505
 7269TIP3    H243223   4.857   4.548  15.258  0.3936 -0.3296 -0.3871
 7270TIP3   OH243224   4.621   1.319  14.675 -0.2145 -0.0246  0.0245
 7270TIP3    H143225   4.698   1.267  14.700 -0.9124 -1.0127  0.1569
 7270TIP3    H243226   4.547   1.272  14.713 -1.0505 -0.0615 -1.5930
 7271TIP3   OH243227   2.278   3.162  12.006 -0.3447 -0.2576 -0.0718
 7271TIP3    H143228   2.182   3.163  12.005 -0.3736  0.9362 -2.3377
 7271TIP3    H243229   2.302   3.243  12.052 -0.3988 -0.5153  0.4228
 7272TIP3   OH243230   1.492   6.264   5.430 -0.3769 -0.4361 -0.2079
 7272TIP3    H143231   1.539   6.241   5.510 -1.2203 -0.4764  0.2773
 7272TIP3    H243232   1.562   6.289   5.369  0.1639  1.4297  1.1110
 7273TIP3   OH243233   2.156   0.839   1.686 -0.3728  0.1648 -0.3421
 7273TIP3    H143234   2.148   0.745   1.674 -0.5456  0.3399 -1.6994
 7273TIP3    H243235   2.133   0.877   1.601 -2.6442  1.5398  0.7532
 7274TIP3   OH243236   3.707   3.921  12.817 -0.0671 -0.0979 -0.1919
 7274TIP3    H143237   3.654   3.982  12.868  1.3820 -0.3298  1.6986
 7274TIP3    H243238   3.645   3.879  12.757 -1.2899  2.3724 -0.7579
 7275TIP3   OH243239   5.281   5.080   4.044 -0.3410 -0.3204  0.2070
 7275TIP3    H143240   5.360   5.042   4.005 -0.0873  1.3526 -0.9848
 7275TIP3    H243241   5.232   5.115   3.970 -1.6966 -0.3785  1.0443
 7276TIP3   OH243242   1.547   6.255  15.827 -0.2184 -0.3173  0.4887
 7276TIP3    H143243   1.530   6.189  15.760 -1.4942 -0.4777  0.9393
 7276TIP3    H243244   1.642   6.260  15.832 -0.1005 -1.0769 -0.5637
 7277TIP3   OH243245   6.373   4.673  11.293  0.2250  0.3670  0.2930
 7277TIP3    H143246   6.331   4.592  11.323  0.6543 -0.7011 -1.8175
 7277TIP3    H243247   6.363   4.733  11.367 -2.7142 -0.6315  0.8601
 7278TIP3   OH243248   1.387   4.289   5.287 -0.3058  0.4240 -0.6239
 7278TIP3    H143249   1.372   4.334   5.370  0.8466 -1.6560  0.8208
 7278TIP3    H243250   1.311   4.232   5.276  0.5969 -1.0406  0.3071
 7279TIP3   OH243251   5.673   6.499   6.164 -0.1709  0.4634  0.5217
 7279TIP3    H143252   5.646   6.444   6.238  1.0553 -0.1828  0.5182
 7279TIP3    H243253   5.769   6.506   6.173  0.0741 -0.0955 -1.3054
 7280TIP3   OH243254   4.120   3.953  15.896  0.1729  0.0112  0.2794
 7280TIP3    H143255   4.110   3.863  15.927  1.4176  0.0010  0.7207
 7280TIP3    H243256   4.163   3.998  15.968  0.6316  0.6674 -0.3929
 7281TIP3   OH243257   6.033   2.134   1.400 -0.1338 -0.2067 -0.7768
 7281TIP3    H143258   6.091   2.209   1.415 -0.1032 -0.2957 -0.4388
 7281TIP3    H243259   6.092   2.059   1.390 -0.1946 -0.6725  1.6097
 7282TIP3   OH243260   6.655   4.076   5.646  0.4426 -0.0431 -0.1858
 7282TIP3    H143261   6.643   4.171   5.636 -0.9761 -0.0893  0.8934
 7282TIP3    H243262   6.736   4.067   5.697 -0.0654  0.6328  0.7599
 7283TIP3   OH243263   1.467   6.240   6.240  0.0250 -0.3686  0.2555
 7283TIP3    H143264   1.498   6.201   6.158  0.8783 -0.1451  0.4570
 7283TIP3    H243265   1.491   6.175   6.307 -1.3035 -0.8771  0.2627
 7284TIP3   OH243266   2.485   1.022  10.576 -0.5893  0.0588  0.2488
 7284TIP3    H143267   2.430   0.946  10.556  0.2262 -0.2514 -0.9430
 7284TIP3    H243268   2.560   0.986  10.622 -1.0297  0.3937  1.2574
 7285TIP3   OH243269   0.410   2.730   1.045  0.1179 -0.1181 -0.3603
 7285TIP3    H143270   0.490   2.727   0.993  0.2271 -0.4385 -0.1774
 7285TIP3    H243271   0.343   2.692   0.989 -0.1436  1.1000 -0.9123
 7286TIP3   OH243272   0.286   4.809   2.655  0.1549 -0.2724  0.4517
 7286TIP3    H143273   0.229   4.746   2.611  0.8958 -1.5895  1.2681
 7286TIP3    H243274   0.372   4.795   2.615  0.0397  1.3061 -0.3923
 7287TIP3   OH243275   3.262   1.893   5.005  0.3670 -0.1075 -0.1800
 7287TIP3    H143276   3.290   1.866   5.093 -0.5991 -1.3866 -0.2259
 7287TIP3    H243277   3.245   1.987   5.013 -0.4048 -0.3354  1.2061
 7288TIP3   OH243278   1.466   3.872   1.044 -0.5017 -0.3278 -0.5600
 7288TIP3    H143279   1.536   3.807   1.042 -0.3017 -0.2171  1.2886
 7288TIP3    H243280   1.472   3.916   0.959 -0.3081 -2.3379 -1.6406
 7289TIP3   OH243281   0.459   5.087  14.007 -0.3630  0.3144 -0.0826
 7289TIP3    H143282   0.514   5.166  14.003  0.4391 -0.2048  0.3918
 7289TIP3    H243283   0.413   5.094  14.090 -0.8123  0.6162 -0.3556
 7290TIP3   OH243284   5.850   5.553   2.354  0.0110  0.3996 -0.3933
 7290TIP3    H143285   5.780   5.598   2.401  0.2115 -2.6947  3.3248
 7290TIP3    H243286   5.821   5.462   2.348  2.8016 -0.5887 -0.5268
 7291TIP3   OH243287   5.974   0.145  16.526  0.3034 -0.0220 -0.6563
 7291TIP3    H143288   5.950   0.234  16.554 -0.7595 -0.1263 -1.1920
 7291TIP3    H243289   5.934   0.088  16.591 -1.0774 -0.2025 -1.6179
 7292TIP3   OH243290   0.518   1.522   6.374  0.0029  0.2667 -0.1737
 7292TIP3    H143291   0.503   1.617   6.371 -0.0550  0.2416 -0.7402
 7292TIP3    H243292   0.430   1.484   6.377  0.0320  0.2402  0.4860
 7293TIP3   OH243293   4.392   2.613   3.219  0.2263  0.6618 -0.2084
 7293TIP3    H143294   4.432   2.665   3.150  0.7158  2.4702  1.3665
 7293TIP3    H243295   4.431   2.526   3.210 -0.1750  0.6754 -2.5232
 7294TIP3   OH243296   0.648   6.293   2.119  0.2865 -0.3494 -0.3954
 7294TIP3    H143297   0.580   6.289   2.187  1.0436 -0.9378  0.3630
 7294TIP3    H243298   0.604   6.331   2.043 -0.5568  0.4682  0.4638
 7295TIP3   OH243299   1.334   3.530   4.685  0.5359  0.3195 -0.0115
 7295TIP3    H143300   1.399   3.599   4.681 -0.5533  1.3211 -1.8205
 7295TIP3    H243301   1.342   3.483   4.602 -1.1941  0.6579 -0.4170
 7296TIP3   OH243302   0.079   5.788   5.624 -0.4891 -0.1423  0.3323
 7296TIP3    H143303   0.047   5.877   5.611 -1.9504 -0.5243  1.0569
 7296TIP3    H243304   0.095   5.782   5.718  1.4528 -0.0881  0.0455
 7297TIP3   OH243305   6.727   3.704  15.127  0.4475 -0.1179 -0.3319
 7297TIP3    H143306   6.649   3.698  15.182  0.1193 -2.0269 -0.9324
 7297TIP3    H243307   6.791   3.751  15.180 -0.4389 -0.3563  0.9838
 7298TIP3   OH243308   1.365   4.521  16.506  0.7384 -0.2788  0.0208
 7298TIP3    H143309   1.302   4.556  16.569 -2.0107 -2.2365 -1.4364
 7298TIP3    H243310   1.379   4.591  16.444 -2.1102 -0.5020 -1.0351
 7299TIP3   OH243311   4.616   5.125   1.394 -0.3356 -0.7103  0.5774
 7299TIP3    H143312   4.602   5.033   1.370  1.9709 -0.6075 -1.5502
 7299TIP3    H243313   4.678   5.158   1.329 -0.9570  2.3486  1.3558
 7300TIP3   OH243314   3.034   3.852   6.134 -0.5187  0.8748 -0.3673
 7300TIP3    H143315   3.086   3.927   6.107 -0.9392  0.6614 -1.8263
 7300TIP3    H243316   3.032   3.795   6.057 -1.5609  0.1311  0.1862
 7301TIP3   OH243317   4.080   2.595  16.221 -0.1515 -0.0973  0.1798
 7301TIP3    H143318   4.065   2.551  16.137 -0.4966 -3.3168  1.7821
 7301TIP3    H243319   4.002   2.574  16.273  0.5583  0.8669  1.6931
 7302TIP3   OH243320   0.027   1.824   0.178  0.1059  0.4482 -0.7033
 7302TIP3    H143321   0.032   1.729   0.164  2.2523  0.5083 -0.6494
 7302TIP3    H243322  -0.007   1.833   0.267  1.4003 -0.3494 -0.0913
 7303TIP3   OH243323   4.399   4.500  11.504 -0.9220 -0.1123 -0.7399
 7303TIP3    H143324   4.403   4.563  11.575  3.4460  1.2909 -1.8934
 7303TIP3    H243325   4.363   4.548  11.430 -0.7974  0.0078 -0.7234
 7304TIP3   OH243326   2.743   3.916   1.269 -0.1187 -0.3775 -0.6286
 7304TIP3    H143327   2.767   3.857   1.198 -0.4024 -0.3259 -0.7702
 7304TIP3    H243328   2.708   3.859   1.337  0.3867 -0.4527 -0.4232
 7305TIP3   OH243329   2.639   2.384   5.636  0.4674 -0.5295  0.2957
 7305TIP3    H143330   2.569   2.323   5.662  0.3947  0.2736  2.1688
 7305TIP3    H243331   2.607   2.470   5.664  1.3222  0.1448 -0.7366
 7306TIP3   OH243332   0.264   6.274   4.052 -0.2691  0.1617  0.1223
 7306TIP3    H143333   0.177   6.248   4.024 -0.0625  2.4804 -3.3578
 7306TIP3    H243334   0.263   6.263   4.147 -3.8594 -1.1297  0.0937
 7307TIP3   OH243335   0.205   6.446   5.949  0.7691 -0.2996 -0.1201
 7307TIP3    H143336   0.218   6.406   6.035 -1.4180 -0.3669  0.2219
 7307TIP3    H243337   0.218   6.374   5.887  2.8404 -0.1516  0.0508
 7308TIP3   OH243338   1.354   6.633   2.799  0.3530 -0.8997  0.4745
 7308TIP3    H143339   1.395   6.719   2.783  0.2962 -0.7680  1.0256
 7308TIP3    H243340   1.314   6.642   2.885 -2.1789 -0.4937 -0.6586
 7309TIP3   OH243341   6.263   3.657   5.577  0.0356 -0.0883 -0.2513
 7309TIP3    H143342   6.289   3.721   5.511 -0.7681  1.5329  0.9174
 7309TIP3    H243343   6.209   3.707   5.638 -0.6439 -1.9184  0.7134
 7310TIP3   OH243344   1.728   5.105  16.728  0.7339  0.0140  0.0828
 7310TIP3    H143345   1.774   5.052  16.792  1.9533  3.2958  2.1901
 7310TIP3    H243346   1.798   5.154  16.683 -0.3614  0.9837 -0.6270
 7311TIP3   OH243347   2.927   0.441   4.053 -0.4842  0.1761 -0.2348
 7311TIP3    H143348   2.862   0.468   4.117  0.5112  1.6194  0.2218
 7311TIP3    H243349   2.878   0.392   3.987 -1.9789  1.0003  0.2248
 7312TIP3   OH243350   4.508   4.926  10.594  0.1974  0.1070  0.0226
 7312TIP3    H143351   4.455   4.987  10.645  2.7924  2.9228 -0.3155
 7312TIP3    H243352   4.555   4.875  10.661  1.2432  1.6061  0.4988
 7313TIP3   OH243353   4.443   1.941  12.673 -0.0870 -0.0145 -0.0365
 7313TIP3    H143354   4.515   1.882  12.650  1.3443  1.9179 -0.8736
 7313TIP3    H243355   4.486   2.016  12.715 -1.6069  1.1612 -0.4719
 7314TIP3   OH243356   4.639   2.769  14.328  0.1685 -0.1119 -0.0559
 7314TIP3    H143357   4.550   2.749  14.300  0.1916  0.7902 -0.8412
 7314TIP3    H243358   4.668   2.692  14.377 -0.8868 -0.5819 -0.1628
 7315TIP3   OH243359   3.671   3.795   3.586  0.5511 -0.0371  0.2570
 7315TIP3    H143360   3.734   3.735   3.546  3.3636  2.5796  0.3634
 7315TIP3    H243361   3.627   3.836   3.512  0.7635 -0.1182  0.0823
 7316TIP3   OH243362   6.424   3.943   1.224  0.3076  0.4022 -0.1048
 7316TIP3    H143363   6.467   3.893   1.293  1.8850  2.0451  0.1866
 7316TIP3    H243364   6.452   3.901   1.143 -1.8387 -1.7546  0.1802
 7317TIP3   OH243365   5.664   2.722   3.081 -0.0250  0.0404  0.4510
 7317TIP3    H143366   5.633   2.667   3.009  0.9942 -0.6765  0.5462
 7317TIP3    H243367   5.750   2.688   3.103 -0.9839 -0.9067  3.1944
 7318TIP3   OH243368   1.052   6.090   1.543 -0.1648  0.7900  0.0372
 7318TIP3    H143369   1.104   6.020   1.502 -1.3643 -0.6959  0.9492
 7318TIP3    H243370   0.982   6.044   1.589 -0.5429  2.5652  1.3440
 7319TIP3   OH243371   5.704   5.777  13.320 -0.1575  0.1743 -0.7905
 7319TIP3    H143372   5.653   5.696  13.322 -2.1325  1.3688  0.5429
 7319TIP3    H243373   5.690   5.812  13.232 -1.4503  0.3289 -0.5445
 7320TIP3   OH243374   4.491   1.432  13.484  0.5254  0.1151  0.3621
 7320TIP3    H143375   4.444   1.352  13.510  2.8063 -0.8157  1.9488
 7320TIP3    H243376   4.423   1.491  13.453 -1.8594 -0.7410  3.4638
 7321TIP3   OH243377   3.532   2.116  12.867  0.4806 -0.3602 -0.4531
 7321TIP3    H143378   3.484   2.042  12.905  0.1456  0.2268  0.2874
 7321TIP3    H243379   3.622   2.084  12.857  0.5160 -0.6200  0.5950
 7322TIP3   OH243380   4.778   2.389   0.968  0.2887 -0.1906  0.3847
 7322TIP3    H143381   4.766   2.477   1.004 -0.9440 -0.9025  1.8448
 7322TIP3    H243382   4.818   2.403   0.882 -2.1223  1.9435 -0.5083
 7323TIP3   OH243383   4.272   4.852  11.860  0.1195  0.1878  0.6571
 7323TIP3    H143384   4.253   4.787  11.792  0.6978 -0.3395  0.9970
 7323TIP3    H243385   4.220   4.929  11.834 -0.7924 -0.4910  0.4043
 7324TIP3   OH243386   1.491   1.404  12.529 -0.2509 -0.0961  0.2009
 7324TIP3    H143387   1.563   1.406  12.592  0.3270 -2.1444 -0.3110
 7324TIP3    H243388   1.413   1.385  12.581 -0.3010  1.2049  0.6384
 7325TIP3   OH243389   2.621   3.594   2.956  0.1900 -0.0081  0.1189
 7325TIP3    H143390   2.672   3.618   3.032  0.2750  0.3962 -0.0633
 7325TIP3    H243391   2.556   3.664   2.947 -0.2981 -0.4350  0.2571
 7326TIP3   OH243392   6.558   2.857  15.951 -0.6082 -0.0411 -0.4948
 7326TIP3    H143393   6.626   2.916  15.918 -2.1825  1.5110 -1.1152
 7326TIP3    H243394   6.530   2.896  16.033  0.4234 -1.6574  0.6901
 7327TIP3   OH243395   2.027   5.799  17.394  0.2199 -0.0346 -0.1392
 7327TIP3    H143396   2.115   5.790  17.430  0.5123 -0.5078 -0.9683
 7327TIP3    H243397   2.022   5.890  17.365  0.2915  0.1035  0.2727
 7328TIP3   OH243398   1.837   1.134   1.669 -0.3191 -0.5162  0.1848
 7328TIP3    H143399   1.898   1.112   1.599  1.0157  0.9511  0.8106
 7328TIP3    H243400   1.835   1.230   1.671  0.5516 -0.4461  2.7783
 7329TIP3   OH243401   3.530   4.597   6.407 -0.1237  1.0060  0.3901
 7329TIP3    H143402   3.435   4.597   6.406 -0.1304  1.8652 -0.3490
 7329TIP3    H243403   3.555   4.505   6.401 -0.8998  0.8240 -0.0462
 7330TIP3   OH243404   5.742   3.209   2.718  0.1685  0.2762 -0.2971
 7330TIP3    H143405   5.779   3.122   2.734  1.7372  1.0035  0.2660
 7330TIP3    H243406   5.769   3.232   2.629 -1.5047 -0.3804 -1.0140
 7331TIP3   OH243407   5.381   4.452   3.533 -0.5244  0.0987  0.2772
 7331TIP3    H143408   5.328   4.385   3.489 -0.1076 -0.6595  0.9018
 7331TIP3    H243409   5.387   4.422   3.623  1.2265 -0.0160  0.1619
 7332TIP3   OH243410   5.740   3.233  14.676  0.1100  0.1337  0.4755
 7332TIP3    H143411   5.785   3.244  14.592 -0.7183 -0.3925 -0.0549
 7332TIP3    H243412   5.753   3.316  14.721  0.4765  0.4651 -0.2209
 7333TIP3   OH243413   3.931   4.170  11.402 -0.4318  0.2215 -0.1540
 7333TIP3    H143414   3.894   4.144  11.318  1.5925  1.3167 -1.4547
 7333TIP3    H243415   3.983   4.095  11.431  0.0649  0.3869 -0.6167
 7334TIP3   OH243416   4.902   6.492   0.064  0.3162 -0.0267  0.0615
 7334TIP3    H143417   4.881   6.411   0.112  1.9087 -0.1596  0.5953
 7334TIP3    H243418   4.859   6.482  -0.021 -1.3635 -0.4325  0.9141
 7335TIP3   OH243419   0.701   6.746   0.660  0.3772  0.6522  0.3458
 7335TIP3    H143420   0.783   6.795   0.663  0.2590  0.8086  1.3328
 7335TIP3    H243421   0.702   6.693   0.739  1.4247 -2.5035 -1.6300
 7336TIP3   OH243422   6.619   5.561  12.025 -0.0327  0.1634  0.0494
 7336TIP3    H143423   6.629   5.608  11.942  1.5889  0.8325  0.5999
 7336TIP3    H243424   6.574   5.480  12.001 -1.3731  1.2169 -1.1666
 7337TIP3   OH243425   5.761   5.309  12.368 -0.2188  0.6023  0.5682
 7337TIP3    H143426   5.854   5.306  12.347 -0.2124  0.5608  0.6026
 7337TIP3    H243427   5.746   5.230  12.421  0.1142  1.5919  2.1858
 7338TIP3   OH243428   3.992   3.954   5.561  0.1657 -0.0977 -0.7875
 7338TIP3    H143429   3.922   4.008   5.598 -0.3836 -0.7877 -0.7968
 7338TIP3    H243430   4.071   4.008   5.568 -0.5247  1.0699 -1.6112
 7339TIP3   OH243431   4.927   0.324   5.425  0.2801 -0.1110  0.0675
 7339TIP3    H143432   4.984   0.322   5.348  0.0746  1.0403 -0.1371
 7339TIP3    H243433   4.840   0.301   5.392  0.8472 -3.6654  0.6781
 7340TIP3   OH243434   5.229   3.344  15.577  0.3689 -0.5747  0.0449
 7340TIP3    H143435   5.227   3.436  15.603  2.7887 -0.3213 -0.4437
 7340TIP3    H243436   5.319   3.330  15.547  0.6188 -3.5611  1.8005
 7341TIP3   OH243437   2.146   2.384   1.661 -0.2437 -0.0096 -0.1028
 7341TIP3    H143438   2.077   2.326   1.630  0.3244 -0.0111 -1.4290
 7341TIP3    H243439   2.227   2.336   1.641  0.1837  0.6590  0.0155
 7342TIP3   OH243440   3.925   5.137   5.455  0.3904 -0.7602  0.3847
 7342TIP3    H143441   3.969   5.132   5.540  0.1405 -0.2006  0.5480
 7342TIP3    H243442   3.862   5.065   5.457 -1.5459  0.8526  1.7946
 7343TIP3   OH243443   2.071   1.077  16.637  0.0641 -0.1062 -0.7721
 7343TIP3    H143444   2.141   1.055  16.698  1.0221  1.9998 -1.0351
 7343TIP3    H243445   1.999   1.017  16.660  1.3030 -1.1024  0.6758
 7344TIP3   OH243446   3.909   6.231   5.624  0.0401  0.2443 -0.0304
 7344TIP3    H143447   3.986   6.203   5.674  0.8993  1.7330 -0.4781
 7344TIP3    H243448   3.921   6.190   5.538  0.3939  0.5590 -0.1332
 7345TIP3   OH243449   2.219   2.286   5.160  0.3097  0.2949 -0.6380
 7345TIP3    H143450   2.262   2.212   5.116 -0.9832 -0.5015 -0.6141
 7345TIP3    H243451   2.261   2.290   5.246 -1.1843 -1.9853  0.2969
 7346TIP3   OH243452   5.950   4.667   5.404  0.9364  0.2758 -0.2096
 7346TIP3    H143453   5.969   4.587   5.453 -0.1493 -0.3035 -0.7201
 7346TIP3    H243454   5.915   4.728   5.470  2.5411  0.6712  0.3514
 7347TIP3   OH243455   0.605   5.092   5.278  0.8760  0.2762 -0.0235
 7347TIP3    H143456   0.558   5.044   5.346 -0.7658 -1.1326 -2.0200
 7347TIP3    H243457   0.663   5.027   5.238  1.6086  1.0085 -0.1867
 7348TIP3   OH243458   1.419   2.195   5.197  0.5055 -0.4483 -0.3598
 7348TIP3    H143459   1.381   2.107   5.191  0.7482 -0.5143 -0.9100
 7348TIP3    H243460   1.512   2.182   5.180  1.1393 -0.5440  2.5537
 7349TIP3   OH243461   2.593   2.313  12.988  0.5861 -0.1134 -0.4391
 7349TIP3    H143462   2.570   2.261  12.911  0.6831 -1.0233  0.1263
 7349TIP3    H243463   2.643   2.253  13.043 -0.9820 -0.0674  1.1416
 7350TIP3   OH243464   2.535   5.067   4.004 -0.1800 -0.6581 -0.1983
 7350TIP3    H143465   2.523   5.134   4.071  1.8519  0.5762 -0.9880
 7350TIP3    H243466   2.494   5.103   3.925  1.5198  0.0410 -0.8098
 7351TIP3   OH243467   5.956   6.089   4.340 -0.5057 -0.5250  0.5370
 7351TIP3    H143468   5.952   6.160   4.404 -0.0005 -1.1458  1.2740
 7351TIP3    H243469   6.015   6.121   4.272 -0.6261 -0.0701  0.6447
 7352TIP3   OH243470   1.817   3.522  13.336  0.7077 -0.5522 -0.2388
 7352TIP3    H143471   1.821   3.572  13.418  1.1005 -2.3484  0.9061
 7352TIP3    H243472   1.764   3.445  13.358 -0.3803 -0.3772 -2.0974
 7353TIP3   OH243473   5.620   1.494   2.165 -0.2959  0.1418  0.3005
 7353TIP3    H143474   5.697   1.443   2.144 -0.1503  0.1544  0.7842
 7353TIP3    H243475   5.555   1.429   2.193  0.4636  0.3171  2.6632
 7354TIP3   OH243476   1.821   0.740  13.857  0.4006  0.0713 -0.0977
 7354TIP3    H143477   1.766   0.801  13.906 -0.4501  0.7910 -1.8834
 7354TIP3    H243478   1.797   0.654  13.891 -0.4541  0.5205  0.4673
 7355TIP3   OH243479   5.793   2.901  16.440  0.0473 -0.0970  0.1392
 7355TIP3    H143480   5.840   2.822  16.413 -0.6825 -0.1478 -1.0721
 7355TIP3    H243481   5.817   2.913  16.532 -0.1892 -1.9865  0.4909
 7356TIP3   OH243482   6.560   5.234   4.100 -0.4373 -0.0690 -0.1858
 7356TIP3    H143483   6.655   5.233   4.095 -0.4597 -0.3148 -0.6428
 7356TIP3    H243484   6.533   5.303   4.039 -0.6106 -1.2122 -1.4602
 7357TIP3   OH243485   1.945   2.451  16.143  0.5123  0.7197  0.3508
 7357TIP3    H143486   1.992   2.369  16.159  0.1481  0.7144  1.4601
 7357TIP3    H243487   2.012   2.519  16.152  1.0557  0.5095 -1.6613
 7358TIP3   OH243488   2.202   5.059   1.662  0.2747 -0.1305 -0.1186
 7358TIP3    H143489   2.176   4.978   1.705 -0.0046 -0.1478 -0.3174
 7358TIP3    H243490   2.292   5.043   1.634  0.2326 -0.3584 -0.1273
 7359TIP3   OH243491   4.139   3.881   1.105 -0.2456  0.4473 -0.1963
 7359TIP3    H143492   4.062   3.854   1.154 -0.6877  1.7053 -0.1779
 7359TIP3    H243493   4.139   3.977   1.109  2.5727  0.5062  1.7851
 7360TIP3   OH243494   2.420   2.624   2.136  0.3637  0.0622  0.2851
 7360TIP3    H143495   2.355   2.573   2.088  0.5743  0.3645 -0.3238
 7360TIP3    H243496   2.373   2.657   2.212  0.5665 -2.2472  1.5328
 7361TIP3   OH243497   2.621   3.010  13.753 -0.2403  0.4700  0.0300
 7361TIP3    H143498   2.628   2.945  13.683 -1.1387 -0.2715  0.6113
 7361TIP3    H243499   2.671   3.085  13.721  0.3086 -0.2744 -0.9169
 7362TIP3   OH243500   0.439   1.935  14.469 -0.0357 -0.2861 -0.5215
 7362TIP3    H143501   0.492   2.014  14.464  0.3835 -0.6130 -1.8908
 7362TIP3    H243502   0.358   1.958  14.423  0.5777 -0.9777 -2.0299
 7363TIP3   OH243503   5.403   5.715   1.215  0.1826  0.8401  0.0254
 7363TIP3    H143504   5.361   5.649   1.270 -0.6566 -0.2392 -1.8211
 7363TIP3    H243505   5.338   5.734   1.147  2.1852  0.0640 -2.2152
 7364TIP3   OH243506   3.176   3.962  11.443 -0.1172 -0.1495  0.0614
 7364TIP3    H143507   3.146   4.037  11.494 -1.3354 -0.0886 -0.6863
 7364TIP3    H243508   3.134   3.974  11.357  0.7182 -0.9975 -0.4809
 7365TIP3   OH243509   4.727   0.490  15.971 -0.1421  0.8611  0.5640
 7365TIP3    H143510   4.726   0.396  15.950 -0.6808  0.9564  0.1574
 7365TIP3    H243511   4.656   0.527  15.919 -0.0789  1.4612  0.8982
 7366TIP3   OH243512   0.108   2.605  12.855  0.2154 -0.2059 -0.9011
 7366TIP3    H143513   0.015   2.610  12.832  0.2838 -0.9557 -1.3879
 7366TIP3    H243514   0.126   2.688  12.898 -1.0467 -0.6428  0.5793
 7367TIP3   OH243515   6.120   4.176   6.456  0.6511  0.3255  0.2158
 7367TIP3    H143516   6.200   4.131   6.428 -0.7502 -1.5700 -0.9365
 7367TIP3    H243517   6.113   4.251   6.396  1.2285  0.1436 -0.0921
 7368TIP3   OH243518   0.423   1.822  15.582 -0.1221 -0.0592 -0.5124
 7368TIP3    H143519   0.338   1.867  15.585  0.0934  0.3056  0.5385
 7368TIP3    H243520   0.483   1.887  15.545  0.2578  0.7055  1.2996
 7369TIP3   OH243521   3.968   3.373   1.921 -0.1686 -0.2653  0.6933
 7369TIP3    H143522   3.990   3.354   1.830  3.4886 -1.2651  1.6251
 7369TIP3    H243523   4.017   3.453   1.942 -0.7426 -0.1910  1.8463
 7370TIP3   OH243524   1.037   4.584  11.692  0.2310 -0.3940 -0.4546
 7370TIP3    H143525   1.084   4.573  11.609 -0.0403 -2.3983 -0.3974
 7370TIP3    H243526   0.949   4.551  11.674  0.2756 -1.2058  0.7047
 7371TIP3   OH243527   5.406   2.954  12.822  0.2323  0.2752  0.3212
 7371TIP3    H143528   5.469   2.883  12.809 -0.5470 -0.7459  1.8431
 7371TIP3    H243529   5.321   2.911  12.825 -0.3402  1.3717  0.4529
 7372TIP3   OH243530   2.316   5.031   3.091 -0.0167 -0.2247  0.0712
 7372TIP3    H143531   2.354   4.997   3.011  2.3005 -1.1254  1.4516
 7372TIP3    H243532   2.384   5.087   3.128 -1.0591  0.2466  1.3644
 7373TIP3   OH243533   4.239   3.569   2.160 -0.3947 -0.2202 -0.2808
 7373TIP3    H143534   4.220   3.515   2.236 -1.0478  0.0355 -0.2578
 7373TIP3    H243535   4.289   3.511   2.102 -1.1972 -0.9080 -0.3158
 7374TIP3   OH243536   4.721   4.286  14.152 -0.3795 -0.0013 -0.5922
 7374TIP3    H143537   4.745   4.289  14.245  1.3452  1.0488 -1.0282
 7374TIP3    H243538   4.745   4.197  14.124  1.0939  0.3376 -0.4945
 7375TIP3   OH243539   6.468   4.253  15.617  0.0248 -0.2371  0.0837
 7375TIP3    H143540   6.388   4.213  15.651  0.4802  0.0422  1.5685
 7375TIP3    H243541   6.492   4.200  15.541 -1.7311 -0.1248 -0.6072
 7376TIP3   OH243542   6.120   0.150   4.005  0.9408  0.1969 -0.1397
 7376TIP3    H143543   6.156   0.196   4.080  0.4475  0.4052 -0.0280
 7376TIP3    H243544   6.062   0.084   4.043  0.5989  0.3811 -0.3398
 7377TIP3   OH243545   6.467   5.175  11.540 -0.2241 -0.5946 -0.1799
 7377TIP3    H143546   6.526   5.131  11.478 -0.8082  0.5285 -1.6123
 7377TIP3    H243547   6.525   5.217  11.603  0.4738 -0.3872 -0.9381
 7378TIP3   OH243548   2.657   6.439  13.499 -0.2753 -0.1578  0.0189
 7378TIP3    H143549   2.668   6.526  13.537  0.6429  0.3183 -1.2977
 7378TIP3    H243550   2.568   6.413  13.525  0.2515  0.1616  2.3818
 7379TIP3   OH243551   5.338   4.578  13.201 -0.4488 -0.3445 -0.1594
 7379TIP3    H143552   5.374   4.599  13.115 -0.9744  0.3076 -0.2246
 7379TIP3    H243553   5.273   4.646  13.217 -2.0452 -1.7907 -0.2850
 7380TIP3   OH243554   0.628   4.649  11.331  0.8046  0.6129 -0.2039
 7380TIP3    H143555   0.699   4.699  11.371 -0.0594  1.1144  0.7533
 7380TIP3    H243556   0.629   4.675  11.239  3.1220 -0.8936 -0.6960
 7381TIP3   OH243557   4.432   0.033  14.961  0.3212  0.1288  0.2589
 7381TIP3    H143558   4.366   0.053  14.895  0.3833  1.7639  0.6516
 7381TIP3    H243559   4.395  -0.040  15.011 -1.1573  0.9654  0.4300
 7382TIP3   OH243560   0.571   3.935  16.697 -0.3309 -0.5460 -0.5376
 7382TIP3    H143561   0.482   3.966  16.712 -0.2430 -0.1438 -0.8199
 7382TIP3    H243562   0.625   3.990  16.754 -0.1878 -0.2790 -0.9286
 7383TIP3   OH243563   3.821   0.646   1.536  0.4076  0.3056  0.0382
 7383TIP3    H143564   3.780   0.647   1.450 -0.8905 -1.0038  0.6003
 7383TIP3    H243565   3.896   0.705   1.528 -0.7049  1.5899 -1.4679
 7384TIP3   OH243566   1.470   3.717  17.407  0.0419  0.1760  0.0586
 7384TIP3    H143567   1.488   3.768  17.328 -1.4497  0.2125 -0.2965
 7384TIP3    H243568   1.551   3.668  17.423  0.1638 -0.3454 -1.8929
 7385TIP3   OH243569   0.160   1.898   5.788  0.0508  0.4195  0.0439
 7385TIP3    H143570   0.247   1.916   5.824 -0.5177  0.6559  1.3596
 7385TIP3    H243571   0.169   1.812   5.747  1.0987  0.7836 -0.5513
 7386TIP3   OH243572   4.979   6.402  14.642  0.2103 -0.2204  0.1047
 7386TIP3    H143573   4.912   6.414  14.575  1.4700 -0.3058 -1.2441
 7386TIP3    H243574   5.060   6.430  14.599  1.0963 -0.4958  1.5368
 7387TIP3   OH243575   6.387   6.108   0.770 -0.1190  0.2785  0.0117
 7387TIP3    H143576   6.455   6.155   0.818 -0.6932  2.2824 -1.0315
 7387TIP3    H243577   6.363   6.036   0.828  0.3128  1.6526  2.0297
 7388TIP3   OH243578   2.098   5.884   0.355  0.0903  0.5212  0.2425
 7388TIP3    H143579   2.123   5.969   0.392  3.2507  0.6849 -1.9127
 7388TIP3    H243580   2.059   5.906   0.270 -1.9114 -0.1336  0.9235
 7389TIP3   OH243581   5.239   1.346   6.720  0.1245 -0.0476 -0.4159
 7389TIP3    H143582   5.175   1.398   6.766  2.0965  0.3054  2.1557
 7389TIP3    H243583   5.188   1.283   6.669 -2.2620 -0.2277  2.0012
 7390TIP3   OH243584   3.990   4.818   3.982  0.0492  0.5284  0.0642
 7390TIP3    H143585   4.018   4.871   4.056 -0.1089  1.8547 -0.7972
 7390TIP3    H243586   3.905   4.854   3.957 -0.3214 -0.4919 -0.2198
 7391TIP3   OH243587   4.453   1.190  14.434  0.2315 -0.3393 -0.4598
 7391TIP3    H143588   4.385   1.229  14.488  0.4820  1.3032 -1.2932
 7391TIP3    H243589   4.495   1.126  14.492 -1.0475 -0.3353  0.5138
 7392TIP3   OH243590   4.132   4.460  10.508  0.0636  0.0107  0.5118
 7392TIP3    H143591   4.187   4.538  10.506 -0.3112  0.2674 -0.3811
 7392TIP3    H243592   4.062   4.481  10.569 -0.5558  0.7524 -0.4256
 7393TIP3   OH243593   5.244   2.687  14.932  0.1584  0.3476 -0.0564
 7393TIP3    H143594   5.281   2.774  14.922  2.5876 -0.5863 -0.0457
 7393TIP3    H243595   5.206   2.666  14.847 -0.6457  1.4842  0.0157
 7394TIP3   OH243596   0.824   1.867   3.820 -0.2978  0.6027  0.3185
 7394TIP3    H143597   0.856   1.923   3.890  1.7404 -0.3427  0.2207
 7394TIP3    H243598   0.893   1.869   3.754 -0.8315 -0.8647 -0.3351
 7395TIP3   OH243599   2.231   3.630  15.813 -0.5680 -0.6569 -0.4553
 7395TIP3    H143600   2.318   3.618  15.850 -0.5542 -1.9833 -0.8833
 7395TIP3    H243601   2.192   3.700  15.866  0.4772 -0.5623  0.2115
 7396TIP3   OH243602   4.825   1.379  15.907  0.2853  0.2096 -0.1772
 7396TIP3    H143603   4.831   1.284  15.915  1.8439  0.2175 -0.9200
 7396TIP3    H243604   4.890   1.413  15.968 -1.2570  0.8820  1.1551
 7397TIP3   OH243605   0.634   3.225   6.442  0.9035 -0.4935  0.2745
 7397TIP3    H143606   0.692   3.300   6.453  0.8184  0.2455 -3.1719
 7397TIP3    H243607   0.546   3.261   6.451  0.7803  0.3816 -3.0398
 7398TIP3   OH243608   5.179   5.663  14.065 -0.4481 -0.3834  0.3625
 7398TIP3    H143609   5.272   5.644  14.051 -0.1186  1.3723  0.0383
 7398TIP3    H243610   5.135   5.620  13.991  0.2841  0.2458 -0.4535
 7399TIP3   OH243611   6.455   3.844  15.067 -0.0644  0.2760  0.3784
 7399TIP3    H143612   6.495   3.891  15.140  0.0215 -0.0599  0.5537
 7399TIP3    H243613   6.507   3.867  14.991  1.2141 -1.0557  0.7942
 7400TIP3   OH243614   2.653   5.748  11.218  0.7255 -0.4688 -0.0138
 7400TIP3    H143615   2.724   5.770  11.157  1.8076 -2.1647  0.5566
 7400TIP3    H243616   2.574   5.752  11.165  1.4244 -0.0374 -1.0584
 7401TIP3   OH243617   6.243   3.670  17.302 -0.4565  0.0277 -0.1135
 7401TIP3    H143618   6.212   3.614  17.373  2.8084 -0.7969  0.8245
 7401TIP3    H243619   6.263   3.608  17.231  0.8934  0.2380  0.0600
 7402TIP3   OH243620   0.156   6.712   5.802 -0.0974  0.1440 -0.8486
 7402TIP3    H143621   0.179   6.635   5.853  1.2927  1.0932  0.0543
 7402TIP3    H243622   0.171   6.786   5.862 -0.4361  1.1744 -1.9763
 7403TIP3   OH243623   5.389   3.608   5.843 -0.2024 -0.1451 -0.4130
 7403TIP3    H143624   5.448   3.679   5.817 -0.9423  0.1647 -1.2975
 7403TIP3    H243625   5.437   3.561   5.912  0.6120  0.7507 -0.3448
 7404TIP3   OH243626   0.539   6.126  13.712  0.0581  0.0185 -0.3936
 7404TIP3    H143627   0.536   6.138  13.617 -0.0473 -1.0827 -0.5383
 7404TIP3    H243628   0.622   6.080  13.727  0.1558  0.3403  0.0746
 7405TIP3   OH243629   5.099   2.427   3.937  0.0847  0.2245  0.3525
 7405TIP3    H143630   5.128   2.357   3.878  0.1200 -1.3613  2.1572
 7405TIP3    H243631   5.173   2.441   3.996 -0.7730  0.0997  1.4874
 7406TIP3   OH243632   0.737   3.883  11.233 -0.6055  0.2019  0.0657
 7406TIP3    H143633   0.679   3.948  11.194  0.8935  0.8709 -1.1397
 7406TIP3    H243634   0.820   3.929  11.244  0.0914 -1.1130  0.5039
 7407TIP3   OH243635   6.087   5.940   3.195 -0.1013 -0.4862  0.1436
 7407TIP3    H143636   6.057   5.865   3.247 -2.0983  0.1134 -0.0432
 7407TIP3    H243637   6.109   6.007   3.259  0.0007 -0.6372  0.2679
 7408TIP3   OH243638   4.533   6.445  12.870  0.2340 -0.1127 -0.0904
 7408TIP3    H143639   4.521   6.429  12.776  0.2063  1.6160 -0.4023
 7408TIP3    H243640   4.466   6.509  12.893  1.3330  0.7904  0.7171
 7409TIP3   OH243641   2.364   3.178   1.211 -0.2314  0.5176 -0.3477
 7409TIP3    H143642   2.447   3.209   1.246 -0.5447 -0.8102  1.7462
 7409TIP3    H243643   2.387   3.098   1.163 -0.4027 -0.8336  1.6742
 7410TIP3   OH243644   2.633   1.504   1.191  0.0390 -0.0629  0.5052
 7410TIP3    H143645   2.650   1.517   1.097  0.8023  0.8181  0.7509
 7410TIP3    H243646   2.581   1.424   1.195 -0.6168  0.2820 -0.7292
 7411TIP3   OH243647   0.967   4.113  16.405  0.0990  0.1802  0.2140
 7411TIP3    H143648   1.049   4.155  16.378  0.6004 -1.1315 -0.4041
 7411TIP3    H243649   0.957   4.039  16.346 -3.1883  2.0223 -1.8422
 7412TIP3   OH243650   3.314   2.460  17.068 -0.3565 -0.4025  0.2729
 7412TIP3    H143651   3.236   2.471  17.014  1.2158 -1.3822 -2.3741
 7412TIP3    H243652   3.372   2.531  17.042  0.8412 -1.4896 -0.1460
 7413TIP3   OH243653   3.340   0.166   1.028 -0.0369 -0.9117  0.3096
 7413TIP3    H143654   3.273   0.100   1.012  0.0761 -1.1517  0.8036
 7413TIP3    H243655   3.376   0.144   1.114  1.3745 -1.3939 -0.3610
 7414TIP3   OH243656   3.143   5.704  16.184  0.0168  0.2755  0.2726
 7414TIP3    H143657   3.177   5.662  16.105  0.3291  1.9056 -0.4874
 7414TIP3    H243658   3.160   5.640  16.253 -2.0682 -2.0727 -1.2249
 7415TIP3   OH243659   3.123   1.696  14.338 -0.3083  0.4262 -0.0690
 7415TIP3    H143660   3.059   1.628  14.317  1.3575 -1.5021  0.8072
 7415TIP3    H243661   3.171   1.708  14.256 -1.8850  2.1162 -0.8288
 7416TIP3   OH243662   1.327   2.024   3.483  0.7993  0.1131  0.1825
 7416TIP3    H143663   1.359   2.039   3.394 -0.4309 -0.1024 -0.3269
 7416TIP3    H243664   1.270   1.947   3.475  2.4575 -1.3551  1.6106
 7417TIP3   OH243665   1.267   0.849   1.933  0.2121 -0.1611 -0.2340
 7417TIP3    H143666   1.317   0.856   2.015 -0.2086 -3.5004  0.4911
 7417TIP3    H243667   1.178   0.874   1.958  0.0961 -1.1060  0.3861
 7418TIP3   OH243668   4.584   4.624   1.053 -0.1672 -0.2166  0.1970
 7418TIP3    H143669   4.625   4.598   1.135  0.1293  1.7698  0.7364
 7418TIP3    H243670   4.628   4.706   1.030 -1.1463 -0.0761 -1.2693
 7419TIP3   OH243671   3.323   0.902   0.705  0.2718 -0.1585 -0.2305
 7419TIP3    H143672   3.309   0.927   0.796  0.3211 -0.1417 -0.2272
 7419TIP3    H243673   3.394   0.960   0.675 -0.6141  0.7237 -0.6604
 7420TIP3   OH243674   3.042   2.236   0.008  0.3072 -0.1247  0.1888
 7420TIP3    H143675   3.111   2.233   0.074  0.7687  0.7660 -0.2306
 7420TIP3    H243676   3.074   2.298  -0.057 -0.4514 -0.4612 -0.5179
 7421TIP3   OH243677   5.136   4.098  14.013  0.3055  0.5883 -0.1431
 7421TIP3    H143678   5.064   4.155  13.987  1.6438  2.5368  0.2272
 7421TIP3    H243679   5.210   4.126  13.959  0.5937 -2.1333 -1.3535
 7422TIP3   OH243680   4.424   5.459  17.190 -0.6883  0.0349 -0.1006
 7422TIP3    H143681   4.387   5.456  17.101  1.2879 -1.5045 -0.9547
 7422TIP3    H243682   4.440   5.367  17.212  0.4656  0.4936  1.1374
 7423TIP3   OH243683   0.360   4.827  16.820  0.6791 -0.2292  0.3206
 7423TIP3    H143684   0.392   4.823  16.731 -0.3997 -0.9244 -0.0660
 7423TIP3    H243685   0.309   4.908  16.824 -0.4052 -0.8605 -0.1275
 7424TIP3   OH243686   1.531   4.841  14.031 -0.2879  0.4223  0.3845
 7424TIP3    H143687   1.550   4.755  14.070 -0.3223  0.9729  1.6737
 7424TIP3    H243688   1.476   4.885  14.097  0.6199  1.8300  0.2303
 7425TIP3   OH243689   0.123   3.380   5.003  0.0912  0.1977  0.3298
 7425TIP3    H143690   0.129   3.350   5.094 -2.1539  0.4404  0.6328
 7425TIP3    H243691   0.058   3.450   5.005 -2.3430 -1.7719 -1.8352
 7426TIP3   OH243692   2.636   0.776   4.101 -0.0522 -0.1232 -0.3267
 7426TIP3    H143693   2.717   0.813   4.067 -0.4267 -0.2324 -1.3694
 7426TIP3    H243694   2.588   0.747   4.024 -0.5946 -1.0868  0.3451
 7427TIP3   OH243695   5.221   4.603  17.322 -0.1334  0.9029 -0.2376
 7427TIP3    H143696   5.162   4.596  17.247 -1.7085 -0.2111  1.0381
 7427TIP3    H243697   5.251   4.694  17.320 -0.2017  0.9272 -2.1310
 7428TIP3   OH243698   5.791   0.726  15.596  0.3574  0.2964  0.0825
 7428TIP3    H143699   5.731   0.779  15.648  0.2950 -0.4202  0.7493
 7428TIP3    H243700   5.828   0.788  15.533  0.0946  1.0771  0.6746
 7429TIP3   OH243701   6.081   3.509  12.241 -0.4595 -0.3643  0.0317
 7429TIP3    H143702   6.062   3.576  12.175  0.5640  0.3265  0.4163
 7429TIP3    H243703   6.175   3.494  12.233 -0.5813 -1.3618  0.3365
 7430TIP3   OH243704   4.789   1.040  12.588 -0.4023  0.3755  0.0711
 7430TIP3    H143705   4.757   0.952  12.608  0.8090  0.2800  1.7922
 7430TIP3    H243706   4.808   1.079  12.674  2.3818  1.0247 -0.7400
 7431TIP3   OH243707   6.279   3.159  16.827  0.2408 -0.2918 -0.3275
 7431TIP3    H143708   6.320   3.220  16.766 -2.0216 -0.2237 -1.9185
 7431TIP3    H243709   6.352   3.118  16.874  1.9357  1.5805 -1.1943
 7432TIP3   OH243710   0.302   2.356  12.737 -0.1477  0.3219 -0.5641
 7432TIP3    H143711   0.253   2.438  12.735 -0.0694  0.3781 -0.1973
 7432TIP3    H243712   0.262   2.303  12.668 -1.0850  0.1654  0.0756
 7433TIP3   OH243713   4.730   2.217  11.938 -0.5151  0.1193  0.1781
 7433TIP3    H143714   4.820   2.185  11.931 -0.2362  1.0207 -0.5054
 7433TIP3    H243715   4.723   2.249  12.028 -1.1939 -2.9180  1.3174
 7434TIP3   OH243716   5.918   0.686  13.027 -0.6511 -0.3570 -0.0830
 7434TIP3    H143717   5.943   0.707  13.117 -0.8762  1.0267 -0.3157
 7434TIP3    H243718   5.998   0.698  12.976 -0.5151 -1.1743 -0.0670
 7435TIP3   OH243719   5.177   0.201  16.222  0.8114  0.0729 -0.1668
 7435TIP3    H143720   5.117   0.174  16.153 -0.4092  1.2802  0.3779
 7435TIP3    H243721   5.122   0.210  16.300  0.9327  4.3486 -0.3439
 7436TIP3   OH243722   4.459   4.971   5.934 -0.2667 -0.0931  0.1642
 7436TIP3    H143723   4.479   4.899   5.874 -0.7243  0.9478 -1.3182
 7436TIP3    H243724   4.397   5.026   5.885 -2.9317 -0.6401  2.6763
 7437TIP3   OH243725   6.538   3.787   6.745 -0.3236 -0.5537 -0.1429
 7437TIP3    H143726   6.590   3.862   6.775  0.5297 -1.2616  0.2050
 7437TIP3    H243727   6.490   3.759   6.824  0.5139 -1.2833  0.1273
 7438TIP3   OH243728   3.163   1.482   5.452  0.2669 -0.3779  0.2077
 7438TIP3    H143729   3.149   1.528   5.369 -1.6226  0.2613  0.8444
 7438TIP3    H243730   3.255   1.498   5.472  0.1672  1.4158 -0.6098
 7439TIP3   OH243731   1.929   6.052  10.949 -0.4120  0.0385  0.1008
 7439TIP3    H143732   1.968   6.006  10.875  0.7798  0.2505  0.5795
 7439TIP3    H243733   1.918   5.986  11.017 -0.0169  0.1543  0.2846
 7440TIP3   OH243734   5.554   3.181  12.557 -0.4522  0.0028  0.0315
 7440TIP3    H143735   5.648   3.196  12.546 -0.6074 -0.3337 -2.5390
 7440TIP3    H243736   5.536   3.206  12.647  1.7616  1.9233  0.0586
 7441TIP3   OH243737   5.748   3.359  12.335 -0.0894  0.3227 -0.1024
 7441TIP3    H143738   5.795   3.416  12.396  1.7517 -1.7516  0.5565
 7441TIP3    H243739   5.810   3.341  12.265 -1.4996  1.0649 -1.6123
 7442TIP3   OH243740   3.779   6.292   2.894  0.2793  0.8898 -0.1126
 7442TIP3    H143741   3.745   6.207   2.923  1.9253  0.5629  0.9680
 7442TIP3    H243742   3.704   6.335   2.853 -0.6580 -0.9608 -0.4230
 7443TIP3   OH243743   3.947   4.096  15.208 -0.0572 -0.2599  0.2145
 7443TIP3    H143744   4.003   4.019  15.223 -2.1324 -2.1184 -0.9774
 7443TIP3    H243745   3.859   4.066  15.231 -1.6121  0.3194 -4.0475
 7444TIP3   OH243746   5.566   6.559  15.957 -0.0904 -0.1971  0.0536
 7444TIP3    H143747   5.579   6.654  15.963 -0.9166 -0.1458  1.3076
 7444TIP3    H243748   5.652   6.521  15.971  0.1437  0.3531  0.1184
 7445TIP3   OH243749   3.936   4.912   1.156  0.4683  0.4885  0.3746
 7445TIP3    H143750   3.886   4.987   1.123 -0.3180  1.2352  3.0079
 7445TIP3    H243751   4.027   4.935   1.137  0.0791 -0.4561 -3.6229
 7446TIP3   OH243752   3.901   2.173  16.845  0.3061 -0.2121  0.2327
 7446TIP3    H143753   3.821   2.126  16.871  1.7267 -1.9112  1.7985
 7446TIP3    H243754   3.933   2.213  16.925  2.5802 -2.0912  0.3880
 7447TIP3   OH243755   0.862   4.985  12.133  0.7594 -0.4084 -0.0105
 7447TIP3    H143756   0.818   4.947  12.209  1.2097 -1.3940 -0.2169
 7447TIP3    H243757   0.908   4.911  12.093  4.6612  0.9082  1.5953
 7448TIP3   OH243758   3.486   0.568  13.558  0.5377  0.9737  0.1005
 7448TIP3    H143759   3.425   0.505  13.597  0.8393  1.1518  0.8848
 7448TIP3    H243760   3.473   0.559  13.464  1.5663 -1.2565  0.1042
 7449TIP3   OH243761   4.565   2.024   3.760  0.2144 -0.1084 -0.1831
 7449TIP3    H143762   4.579   2.105   3.808 -1.7265  0.5570 -0.6717
 7449TIP3    H243763   4.627   1.962   3.799  2.1060  1.6885 -0.1143
 7450TIP3   OH243764   4.151   4.244  15.604 -0.4062  0.1273  0.3113
 7450TIP3    H143765   4.068   4.223  15.560  0.5864 -1.3178 -1.0011
 7450TIP3    H243766   4.212   4.179  15.570  1.4786  1.6623  0.6299
 7451TIP3   OH243767   0.309   0.306   1.088  0.6367 -0.3235  0.1573
 7451TIP3    H143768   0.325   0.380   1.029  0.3463 -0.1798  0.2555
 7451TIP3    H243769   0.358   0.327   1.167  0.0156  0.0952  0.4418
 7452TIP3   OH243770   5.949   3.944   6.106  0.4620 -0.0008  0.3190
 7452TIP3    H143771   6.010   3.917   6.175 -0.3990 -1.8782  0.3899
 7452TIP3    H243772   5.866   3.956   6.152  0.5227  1.6321  0.0628
 7453TIP3   OH243773   5.801   4.827   5.596 -0.3008  0.5213  0.0120
 7453TIP3    H143774   5.725   4.838   5.654  0.3822  1.2607  0.7795
 7453TIP3    H243775   5.812   4.912   5.555  1.1229  0.9255  1.1682
 7454TIP3   OH243776   4.489   6.135   2.953 -0.1231  0.3095 -0.6828
 7454TIP3    H143777   4.460   6.223   2.926 -0.0818  0.6876  0.4526
 7454TIP3    H243778   4.572   6.149   2.998 -1.1600  0.0155  1.4869
 7455TIP3   OH243779   1.595   5.560   1.747  0.0006  0.0959  0.1634
 7455TIP3    H143780   1.595   5.485   1.806  2.1172 -0.7552 -0.8164
 7455TIP3    H243781   1.508   5.599   1.758 -0.2706 -1.0058  2.5453
 7456TIP3   OH243782   3.395   5.824  12.325  0.1821  0.4812  0.1139
 7456TIP3    H143783   3.391   5.899  12.385 -0.1775  0.7977 -0.3073
 7456TIP3    H243784   3.485   5.825  12.293  0.1599  0.7793  0.0534
 7457TIP3   OH243785   1.257   3.567   0.387 -0.5313  0.2959  0.6174
 7457TIP3    H143786   1.324   3.499   0.379 -2.6291 -2.0679  1.5624
 7457TIP3    H243787   1.204   3.557   0.308 -1.3201  0.2575  1.1379
 7458TIP3   OH243788   1.719   6.731   1.810 -0.5528  0.2136  0.0004
 7458TIP3    H143789   1.771   6.752   1.887 -0.7065 -1.0313  0.4638
 7458TIP3    H243790   1.645   6.681   1.844 -0.1512 -1.1443 -1.0325
 7459TIP3   OH243791   5.088   0.343   6.229 -0.1986 -0.4028  0.0506
 7459TIP3    H143792   5.170   0.339   6.279 -0.7987 -0.6136  1.0383
 7459TIP3    H243793   5.080   0.256   6.190  1.0837  0.2361 -1.7899
 7460TIP3   OH243794   1.335   3.168  14.226 -0.0074  0.6369 -0.3058
 7460TIP3    H143795   1.394   3.111  14.275  0.3123  1.1210 -0.1213
 7460TIP3    H243796   1.393   3.230  14.181 -0.2126 -0.4437 -2.1629
 7461TIP3   OH243797   3.342   6.666  16.036  0.8120 -0.3713  0.3359
 7461TIP3    H143798   3.347   6.591  16.095  2.9672  0.3289  1.1293
 7461TIP3    H243799   3.329   6.742  16.093  0.5777  0.0776 -0.2919
 7462TIP3   OH243800   4.599   1.661   2.609 -0.2278 -0.0128 -0.4192
 7462TIP3    H143801   4.683   1.671   2.566  1.3345  0.7895  2.5545
 7462TIP3    H243802   4.564   1.750   2.613 -1.8753 -0.4676 -2.6435
 7463TIP3   OH243803   1.268   1.629   3.910 -0.2009  0.6859 -0.0787
 7463TIP3    H143804   1.295   1.678   3.988 -0.3898  0.6864 -0.0122
 7463TIP3    H243805   1.272   1.692   3.839  1.1089  0.3904 -0.2870
 7464TIP3   OH243806   6.439   4.100   4.857  0.1193  0.2348  0.4660
 7464TIP3    H143807   6.494   4.172   4.889 -1.2988  1.8904 -0.6040
 7464TIP3    H243808   6.477   4.077   4.772 -0.7505  1.3441 -0.2507
 7465TIP3   OH243809   0.039   3.492   1.536  0.0424 -0.1037 -0.2748
 7465TIP3    H143810   0.053   3.580   1.501 -1.4058  1.2620  2.2750
 7465TIP3    H243811   0.002   3.443   1.463 -0.3230  1.7681 -1.4257
 7466TIP3   OH243812   5.940   6.690   3.524 -0.2938  0.1907 -0.2867
 7466TIP3    H143813   6.003   6.621   3.503 -0.2570  0.4558 -1.0583
 7466TIP3    H243814   5.889   6.654   3.597  0.2692 -0.3142 -0.1335
 7467TIP3   OH243815   5.849   1.049  15.457  0.1656 -0.1103 -0.7642
 7467TIP3    H143816   5.832   1.122  15.398  1.0165  1.9603  1.4017
 7467TIP3    H243817   5.765   1.032  15.499  0.2258  0.4134 -0.4305
 7468TIP3   OH243818   5.176   3.961   3.430  0.6956  0.8643 -0.5426
 7468TIP3    H143819   5.197   3.919   3.346  3.3243  0.5263  0.2178
 7468TIP3    H243820   5.099   3.913   3.462  0.7698 -0.2085 -1.8965
 7469TIP3   OH243821   5.153   3.530  15.270  0.1940  0.1215  0.0985
 7469TIP3    H143822   5.075   3.586  15.271  0.6018  0.7016 -0.0962
 7469TIP3    H243823   5.222   3.584  15.309  1.0679  0.4731 -1.8467
 7470TIP3   OH243824   5.843   1.798   5.949 -0.3097  0.1476  0.7376
 7470TIP3    H143825   5.928   1.754   5.955 -1.6585 -2.7315  0.6843
 7470TIP3    H243826   5.782   1.738   5.993 -2.5829  1.3511 -0.5476
 7471TIP3   OH243827   0.422   5.667  12.678 -0.3407  0.1796  0.3303
 7471TIP3    H143828   0.469   5.594  12.639 -0.3008  0.1095  0.5083
 7471TIP3    H243829   0.476   5.693  12.753 -1.0241 -0.4787  1.0806
 7472TIP3   OH243830   4.167   3.775  13.952 -0.5537  0.4916  0.5079
 7472TIP3    H143831   4.086   3.727  13.934 -1.1860  1.6638  0.1005
 7472TIP3    H243832   4.190   3.815  13.869 -0.7767  1.9328  1.0914
 7473TIP3   OH243833   3.916   1.780  13.581  0.4249  0.4825  0.6231
 7473TIP3    H143834   3.954   1.824  13.657 -2.1712  0.9217  1.7592
 7473TIP3    H243835   3.915   1.848  13.513  1.3866  0.5272  0.6350
 7474TIP3   OH243836   5.764   5.875  16.196  0.4145  0.1240 -0.7385
 7474TIP3    H143837   5.764   5.950  16.137 -0.9859 -0.8823 -2.1273
 7474TIP3    H243838   5.837   5.821  16.166  0.7107  0.3874 -0.4912
 7475TIP3   OH243839   6.294   3.426  17.184  0.4940  0.1658  0.2092
 7475TIP3    H143840   6.238   3.353  17.158  1.3927 -0.2731 -0.5472
 7475TIP3    H243841   6.323   3.465  17.101  1.5703  0.1779  0.5753
 7476TIP3   OH243842   2.265   4.263   3.046  0.8885  0.7139  0.1414
 7476TIP3    H143843   2.213   4.294   2.972 -0.2110 -1.1419  0.0709
 7476TIP3    H243844   2.287   4.343   3.095  0.1579  1.7967 -1.2241
 7477TIP3   OH243845   6.592   6.563   2.156  0.0835 -0.1347 -0.4162
 7477TIP3    H143846   6.623   6.488   2.205  0.5969 -0.7381 -1.6112
 7477TIP3    H243847   6.530   6.607   2.214  0.4936 -0.9353  0.6528
 7478TIP3   OH243848   6.581   5.828  14.813  0.5096  0.3276  0.4015
 7478TIP3    H143849   6.502   5.782  14.841  0.2132 -0.1363 -1.0929
 7478TIP3    H243850   6.652   5.766  14.831  0.2159 -0.3581 -0.7144
 7479TIP3   OH243851   5.814   6.726   1.522 -0.1822  0.3101  0.8048
 7479TIP3    H143852   5.762   6.806   1.530 -0.9535 -0.1415  0.4363
 7479TIP3    H243853   5.794   6.693   1.434  1.5505  0.6772  0.2249
 7480TIP3   OH243854   1.646   1.024   5.131 -0.3072 -0.3455 -0.4639
 7480TIP3    H143855   1.564   1.062   5.164 -0.2023 -1.1291  0.7529
 7480TIP3    H243856   1.626   1.000   5.041 -0.6162  1.8420 -1.0471
 7481TIP3   OH243857   6.380   1.868  10.979 -0.4099  0.4952 -0.0929
 7481TIP3    H143858   6.350   1.938  10.921  1.3081  1.9634  0.7165
 7481TIP3    H243859   6.301   1.838  11.024 -1.1463  2.1100 -0.2631
 7482TIP3   OH243860   3.439   3.396   6.050 -0.1406  0.1697  0.1094
 7482TIP3    H143861   3.419   3.489   6.045  0.0929  0.1680 -1.7934
 7482TIP3    H243862   3.354   3.353   6.034 -0.1870  0.0579  0.6523
 7483TIP3   OH243863   3.345   6.506  14.457 -0.3262  0.2108  0.0566
 7483TIP3    H143864   3.423   6.465  14.493  0.6456  0.1403 -1.9920
 7483TIP3    H243865   3.281   6.436  14.449  1.0224 -0.8382 -2.5954
 7484TIP3   OH243866   6.287   6.210  12.190  0.1815  0.0564  0.0046
 7484TIP3    H143867   6.278   6.305  12.184  2.9754  0.4216  0.4859
 7484TIP3    H243868   6.225   6.184  12.258  0.2139  1.6997  0.7053
 7485TIP3   OH243869   2.734   2.739   3.372  0.1084 -0.5703  0.0059
 7485TIP3    H143870   2.741   2.775   3.461 -0.1098 -0.2396 -0.1067
 7485TIP3    H243871   2.643   2.755   3.346  0.8167  1.8901 -1.3175
 7486TIP3   OH243872   5.725   2.115  11.500  0.0036  0.3243 -0.1111
 7486TIP3    H143873   5.705   2.039  11.555  0.9173  0.8661  1.0067
 7486TIP3    H243874   5.807   2.091  11.456  0.1714  0.5706  0.0666
 7487TIP3   OH243875   4.009   3.289   3.638  0.3152 -0.0726  0.2604
 7487TIP3    H143876   3.964   3.355   3.691 -2.2642 -0.2906 -1.4558
 7487TIP3    H243877   4.075   3.252   3.696 -0.3292  1.7624  2.2992
 7488TIP3   OH243878   6.441   0.696   3.049  0.5792 -0.0400 -0.4258
 7488TIP3    H143879   6.385   0.664   2.978 -1.5764 -1.9238  1.9298
 7488TIP3    H243880   6.473   0.618   3.093  2.6285  1.0587  0.1537
 7489TIP3   OH243881   1.859   3.356   4.318  0.4426 -0.1571 -0.3312
 7489TIP3    H143882   1.763   3.359   4.323  0.4568 -0.8796  0.7464
 7489TIP3    H243883   1.887   3.443   4.347  0.0979  0.8073 -2.6560
 7490TIP3   OH243884   5.858   1.419   1.248 -0.4085 -0.2950 -0.1717
 7490TIP3    H143885   5.785   1.365   1.278 -0.3323 -0.3942 -0.1612
 7490TIP3    H243886   5.903   1.445   1.328 -0.1796 -0.5967 -0.2009
 7491TIP3   OH243887   3.532   4.801  16.972 -0.2378 -0.1770  0.8642
 7491TIP3    H143888   3.461   4.774  17.030 -0.0592 -2.8226 -0.0106
 7491TIP3    H243889   3.605   4.745  16.995  0.2406 -0.3866 -1.0010
 7492TIP3   OH243890   3.497   1.812  13.938  0.7517 -0.0970  0.1131
 7492TIP3    H143891   3.588   1.834  13.917  0.4990  0.9049  0.0326
 7492TIP3    H243892   3.455   1.802  13.852  0.4466  0.8987  0.1439
 7493TIP3   OH243893   0.462   1.109   4.283  0.9214 -0.4854 -0.2533
 7493TIP3    H143894   0.377   1.147   4.262  2.3607  2.4490 -1.2995
 7493TIP3    H243895   0.478   1.135   4.374  0.7434 -1.0021 -0.0698
 7494TIP3   OH243896   3.613   6.611  16.795  0.6292  0.6878 -0.2703
 7494TIP3    H143897   3.631   6.547  16.727  0.6983  1.4787 -1.0042
 7494TIP3    H243898   3.657   6.575  16.873  2.2578  0.7553 -1.1163
 7495TIP3   OH243899   0.097   2.053   0.868  0.3685 -0.6320  0.0211
 7495TIP3    H143900   0.027   2.110   0.836  0.6608 -0.9164 -1.1975
 7495TIP3    H243901   0.090   2.058   0.963 -0.3224  0.5528 -0.0599
 7496TIP3   OH243902   0.942   4.793  10.772 -0.3464 -0.7776 -0.6860
 7496TIP3    H143903   0.849   4.809  10.757 -0.4357  0.1891  0.7708
 7496TIP3    H243904   0.979   4.879  10.788  0.1122 -1.4266  2.2477
 7497TIP3   OH243905   6.580   1.687  15.271  0.0183  0.2180  0.0398
 7497TIP3    H143906   6.551   1.668  15.360  3.7706 -2.1100  0.9884
 7497TIP3    H243907   6.652   1.749  15.282  0.7529 -0.3568 -1.3119
 7498TIP3   OH243908   0.217   6.156  15.194 -0.2366 -0.0519 -0.7164
 7498TIP3    H143909   0.235   6.243  15.160 -1.0794  1.6436  2.8171
 7498TIP3    H243910   0.304   6.117  15.207  0.1421 -0.4951 -3.6701
 7499TIP3   OH243911   2.721   5.878   1.558 -0.5733 -0.3100  0.0919
 7499TIP3    H143912   2.777   5.921   1.623 -0.9461  0.0228  0.1960
 7499TIP3    H243913   2.751   5.912   1.474 -0.7521  0.0179  0.1621
 7500TIP3   OH243914   0.005   3.070   0.256  0.0609  0.3082  0.3223
 7500TIP3    H143915   0.005   3.110   0.343  0.0769  1.9840 -0.4304
 7500TIP3    H243916  -0.006   2.976   0.274 -1.0023  0.7189  2.0829
 7501TIP3   OH243917   4.625   6.019  13.829 -0.2631 -0.5339 -0.0782
 7501TIP3    H143918   4.707   6.062  13.852  0.4437 -1.2484 -1.1910
 7501TIP3    H243919   4.600   6.058  13.745 -1.0611 -0.3223  0.2529
 7502TIP3   OH243920   2.997   0.123   0.599 -0.0029  0.2808 -0.2766
 7502TIP3    H143921   3.016   0.089   0.686 -2.8270 -0.3779  0.2061
 7502TIP3    H243922   3.024   0.215   0.603  0.5927  0.0746  1.0400
 7503TIP3   OH243923   3.215   3.952  13.548 -0.1688  0.6422 -0.2565
 7503TIP3    H143924   3.174   3.871  13.519 -0.3459  0.5802  0.1531
 7503TIP3    H243925   3.304   3.948  13.513  0.2101 -0.2954  0.7398
 7504TIP3   OH243926   3.459   3.073   1.658 -0.3528 -0.3065 -0.1622
 7504TIP3    H143927   3.421   3.140   1.715  1.3346  1.1805 -0.6796
 7504TIP3    H243928   3.530   3.119   1.612 -0.4789 -1.9233 -2.0919
 7505TIP3   OH243929   0.880   1.258  12.037 -0.2822  0.0237 -0.3367
 7505TIP3    H143930   0.842   1.295  12.116 -2.3159 -0.5397 -0.9982
 7505TIP3    H243931   0.932   1.185  12.068 -0.3939  0.2999  0.5426
 7506TIP3   OH243932   3.465   4.961  14.485 -0.1314 -0.4058 -0.0751
 7506TIP3    H143933   3.426   4.902  14.550 -0.0930  1.9569  2.3002
 7506TIP3    H243934   3.556   4.933  14.478 -0.1147 -0.6647  0.9885
 7507TIP3   OH243935   5.993   5.759  13.616 -0.4941  0.1313 -0.1276
 7507TIP3    H143936   5.950   5.845  13.610 -0.7466 -0.0303 -0.6476
 7507TIP3    H243937   5.922   5.696  13.604 -0.0826 -0.1375 -1.2466
 7508TIP3   OH243938   2.144   1.759  11.935 -0.0270  0.6256 -0.6263
 7508TIP3    H143939   2.173   1.671  11.911  0.7941  0.9424 -0.8285
 7508TIP3    H243940   2.064   1.745  11.985 -0.1805 -0.2082 -1.0874
 7509TIP3   OH243941   5.272   3.477  10.541  0.2757  0.0335  0.2189
 7509TIP3    H143942   5.266   3.522  10.625 -1.4509 -0.8203  0.5818
 7509TIP3    H243943   5.185   3.486  10.502 -0.6810 -4.0652  0.9345
 7510TIP3   OH243944   5.483   3.426  11.019 -0.7770  0.3195  0.8501
 7510TIP3    H143945   5.498   3.516  10.992 -0.0901 -0.0891 -0.1696
 7510TIP3    H243946   5.426   3.389  10.951 -2.5280  0.4494  2.1574
 7511TIP3   OH243947   6.613   0.549  15.906 -0.2112  0.2980 -0.4067
 7511TIP3    H143948   6.697   0.564  15.863 -0.2409  0.3127 -0.4606
 7511TIP3    H243949   6.548   0.570  15.839 -0.3160  2.3521  0.2867
 7512TIP3   OH243950   5.297   3.037   0.123  0.1695  0.6492 -0.4113
 7512TIP3    H143951   5.388   3.032   0.093  0.9257 -0.7154  1.8197
 7512TIP3    H243952   5.247   2.990   0.056  1.4062 -0.2909 -0.7163
 7513TIP3   OH243953   3.132   4.115   6.235 -0.2990  0.3043 -0.3195
 7513TIP3    H143954   3.185   4.192   6.258 -0.3041 -0.3839  2.3376
 7513TIP3    H243955   3.064   4.148   6.177  1.9165  1.5513 -2.4013
 7514TIP3   OH243956   4.006   5.807  14.365 -0.5930  0.2985 -0.6064
 7514TIP3    H143957   3.972   5.780  14.279 -0.7591  0.3716 -0.5644
 7514TIP3    H243958   4.090   5.848  14.345 -0.0139 -0.8331 -0.6103
 7515TIP3   OH243959   4.586   0.027   2.492  0.3580  0.1583  0.1328
 7515TIP3    H143960   4.533   0.025   2.412 -0.0108 -0.6132  0.3835
 7515TIP3    H243961   4.526  -0.001   2.561  0.7854  0.4212  0.6159
 7516TIP3   OH243962   3.819   3.478   4.271 -0.1459  0.2372  0.2086
 7516TIP3    H143963   3.790   3.555   4.319 -1.5136  0.3802 -0.7989
 7516TIP3    H243964   3.828   3.409   4.337 -0.1619  0.9190  0.9252
 7517TIP3   OH243965   5.919   4.927  15.321  0.3440 -0.5032 -0.0172
 7517TIP3    H143966   6.011   4.939  15.297  0.5054 -0.7678  0.4631
 7517TIP3    H243967   5.903   4.993  15.389  0.1783 -0.4676 -0.0889
 7518TIP3   OH243968   6.508   4.936  12.419  0.4202  0.3004  1.1228
 7518TIP3    H143969   6.437   4.939  12.483  0.2593  0.4905  0.9371
 7518TIP3    H243970   6.546   4.848  12.430 -2.0857 -1.2126 -1.1778
 7519TIP3   OH243971   0.221   4.141  11.949  0.3228 -0.0641 -0.2611
 7519TIP3    H143972   0.223   4.135  12.044  1.2923  0.5160 -0.2264
 7519TIP3    H243973   0.136   4.106  11.924 -1.4658  2.9838  1.0477
 7520TIP3   OH243974   3.730   1.020  12.672 -0.2949  0.3704  0.1104
 7520TIP3    H143975   3.748   0.931  12.642 -1.8712 -0.4592  1.3819
 7520TIP3    H243976   3.721   1.011  12.767  0.7949  2.1540  0.4230
 7521TIP3   OH243977   2.745   0.561   4.210  0.3146 -0.5596  0.1745
 7521TIP3    H143978   2.699   0.628   4.160  0.7274  0.0687  0.6210
 7521TIP3    H243979   2.675   0.512   4.254 -0.0484 -1.1193 -0.9958
 7522TIP3   OH243980   6.304   3.700  11.541 -0.3579 -0.0629 -0.2340
 7522TIP3    H143981   6.276   3.625  11.488 -0.4298 -0.0077 -0.2743
 7522TIP3    H243982   6.351   3.756  11.479  0.4600 -0.4949 -0.0098
 7523TIP3   OH243983   3.817   1.219   3.105 -0.3351 -0.4995 -0.1977
 7523TIP3    H143984   3.891   1.209   3.165 -1.0073 -0.3324  0.6842
 7523TIP3    H243985   3.839   1.165   3.030  0.2648 -1.1880  0.4627
 7524TIP3   OH243986   1.134   6.076  14.889 -0.5320  0.2284  0.0539
 7524TIP3    H143987   1.154   6.081  14.982  2.4963 -0.2836 -0.4629
 7524TIP3    H243988   1.218   6.059  14.847 -1.5854  1.5436 -2.9026
 7525TIP3   OH243989   3.565   6.567   2.039 -0.8819 -0.4068  0.0945
 7525TIP3    H143990   3.477   6.532   2.023 -0.7288 -0.7806  0.0460
 7525TIP3    H243991   3.620   6.489   2.047 -1.1540 -0.3711  3.9677
 7526TIP3   OH243992   1.081   5.045   0.301  0.0397 -0.3290  0.2720
 7526TIP3    H143993   0.987   5.053   0.318 -0.6688  0.1747 -3.1866
 7526TIP3    H243994   1.110   4.976   0.361 -2.7264 -1.2291  0.7515
 7527TIP3   OH243995   0.890   5.648   4.348 -0.0458 -0.0977  0.0148
 7527TIP3    H143996   0.795   5.654   4.356  0.0382 -0.9223  2.1968
 7527TIP3    H243997   0.915   5.572   4.400  1.7657 -0.3101 -1.0611
 7528TIP3   OH243998   5.989   1.630  14.276 -0.4066  0.0953  0.2186
 7528TIP3    H143999   5.926   1.682  14.227 -0.7094 -0.9682 -0.5608
 7528TIP3    H244000   6.057   1.607  14.213  0.1070  0.1722  0.7364
 7529TIP3   OH244001   3.320   0.011  14.543 -0.1374 -0.4078  0.5435
 7529TIP3    H144002   3.409   0.046  14.543 -0.4558  0.5042  1.8817
 7529TIP3    H244003   3.327  -0.075  14.503  1.4966 -0.6853  1.3791
 7530TIP3   OH244004   3.728   2.762  11.574  0.3497 -0.2704 -0.9323
 7530TIP3    H144005   3.707   2.686  11.629 -1.1797  0.1472 -0.9188
 7530TIP3    H244006   3.772   2.724  11.498  1.3655 -0.9719 -0.0367
 7531TIP3   OH244007   1.092   6.712   0.944  0.5802 -0.5934  0.5419
 7531TIP3    H144008   1.073   6.667   1.026 -2.1511 -2.7059 -1.0860
 7531TIP3    H244009   1.040   6.792   0.948 -0.2352 -1.1152  0.5444
 7532TIP3   OH244010   4.571   4.651  14.542 -0.0677 -1.0292 -0.3149
 7532TIP3    H144011   4.490   4.677  14.498  0.0015  1.2166  0.7376
 7532TIP3    H244012   4.542   4.623  14.629  0.3355  1.2174  0.6073
 7533TIP3   OH244013   6.455   0.271   4.914  0.0966 -0.2059  0.1424
 7533TIP3    H144014   6.501   0.355   4.921  0.7818 -0.5660  0.0347
 7533TIP3    H244015   6.496   0.227   4.839  0.0276 -0.8070  0.4467
 7534TIP3   OH244016   1.846   5.818   4.160  0.2625 -0.5075 -0.5181
 7534TIP3    H144017   1.860   5.887   4.225  2.1768 -0.9109 -0.4371
 7534TIP3    H244018   1.934   5.789   4.136 -0.4333 -1.4244 -2.1762
 7535TIP3   OH244019   2.776   4.789  13.732  0.2975  0.0763 -0.4509
 7535TIP3    H144020   2.708   4.775  13.665 -0.3626  2.1380 -0.2832
 7535TIP3    H244021   2.745   4.738  13.807  0.3520 -1.1760 -1.2419
 7536TIP3   OH244022   5.708   5.133   3.998 -0.2104 -0.2667 -0.5966
 7536TIP3    H144023   5.800   5.115   4.018 -1.0517 -2.2484  2.0617
 7536TIP3    H244024   5.662   5.118   4.080 -2.8283  1.8463 -1.5191
 7537TIP3   OH244025   6.597   6.144   3.603 -0.5540  0.2339 -0.4350
 7537TIP3    H144026   6.602   6.132   3.698 -0.3793  1.2849 -0.2928
 7537TIP3    H244027   6.679   6.109   3.569 -0.5027  0.0971 -0.1700
 7538TIP3   OH244028   4.668   2.427  12.665  0.2226 -0.4385 -0.2083
 7538TIP3    H144029   4.682   2.393  12.577 -1.3711 -4.9109  1.0066
 7538TIP3    H244030   4.740   2.390  12.717 -0.1234  0.2650  0.8058
 7539TIP3   OH244031   1.544   2.842   2.238  0.3740 -0.2303  0.2085
 7539TIP3    H144032   1.463   2.857   2.288 -0.4773 -0.2446 -1.0982
 7539TIP3    H244033   1.584   2.929   2.232  0.0022 -0.0599  0.1297
 7540TIP3   OH244034   5.842   1.999   0.610  0.0537 -0.6889  0.2709
 7540TIP3    H144035   5.810   2.030   0.695 -0.0405 -0.4704  0.1568
 7540TIP3    H244036   5.764   1.997   0.554 -0.2217 -2.5239  0.6705
 7541TIP3   OH244037   0.992   5.687  14.071  0.0925 -0.3137 -0.2777
 7541TIP3    H144038   1.054   5.658  14.004 -1.1898 -1.0640 -1.1690
 7541TIP3    H244039   0.931   5.615  14.081  0.6944 -0.5603  2.3300
 7542TIP3   OH244040   1.495   5.089  10.815  0.1978  0.7953  0.5681
 7542TIP3    H144041   1.550   5.162  10.787  0.6740 -0.2065 -1.2821
 7542TIP3    H244042   1.553   5.012  10.813 -0.7867  0.0285  0.4345
 7543TIP3   OH244043   3.354   1.641   3.186  0.4419  0.0788  0.1318
 7543TIP3    H144044   3.370   1.701   3.259  0.0621  0.0106  0.2728
 7543TIP3    H244045   3.262   1.657   3.162  0.1149 -0.9846  0.6554
 7544TIP3   OH244046   2.673   4.429   3.403 -0.4383  0.0108  0.0029
 7544TIP3    H144047   2.624   4.503   3.439 -0.1467 -0.4216  1.3418
 7544TIP3    H244048   2.748   4.419   3.461 -1.7344 -2.8629  1.4278
 7545TIP3   OH244049   3.826   4.395   0.102  0.4654 -0.0750 -0.2636
 7545TIP3    H144050   3.803   4.478   0.143  1.0845 -0.6248  1.2899
 7545TIP3    H244051   3.796   4.329   0.165  0.8458 -0.9883 -1.0188
 7546TIP3   OH244052   6.697   3.547   1.051 -0.2498 -0.3751 -0.1795
 7546TIP3    H144053   6.706   3.510   1.138  0.9670  0.5015  0.0950
 7546TIP3    H244054   6.751   3.491   0.995 -1.2212 -1.0794 -0.4253
 7547TIP3   OH244055   4.785   2.390  11.472 -0.2800  0.4830 -0.0769
 7547TIP3    H144056   4.862   2.337  11.449 -0.8701  0.5456 -2.4968
 7547TIP3    H244057   4.745   2.344  11.545  0.9470 -0.6752 -0.0978
 7548TIP3   OH244058   1.044   0.533   6.304 -0.2028  0.4027 -0.0870
 7548TIP3    H144059   1.107   0.502   6.239 -1.0627 -0.3705 -0.5771
 7548TIP3    H244060   1.061   0.482   6.382  0.2710  0.7263  0.0210
 7549TIP3   OH244061   4.870   6.682   4.173  0.0281  0.2554  0.6963
 7549TIP3    H144062   4.945   6.741   4.184 -0.7602  1.0414  2.1546
 7549TIP3    H244063   4.817   6.696   4.252 -2.5336  1.0031 -1.0416
 7550TIP3   OH244064   2.441   3.709  13.133 -0.3644  0.0681  0.2121
 7550TIP3    H144065   2.531   3.682  13.152 -0.1683  0.1010 -0.6376
 7550TIP3    H244066   2.438   3.802  13.158  0.1068  0.3151 -0.6264
 7551TIP3   OH244067   3.340   0.576  13.882  0.4783 -0.0914 -0.4458
 7551TIP3    H144068   3.394   0.497  13.888 -0.2557 -0.5548  0.1446
 7551TIP3    H244069   3.252   0.547  13.905 -0.3986  0.3009 -3.0402
 7552TIP3   OH244070   1.586   5.751   4.958  0.3600 -0.4478  0.2811
 7552TIP3    H144071   1.677   5.755   4.987 -0.1189  1.8263  1.7193
 7552TIP3    H244072   1.571   5.835   4.914 -0.5610 -1.5400 -1.6243
 7553TIP3   OH244073   2.679   0.423  15.230  0.2457 -0.0575  0.2373
 7553TIP3    H144074   2.706   0.393  15.143 -0.8060  0.4337 -0.2807
 7553TIP3    H244075   2.700   0.516  15.232 -1.8055  0.4821 -0.4026
 7554TIP3   OH244076   4.468   4.678  10.431  0.1067 -0.4394 -0.3669
 7554TIP3    H144077   4.378   4.703  10.408 -0.4303 -1.9626 -0.0200
 7554TIP3    H244078   4.502   4.754  10.480 -1.1681 -0.0414 -0.0509
 7555TIP3   OH244079   2.002   3.722   0.518 -0.4022 -0.0579  0.7263
 7555TIP3    H144080   1.997   3.745   0.610 -0.9044  2.2536  0.1930
 7555TIP3    H244081   2.076   3.661   0.512  0.6709  1.0012  2.4147
 7556TIP3   OH244082   1.029   2.880  12.441  0.1308 -0.0405 -0.0770
 7556TIP3    H144083   0.944   2.837  12.451  0.7425 -1.1087  0.8154
 7556TIP3    H244084   1.055   2.903  12.530  0.0910  1.7123 -0.4878
 7557TIP3   OH244085   2.757   5.796   5.992  0.0811 -0.6063  0.1922
 7557TIP3    H144086   2.682   5.738   5.996 -0.2380 -0.2128 -0.0325
 7557TIP3    H244087   2.828   5.742   5.956  0.1553 -1.2290  1.2434
 7558TIP3   OH244088   6.300   4.290   2.414 -0.3970  0.1551  0.6953
 7558TIP3    H144089   6.241   4.341   2.359  0.8330  0.0760 -0.7484
 7558TIP3    H244090   6.363   4.353   2.448  0.0478 -0.1102  0.3729
 7559TIP3   OH244091   6.433   2.245   5.017 -0.1739 -0.1777 -0.2060
 7559TIP3    H144092   6.346   2.259   4.979 -0.0019 -0.4241 -0.7113
 7559TIP3    H244093   6.489   2.308   4.971 -0.4388  1.3884  1.5327
 7560TIP3   OH244094   0.163   3.846  14.633 -0.6740  0.3098  0.1385
 7560TIP3    H144095   0.115   3.823  14.713  0.3328 -2.4941  0.0541
 7560TIP3    H244096   0.150   3.771  14.575  2.1970  0.2390 -0.5918
 7561TIP3   OH244097   0.026   0.290   2.940  0.5293  0.2218 -0.3295
 7561TIP3    H144098  -0.039   0.230   2.905 -0.3592  1.4961 -0.9793
 7561TIP3    H244099   0.095   0.293   2.873  1.1168 -0.8840  0.2109
 7562TIP3   OH244100   5.604   6.434   1.640  0.5502  0.0033  0.4271
 7562TIP3    H144101   5.554   6.384   1.704  0.7475 -0.2913  0.3524
 7562TIP3    H244102   5.627   6.515   1.686 -1.8486  1.1481 -0.2357
 7563TIP3   OH244103   4.775   0.129  14.300  0.0234  0.2345 -0.0788
 7563TIP3    H144104   4.838   0.164  14.237 -0.2509  0.0578 -0.4588
 7563TIP3    H244105   4.740   0.206  14.344  0.0853  0.3731 -0.2724
 7564TIP3   OH244106   4.035   0.726   1.935  0.4480  0.1446  0.2581
 7564TIP3    H144107   4.061   0.714   2.026 -0.1731  0.3374  0.4633
 7564TIP3    H244108   4.033   0.821   1.923  0.6066  0.1199  0.0148
 7565TIP3   OH244109   4.377   3.515   5.997  0.3206 -0.1647 -0.1113
 7565TIP3    H144110   4.334   3.518   6.083  2.1063  1.9490  0.7911
 7565TIP3    H244111   4.413   3.426   5.992  1.7580  0.2108  2.2052
 7566TIP3   OH244112   4.160   6.469  13.508 -0.2236  0.1966  0.6998
 7566TIP3    H144113   4.157   6.382  13.549 -1.7703 -1.7881 -3.0734
 7566TIP3    H244114   4.089   6.517  13.549 -0.3523 -0.8592  1.7922
 7567TIP3   OH244115   5.075   2.124  12.048  0.7505  0.2815  0.3485
 7567TIP3    H144116   5.145   2.141  11.985 -0.1555  1.4545 -0.3667
 7567TIP3    H244117   5.080   2.029  12.064  1.5826  0.1176 -0.7857
 7568TIP3   OH244118   1.679   3.473   1.442 -0.7096 -0.4598  0.1756
 7568TIP3    H144119   1.591   3.504   1.422 -0.5767 -0.9596 -1.3923
 7568TIP3    H244120   1.732   3.552   1.450 -1.1685 -0.1757  0.4000
 7569TIP3   OH244121   3.787   0.966  11.959  0.3232  0.2295 -0.6183
 7569TIP3    H144122   3.732   0.915  11.900  1.2505 -0.0721 -1.2427
 7569TIP3    H244123   3.730   0.988  12.033  0.1062 -2.4353  0.0859
 7570TIP3   OH244124   3.359   0.382  16.934  0.1148 -0.1699  0.3355
 7570TIP3    H144125   3.299   0.453  16.957  0.1907 -0.5279  1.7029
 7570TIP3    H244126   3.302   0.311  16.905 -0.0727 -0.1647  0.6862
 7571TIP3   OH244127   2.871   1.109   4.857  0.9974  0.2739 -0.5238
 7571TIP3    H144128   2.895   1.017   4.868 -1.1484 -0.3301 -0.4066
 7571TIP3    H244129   2.815   1.129   4.932 -0.0076  1.1184 -1.4542
 7572TIP3   OH244130   1.354   6.604  12.193  0.4596 -0.6112  0.2747
 7572TIP3    H144131   1.411   6.617  12.117 -0.0507  0.0229 -0.0130
 7572TIP3    H244132   1.305   6.525  12.173 -0.1683 -0.0712 -0.3896
 7573TIP3   OH244133   3.689   3.452   2.616 -0.4395  0.1497  0.7661
 7573TIP3    H144134   3.722   3.471   2.528  0.8154  1.3143  1.4529
 7573TIP3    H244135   3.642   3.531   2.642 -4.1526 -1.5127 -0.2447
 7574TIP3   OH244136   1.043   0.931  15.143 -0.3897  0.6062 -0.3018
 7574TIP3    H144137   1.044   0.857  15.083 -1.7180 -1.7626  2.3439
 7574TIP3    H244138   0.991   0.998  15.097 -3.8827 -2.1487 -0.8150
 7575TIP3   OH244139   6.144   6.194  13.616  0.0171 -0.1905 -0.3600
 7575TIP3    H144140   6.197   6.159  13.544 -0.7454  0.5186 -1.2914
 7575TIP3    H244141   6.169   6.141  13.692  0.7770 -1.0139 -1.1571
 7576TIP3   OH244142   4.212   0.832   5.317 -0.0306  0.5440  0.5773
 7576TIP3    H144143   4.219   0.817   5.412  0.1738  0.0086  0.4856
 7576TIP3    H244144   4.300   0.812   5.284 -0.3844 -0.3542  0.1426
 7577TIP3   OH244145   6.546   6.167   4.422 -0.2703  0.1454 -0.1477
 7577TIP3    H144146   6.603   6.108   4.371  0.3960  1.4938 -1.0315
 7577TIP3    H244147   6.600   6.194   4.496 -1.6598 -2.8105  2.1421
 7578TIP3   OH244148   2.656   0.922  12.364  0.2954  0.7038  0.1457
 7578TIP3    H144149   2.688   0.959  12.282 -1.2350  2.3247  0.2290
 7578TIP3    H244150   2.709   0.964  12.432  2.0225 -1.1279  0.0439
 7579TIP3   OH244151   4.122   1.380   5.640  0.3366 -0.4895  0.0690
 7579TIP3    H144152   4.053   1.349   5.581 -3.3793  1.2113  3.0923
 7579TIP3    H244153   4.141   1.305   5.696  0.6648 -0.8505 -0.5196
 7580TIP3   OH244154   2.906   1.642   1.854 -0.1611  0.3676 -0.6689
 7580TIP3    H144155   2.910   1.566   1.911 -0.3119  0.7708 -0.1066
 7580TIP3    H244156   2.813   1.650   1.831 -0.2239  0.6630 -0.3272
 7581TIP3   OH244157   1.538   1.543  12.052 -0.4151  1.1039 -0.1037
 7581TIP3    H144158   1.572   1.574  11.968  0.3688  1.5293  0.3520
 7581TIP3    H244159   1.475   1.474  12.030  0.8675  0.1714 -0.9916
 7582TIP3   OH244160   6.391   1.688   5.445 -0.4749  0.2651  0.2117
 7582TIP3    H144161   6.445   1.746   5.499 -0.0858 -0.1667  0.2931
 7582TIP3    H244162   6.340   1.637   5.508  0.8536 -1.0873  0.2363
 7583TIP3   OH244163   5.328   4.729  12.621 -0.8087  0.5186 -0.2850
 7583TIP3    H144164   5.383   4.652  12.606 -0.4904  0.8480 -0.8330
 7583TIP3    H244165   5.238   4.697  12.608 -0.7015  0.1700 -0.1897
 7584TIP3   OH244166   3.739   2.317   1.077 -0.1386 -0.4549 -0.2767
 7584TIP3    H144167   3.777   2.323   1.165 -1.6904  0.4346  0.3926
 7584TIP3    H244168   3.667   2.254   1.087 -0.7274  0.1317 -0.7330
 7585TIP3   OH244169   0.430   0.975  12.740  0.3801 -0.2673  0.0178
 7585TIP3    H144170   0.427   0.979  12.836  1.6698 -0.3671  0.0733
 7585TIP3    H244171   0.481   1.051  12.714 -0.3637  0.0221 -0.6338
 7586TIP3   OH244172   4.747   4.386  15.693  0.3463 -0.4524 -0.1135
 7586TIP3    H144173   4.823   4.440  15.713  0.3536 -0.6692  0.4546
 7586TIP3    H244174   4.772   4.298  15.718  0.0871 -0.6056 -0.3920
 7587TIP3   OH244175   4.972   1.761  16.596 -0.7165  0.1843 -0.4570
 7587TIP3    H144176   4.995   1.825  16.664  1.7513  0.4210 -1.4113
 7587TIP3    H244177   4.919   1.811  16.534 -2.5188  0.1100  0.9400
 7588TIP3   OH244178   1.500   3.043   0.054 -0.2680  0.3244 -0.0549
 7588TIP3    H144179   1.492   3.040   0.150 -2.1667 -1.4696 -0.1930
 7588TIP3    H244180   1.413   3.017   0.022  0.6723 -0.3518 -2.2491
 7589TIP3   OH244181   2.679   2.703   0.969 -0.2297 -0.3320  0.4079
 7589TIP3    H144182   2.637   2.627   0.929 -1.2311  0.5012 -0.1616
 7589TIP3    H244183   2.642   2.778   0.924 -1.6726  0.6964  3.0465
 7590TIP3   OH244184   1.522   2.058  11.403  0.3953  0.0190 -0.6636
 7590TIP3    H144185   1.475   1.977  11.383  1.1189 -0.8832  1.0393
 7590TIP3    H244186   1.607   2.047  11.360  0.7907 -0.5094  0.2289
 7591TIP3   OH244187   1.986   2.383  12.904 -0.3392  0.5015  0.0357
 7591TIP3    H144188   1.984   2.427  12.819 -1.0454 -1.0880 -0.8205
 7591TIP3    H244189   2.078   2.385  12.930 -0.1176  1.0552 -0.7465
 7592TIP3   OH244190   2.882   1.118  14.095 -0.5822  0.6959 -0.2728
 7592TIP3    H144191   2.925   1.199  14.069 -1.2130  1.4644  1.0232
 7592TIP3    H244192   2.951   1.064  14.132 -0.0467  0.3666 -1.6628
 7593TIP3   OH244193   3.819   2.389  15.403  0.1178 -0.4336 -0.1630
 7593TIP3    H144194   3.772   2.309  15.426  0.8214 -0.4074  1.4965
 7593TIP3    H244195   3.781   2.416  15.320 -1.3535 -1.5281  0.1179
 7594TIP3   OH244196   4.265   5.911   1.048 -0.5857 -0.7191 -0.0737
 7594TIP3    H144197   4.174   5.908   1.077 -1.3821  2.5687 -1.7091
 7594TIP3    H244198   4.311   5.955   1.120 -0.4606 -1.4701  0.3181
 7595TIP3   OH244199   0.380   6.263   3.437 -0.2509  0.0208 -0.5906
 7595TIP3    H144200   0.350   6.346   3.473  1.0500  0.2730 -0.0449
 7595TIP3    H244201   0.402   6.210   3.513 -2.6985 -1.5292 -0.8350
 7596TIP3   OH244202   3.377   3.795   5.512 -0.0377 -0.2492 -0.1102
 7596TIP3    H144203   3.437   3.723   5.492 -0.7509 -0.5493 -1.2831
 7596TIP3    H244204   3.306   3.785   5.449 -0.0347  1.6214 -0.4697
 7597TIP3   OH244205   0.319   1.695   0.719  0.0302  0.0151 -0.4144
 7597TIP3    H144206   0.306   1.636   0.645  0.6841  0.5612 -0.9736
 7597TIP3    H244207   0.413   1.692   0.736 -0.2067 -0.7206  0.9253
 7598TIP3   OH244208   6.298   6.240   3.592  0.1815 -0.6687 -0.1450
 7598TIP3    H144209   6.359   6.190   3.647  2.7875  0.1038 -2.1128
 7598TIP3    H244210   6.298   6.327   3.631  0.2079 -0.7167 -0.0363
 7599TIP3   OH244211   3.958   2.333   2.488  0.8445  0.2485  0.6410
 7599TIP3    H144212   3.932   2.242   2.501  3.1381 -0.9358 -1.9965
 7599TIP3    H244213   3.926   2.356   2.401  1.7329  1.3583  0.5749
 7600TIP3   OH244214   2.662   0.348  12.528  0.1726 -0.3212 -0.0077
 7600TIP3    H144215   2.601   0.404  12.481  1.7085  2.6454  1.2889
 7600TIP3    H244216   2.747   0.391  12.519  1.4393 -2.4033  1.1676
 7601TIP3   OH244217   2.810   6.419  13.006 -0.2491 -0.0893  0.6951
 7601TIP3    H144218   2.768   6.406  13.091  0.3199 -0.2077  0.9574
 7601TIP3    H244219   2.844   6.508  13.009 -2.6784  0.9907 -0.4744
 7602TIP3   OH244220   1.968   3.829  12.264 -0.1765  0.1779  0.1312
 7602TIP3    H144221   1.921   3.846  12.183  0.1740  0.4984 -0.0054
 7602TIP3    H244222   1.934   3.744  12.294 -3.0100  1.6689  1.5575
 7603TIP3   OH244223   4.559   4.368  16.699 -0.0522  0.0548  0.6713
 7603TIP3    H144224   4.548   4.422  16.777 -2.0054  0.7859 -0.0624
 7603TIP3    H244225   4.472   4.363  16.660  0.4867 -1.9288 -0.4134
 7604TIP3   OH244226   4.980   3.227  15.478 -0.0795  0.2973  0.0438
 7604TIP3    H144227   5.035   3.298  15.512  0.4547  0.9020 -1.9624
 7604TIP3    H244228   4.975   3.244  15.384 -0.9074 -1.6979 -0.3066
 7605TIP3   OH244229   4.700   6.564  15.772 -0.9229  0.4079  0.0869
 7605TIP3    H144230   4.754   6.625  15.722  0.1711 -1.1723 -0.7318
 7605TIP3    H244231   4.697   6.602  15.860  0.4499  1.2087 -0.1750
 7606TIP3   OH244232   2.217   0.985  14.590 -0.8137  0.4645 -0.3655
 7606TIP3    H144233   2.245   1.074  14.610 -0.3195  0.3654 -0.6018
 7606TIP3    H244234   2.175   0.991  14.505 -3.9998  1.1062  1.1168
 7607TIP3   OH244235   2.783   5.325   5.093  0.6199  0.0186 -1.1467
 7607TIP3    H144236   2.770   5.231   5.110  0.3542  0.1320 -0.7056
 7607TIP3    H244237   2.763   5.335   5.000 -0.1431 -0.2290 -1.0180
 7608TIP3   OH244238   2.718   3.861   3.312  0.6329 -0.5423 -0.2757
 7608TIP3    H144239   2.725   3.863   3.408  1.5460  1.1837 -0.3277
 7608TIP3    H244240   2.691   3.772   3.291  0.5525 -0.9876  1.5841
 7609TIP3   OH244241   4.791   5.500  15.999  0.4370 -0.7589  0.2055
 7609TIP3    H144242   4.733   5.425  15.987 -0.5229 -0.0584  0.3243
 7609TIP3    H244243   4.741   5.561  16.054  1.5312 -0.3896  0.8438
 7610TIP3   OH244244   0.044   3.146  11.187 -0.1184  0.2008  0.1942
 7610TIP3    H144245   0.069   3.056  11.168 -3.5652 -0.9440  0.2745
 7610TIP3    H244246   0.022   3.183  11.101  0.2995  0.6403  0.2714
 7611TIP3   OH244247   1.364   1.265   3.855 -0.0748 -0.3281 -0.0786
 7611TIP3    H144248   1.305   1.233   3.786 -0.0896 -1.1124  0.2862
 7611TIP3    H244249   1.306   1.308   3.918  0.0965  1.8118 -1.3060
 7612TIP3   OH244250   5.481   1.918   2.011  0.0052 -0.2920 -0.3338
 7612TIP3    H144251   5.404   1.914   1.955 -0.0656 -0.0666 -0.2529
 7612TIP3    H244252   5.455   1.973   2.084 -0.1266 -1.1358  0.2752
 7613TIP3   OH244253   1.405   0.117  11.836 -0.2461  0.1147  0.7795
 7613TIP3    H144254   1.330   0.060  11.856 -0.9721  1.2448  1.3818
 7613TIP3    H244255   1.372   0.206  11.851  0.0507  0.9353 -2.5131
 7614TIP3   OH244256   1.543   0.653   6.043 -0.0420  0.0872 -0.1569
 7614TIP3    H144257   1.490   0.605   5.980  0.4082  0.7345 -1.0608
 7614TIP3    H244258   1.516   0.620   6.128 -1.4106 -0.0671 -0.6312
 7615TIP3   OH244259   0.888   1.963   2.886 -0.4658 -0.3564  0.1010
 7615TIP3    H144260   0.882   1.941   2.793 -0.1162 -0.4183  0.0904
 7615TIP3    H244261   0.975   1.934   2.912 -1.0809 -1.6743  0.8045
 7616TIP3   OH244262   4.869   6.727  16.247  0.0650  0.8113 -0.0818
 7616TIP3    H144263   4.955   6.712  16.286  0.9979 -0.7785 -2.5387
 7616TIP3    H244264   4.808   6.679  16.304  1.4470 -2.0040 -0.7812
 7617TIP3   OH244265   0.774   5.856   2.207 -0.3366 -0.2413 -0.1513
 7617TIP3    H144266   0.803   5.807   2.130 -0.5916  1.1255 -1.1743
 7617TIP3    H244267   0.809   5.808   2.281 -1.9518 -2.8723 -0.9728
 7618TIP3   OH244268   1.071   6.248  15.604  0.3403  0.3685 -0.2357
 7618TIP3    H144269   1.004   6.223  15.541  0.2950  0.9348 -0.4231
 7618TIP3    H244270   1.039   6.216  15.688  0.3383 -0.2724 -0.4740
 7619TIP3   OH244271   5.003   6.401  11.717  0.2572  0.1418 -0.1828
 7619TIP3    H144272   4.988   6.472  11.654 -0.9127 -0.1182 -0.2210
 7619TIP3    H244273   5.067   6.344  11.674 -2.3877 -1.4264 -2.3712
 7620TIP3   OH244274   3.121   4.735   1.154 -0.4069  0.7061 -0.0882
 7620TIP3    H144275   3.118   4.676   1.078 -0.6259 -1.5245  1.5611
 7620TIP3    H244276   3.105   4.679   1.229 -0.1511  2.8322  1.6652
 7621TIP3   OH244277   4.518   1.987   1.831 -0.4318  0.5279  0.2744
 7621TIP3    H144278   4.471   1.993   1.748 -1.7803 -0.8695  0.9048
 7621TIP3    H244279   4.609   1.972   1.806 -0.6677  1.0606 -0.9510
 7622TIP3   OH244280   1.227   2.608   5.375  0.7324 -0.3700 -0.1530
 7622TIP3    H144281   1.169   2.597   5.450  0.4557  0.0728 -0.2977
 7622TIP3    H244282   1.312   2.572   5.404  0.7662  0.2658  0.5426
 7623TIP3   OH244283   5.852   3.874  11.771  0.1861  0.5164  0.4073
 7623TIP3    H144284   5.929   3.845  11.721  1.3619  0.0036  2.4097
 7623TIP3    H244285   5.818   3.794  11.811  0.1152  1.0883  1.5213
 7624TIP3   OH244286   6.454   2.815  12.448 -0.1008  0.5629 -0.3306
 7624TIP3    H144287   6.416   2.741  12.400 -1.8420  0.8692  0.4902
 7624TIP3    H244288   6.542   2.824  12.412  0.0445 -1.6759 -0.7214
 7625TIP3   OH244289   2.610   1.417  15.530  0.8050  0.0412  0.6074
 7625TIP3    H144290   2.617   1.322  15.540 -0.1393 -0.0814  0.2174
 7625TIP3    H244291   2.696   1.444  15.498  0.7598 -0.8356 -0.3173
 7626TIP3   OH244292   2.325   1.712   3.061  0.1663  0.2875 -0.4759
 7626TIP3    H144293   2.363   1.735   3.146  1.8845 -0.5514 -0.9577
 7626TIP3    H244294   2.394   1.732   2.998 -0.5053 -0.5135 -1.5109
 7627TIP3   OH244295   6.615   2.428   1.846  0.0593  0.0571  0.0984
 7627TIP3    H144296   6.596   2.512   1.804  1.0310  0.0159 -0.4688
 7627TIP3    H244297   6.655   2.451   1.929 -1.3992  0.1392  0.8066
 7628TIP3   OH244298   6.584   3.236   5.023  0.1834 -0.2872 -0.5338
 7628TIP3    H144299   6.538   3.282   4.952 -0.3877  1.1650  0.7096
 7628TIP3    H244300   6.519   3.230   5.094  1.8651  2.0887  1.3993
 7629TIP3   OH244301   5.581   3.917  15.849 -0.1048 -0.1128  0.0438
 7629TIP3    H144302   5.674   3.929  15.825  0.0697 -0.4644  0.5343
 7629TIP3    H244303   5.569   3.972  15.926 -0.2477 -0.2255  0.1016
 7630TIP3   OH244304   6.056   2.858   1.737  0.0099 -0.2991 -0.0861
 7630TIP3    H144305   6.148   2.882   1.727 -0.3173  0.6208 -1.1136
 7630TIP3    H244306   6.055   2.763   1.735  0.7821 -0.2990 -1.8386
 7631TIP3   OH244307   3.946   3.527  11.544 -1.0232 -0.5911 -0.2993
 7631TIP3    H144308   3.971   3.599  11.603 -1.6723  0.5275 -1.3341
 7631TIP3    H244309   4.026   3.476  11.532 -1.0520 -1.3351  2.1586
 7632TIP3   OH244310   5.086   4.949   4.831 -0.5096  0.1610 -0.4222
 7632TIP3    H144311   5.050   4.907   4.910  1.1260  0.7183  0.6701
 7632TIP3    H244312   5.041   5.033   4.826  0.1882  0.6203  0.6170
 7633TIP3   OH244313   0.800   5.727   1.942 -0.3090 -0.1500  0.0216
 7633TIP3    H144314   0.838   5.644   1.913 -0.4417  0.5897 -2.6071
 7633TIP3    H244315   0.728   5.743   1.881 -0.2875  1.8543  0.4398
 7634TIP3   OH244316   5.134   3.342   0.604 -0.0928  0.6929 -0.3318
 7634TIP3    H144317   5.142   3.432   0.635 -1.0064 -0.0025  2.1251
 7634TIP3    H244318   5.052   3.340   0.556 -0.6329  0.9489  0.5596
 7635TIP3   OH244319   3.604   0.944   4.554  0.3782 -0.3284  0.1542
 7635TIP3    H144320   3.672   0.899   4.604 -0.1392 -0.7289  0.5079
 7635TIP3    H244321   3.551   0.874   4.516  0.8460 -0.0323 -1.0980
 7636TIP3   OH244322   5.165   1.687   4.842  0.3450 -0.3116  0.3470
 7636TIP3    H144323   5.180   1.646   4.927  2.4944  1.9448  1.1597
 7636TIP3    H244324   5.237   1.655   4.787 -1.2790 -2.1139 -0.8574
 7637TIP3   OH244325   4.205   5.968   0.765  0.1309 -0.0411 -0.5571
 7637TIP3    H144326   4.218   5.922   0.848  0.2165  1.3713  0.2401
 7637TIP3    H244327   4.271   6.037   0.765 -1.1250  1.2224 -0.8704
 7638TIP3   OH244328   1.393   1.318   1.954 -0.1485  0.3135  0.3571
 7638TIP3    H144329   1.485   1.293   1.956  0.0025  0.8574  0.4333
 7638TIP3    H244330   1.349   1.247   1.907  0.0236 -0.8288  1.8653
 7639TIP3   OH244331   5.479   0.654  16.364  0.0049 -0.1113  0.0305
 7639TIP3    H144332   5.485   0.560  16.347 -1.5248 -0.1412 -0.5238
 7639TIP3    H244333   5.443   0.690  16.283 -1.3452  0.6552  0.9322
 7640TIP3   OH244334   6.534   0.958   5.400 -0.2692 -0.6825  0.1335
 7640TIP3    H144335   6.565   0.910   5.477 -0.8375 -1.1868  0.0509
 7640TIP3    H244336   6.528   1.049   5.430 -0.2769 -0.8417  0.6169
 7641TIP3   OH244337   3.587   1.056   3.013  0.1517 -0.1588  0.3955
 7641TIP3    H144338   3.492   1.043   3.020 -0.2666  1.8257 -0.6562
 7641TIP3    H244339   3.607   1.118   3.084  0.5464 -0.0570  0.1938
 7642TIP3   OH244340   2.231   2.190  13.577 -0.0502  0.3352  0.4666
 7642TIP3    H144341   2.250   2.097  13.568 -0.5505  0.0626  2.0008
 7642TIP3    H244342   2.200   2.200  13.667  0.3836  2.0511  0.4638
 7643TIP3   OH244343   5.895   4.611   3.308  0.0342  1.1184  0.8074
 7643TIP3    H144344   5.811   4.569   3.327  0.3698 -0.0933 -0.2783
 7643TIP3    H244345   5.957   4.568   3.366  0.2032  0.8048  0.3962
 7644TIP3   OH244346   2.116   1.486   0.327 -0.1738 -0.4717 -0.3549
 7644TIP3    H144347   2.106   1.467   0.234  1.1395  0.7520 -0.7751
 7644TIP3    H244348   2.068   1.568   0.341  0.8964  0.1656 -0.3040
 7645TIP3   OH244349   4.144   2.161   2.285 -0.4626 -0.1004  0.0868
 7645TIP3    H144350   4.222   2.116   2.319 -0.4295  0.0067  0.1542
 7645TIP3    H244351   4.071   2.118   2.328 -0.5426 -1.1893 -1.0766
 7646TIP3   OH244352   5.273   1.509   3.152  0.0831  0.3530 -0.3466
 7646TIP3    H144353   5.296   1.599   3.172 -2.3194  0.9113  0.1578
 7646TIP3    H244354   5.253   1.509   3.059  1.5074 -0.0221 -0.6748
 7647TIP3   OH244355   1.766   1.060   1.103 -0.0710 -0.1390  0.6604
 7647TIP3    H144356   1.816   0.993   1.150  1.7069  1.5531  1.3295
 7647TIP3    H244357   1.816   1.075   1.023 -0.6547  0.1424  0.3470
 7648TIP3   OH244358   5.964   0.999   4.359 -0.2664  0.0302  0.7133
 7648TIP3    H144359   6.044   1.049   4.340 -0.4070  0.0666  0.1863
 7648TIP3    H244360   5.944   1.019   4.450  0.5404 -0.2779  0.9708
 7649TIP3   OH244361   3.017   0.746   2.680 -0.0131  0.5509  0.3980
 7649TIP3    H144362   3.049   0.721   2.593  1.6856  1.8839  0.5794
 7649TIP3    H244363   2.934   0.790   2.663 -0.6035 -0.8016 -0.3521
 7650TIP3   OH244364   3.070   4.036   3.060 -0.2174 -0.0525 -0.1714
 7650TIP3    H144365   3.040   4.123   3.034  0.9702 -0.2252 -2.3287
 7650TIP3    H244366   3.116   4.050   3.143 -2.7085  0.8220  1.1635
 7651TIP3   OH244367   0.369   6.410  12.750  0.6371  0.2095 -0.4973
 7651TIP3    H144368   0.343   6.332  12.798 -0.2888 -0.5255 -2.1107
 7651TIP3    H244369   0.290   6.439  12.705  1.3179  1.2043 -1.1098
 7652TIP3   OH244370   6.487   4.553  15.879 -0.3943 -0.1739  0.1977
 7652TIP3    H144371   6.499   4.633  15.929  0.0358  0.6699 -1.2002
 7652TIP3    H244372   6.401   4.521  15.905  0.6124 -0.9446  3.0292
 7653TIP3   OH244373   3.584   4.393   3.231 -0.1035  0.1285  0.2767
 7653TIP3    H144374   3.548   4.365   3.315 -0.7162  0.6301  0.1892
 7653TIP3    H244375   3.527   4.465   3.203 -1.5944 -1.7456 -1.8673
 7654TIP3   OH244376   6.533   1.600   4.592 -0.1117 -0.1987  0.4525
 7654TIP3    H144377   6.573   1.515   4.611 -2.0000 -1.3201 -0.3097
 7654TIP3    H244378   6.561   1.656   4.663  0.8173 -1.5908  1.2272
 7655TIP3   OH244379   4.078   6.723   1.411 -0.1066 -0.0567  0.3059
 7655TIP3    H144380   4.013   6.731   1.481 -0.0349  0.0296  0.3630
 7655TIP3    H244381   4.151   6.674   1.450 -0.7242 -1.4141 -0.1678
 7656TIP3   OH244382   3.336   3.062   0.570 -0.0004  0.1233  0.3308
 7656TIP3    H144383   3.286   2.986   0.601  1.6449 -1.7787 -1.3551
 7656TIP3    H244384   3.277   3.107   0.510 -0.8712 -0.0229  1.0520
 7657TIP3   OH244385   0.339   1.712   2.614 -0.2135 -0.3062  0.6883
 7657TIP3    H144386   0.362   1.672   2.530  0.3853 -1.6829  1.4702
 7657TIP3    H244387   0.335   1.806   2.596 -3.8340 -0.7184 -1.7711
 7658TIP3   OH244388   4.869   5.106   0.716  0.5037 -0.6336  0.2971
 7658TIP3    H144389   4.830   5.074   0.635 -0.2861 -0.5390  0.6333
 7658TIP3    H244390   4.936   5.169   0.687  1.2696 -1.7039 -0.3226
 7659TIP3   OH244391   4.909   0.981  16.647 -0.2268 -0.1316  0.1839
 7659TIP3    H144392   4.871   0.905  16.603  0.9402  0.5042 -2.0709
 7659TIP3    H244393   4.834   1.033  16.675 -1.0317 -1.9416  1.5122
 7660TIP3   OH244394   5.362   2.075   1.012  0.4343 -0.1696  0.4608
 7660TIP3    H144395   5.326   2.139   1.074 -0.9617 -1.0106  0.5645
 7660TIP3    H244396   5.456   2.093   1.010 -0.0278  2.5706 -0.3220
 7661TIP3   OH244397   1.095   2.668   3.947 -0.0064  0.1320 -0.2705
 7661TIP3    H144398   1.129   2.649   3.860 -0.0376  0.2495 -0.3096
 7661TIP3    H244399   1.009   2.626   3.949 -0.3070  0.7163 -0.5506
 7662TIP3   OH244400   1.018   2.132  11.722  0.1606 -0.4995 -0.4732
 7662TIP3    H144401   0.955   2.199  11.698 -1.1008 -1.7545 -0.8328
 7662TIP3    H244402   1.083   2.134  11.651 -0.7044 -0.6684 -1.2954
 7663TIP3   OH244403   2.902   5.374   1.343  0.1343  0.0144  0.2603
 7663TIP3    H144404   2.913   5.399   1.435  0.0661 -0.3010  0.3570
 7663TIP3    H244405   2.815   5.405   1.320  0.5415  0.9986 -0.0018
 7664TIP3   OH244406   3.095   4.437   3.230 -0.0278 -0.1708  0.4354
 7664TIP3    H144407   3.151   4.388   3.170 -0.8264 -0.0622 -0.4252
 7664TIP3    H244408   3.058   4.371   3.289 -1.8764 -0.8288 -1.3336
 7665TIP3   OH244409   5.744   5.750  16.974  0.2030  0.2823 -0.5000
 7665TIP3    H144410   5.718   5.780  16.887 -1.4941  0.1614 -0.0832
 7665TIP3    H244411   5.683   5.794  17.033  0.3680 -0.7632  0.4918
 7666TIP3   OH244412   3.484   4.050   6.359  0.3034 -0.3376  0.0141
 7666TIP3    H144413   3.490   3.954   6.365  0.6187 -0.3182  0.0407
 7666TIP3    H244414   3.536   4.073   6.282 -0.1194 -0.2189 -0.2382
 7667TIP3   OH244415   2.540   5.000   1.608 -0.1538  0.0472  0.1320
 7667TIP3    H144416   2.576   4.928   1.660 -0.3764  0.8569  1.4447
 7667TIP3    H244417   2.496   4.957   1.534  3.7274 -1.0264 -1.8206
 7668TIP3   OH244418   4.082   2.391  13.877  0.0061 -0.8558  0.2074
 7668TIP3    H144419   4.075   2.366  13.969  2.6356  1.1220  1.0700
 7668TIP3    H244420   4.011   2.454  13.864  2.0158  2.1182  2.2479
 7669TIP3   OH244421   6.711   6.711  12.117  0.4554 -0.0073 -0.4553
 7669TIP3    H144422   6.668   6.635  12.078 -2.2013  0.5505  1.1017
 7669TIP3    H244423   6.758   6.676  12.193  3.2030 -0.6573 -2.2975
 7670TIP3   OH244424   5.200   5.593   5.804  0.1926 -0.0347 -1.1200
 7670TIP3    H144425   5.187   5.529   5.874  2.0770  0.7578  0.0668
 7670TIP3    H244426   5.112   5.614   5.773 -1.0234  1.1791  2.5470
 7671TIP3   OH244427   4.415   3.551  14.489  0.3017  0.0212 -0.2371
 7671TIP3    H144428   4.381   3.481  14.434 -0.1942  0.6008 -0.6750
 7671TIP3    H244429   4.373   3.631  14.456  1.8721  0.7254 -0.6242
 7672TIP3   OH244430   5.092   5.203   0.970  0.2681  0.3216 -0.2343
 7672TIP3    H144431   5.159   5.170   1.030 -0.3226 -0.9619 -0.2364
 7672TIP3    H244432   5.037   5.126   0.951 -0.1932  0.9460 -1.5708
 7673TIP3   OH244433   1.282   3.860   1.572  0.0177 -0.6867 -0.5608
 7673TIP3    H144434   1.219   3.915   1.618  0.2348  1.5188 -2.7090
 7673TIP3    H244435   1.342   3.830   1.640 -1.2601  0.1092  0.9807
 7674TIP3   OH244436   5.490   0.537  11.291  0.1662  0.0215 -0.1213
 7674TIP3    H144437   5.510   0.608  11.231 -2.0730  0.0068 -0.9827
 7674TIP3    H244438   5.431   0.575  11.355 -0.3943 -0.8587 -0.0977
 7675TIP3   OH244439   1.597   0.864  12.287 -0.5456 -0.3324 -0.2474
 7675TIP3    H144440   1.676   0.852  12.340 -0.2606  2.5118  0.1488
 7675TIP3    H244441   1.627   0.851  12.197  0.2498  0.1432 -0.0615
 7676TIP3   OH244442   2.738   5.448   5.969  0.1833 -0.0201 -0.1453
 7676TIP3    H144443   2.775   5.467   6.056 -0.3521  2.6771 -0.3944
 7676TIP3    H244444   2.672   5.380   5.985 -1.9587  2.3665  2.1933
 7677TIP3   OH244445   1.187   4.672  12.449 -0.5461 -0.0688 -0.0043
 7677TIP3    H144446   1.242   4.606  12.491  0.2180  0.7248  0.2773
 7677TIP3    H244447   1.224   4.683  12.362  0.5133  1.3038  0.5782
 7678TIP3   OH244448   2.096   4.112   6.331  0.6903  0.0223  0.0967
 7678TIP3    H144449   2.115   4.156   6.414  2.1030 -0.1006 -0.1333
 7678TIP3    H244450   2.161   4.043   6.325  0.1976 -0.3833 -0.8191
 7679TIP3   OH244451   3.471   6.609  12.606  0.0482  0.3332  0.7192
 7679TIP3    H144452   3.431   6.680  12.655 -0.5040  0.2848  0.3462
 7679TIP3    H244453   3.420   6.603  12.525 -1.2388 -1.7902  1.6029
 7680TIP3   OH244454   5.801   3.854  13.902 -0.6152 -0.3570  1.2406
 7680TIP3    H144455   5.733   3.914  13.935  1.4282  1.8929  1.6523
 7680TIP3    H244456   5.869   3.855  13.969  0.7910 -0.7900 -0.1110
 7681TIP3   OH244457   6.110   6.466   5.312 -0.3005 -0.7143  0.2776
 7681TIP3    H144458   6.148   6.392   5.263  0.6459 -0.1620  0.1456
 7681TIP3    H244459   6.137   6.543   5.262 -2.0734 -0.2984 -0.1213
 7682TIP3   OH244460   1.345   0.609  16.929 -0.3795  0.8498 -0.3481
 7682TIP3    H144461   1.439   0.604  16.945 -0.4948 -0.2817  0.0677
 7682TIP3    H244462   1.311   0.663  17.000 -0.3240 -0.6517  0.8805
 7683TIP3   OH244463   5.658   3.494   2.836  0.1697 -0.2475 -0.3940
 7683TIP3    H144464   5.644   3.409   2.793 -0.1246 -0.4942  0.1792
 7683TIP3    H244465   5.675   3.472   2.927  0.6071  0.2865 -0.3457
 7684TIP3   OH244466   3.156   5.586  10.894  0.3133 -0.1741 -0.1352
 7684TIP3    H144467   3.120   5.658  10.843  1.6942  0.9796  0.4645
 7684TIP3    H244468   3.148   5.510  10.836 -2.0873  0.1810 -0.4026
 7685TIP3   OH244469   4.588   1.400   4.400 -0.2997  0.4408  0.2927
 7685TIP3    H144470   4.651   1.392   4.471 -1.5953 -0.7293  1.3555
 7685TIP3    H244471   4.579   1.312   4.365 -0.6288  0.7727 -0.4900
 7686TIP3   OH244472   4.984   1.890  11.739  0.3336 -0.3372 -0.3727
 7686TIP3    H144473   5.010   1.867  11.650  1.4488 -2.2204  0.3703
 7686TIP3    H244474   5.067   1.902  11.786 -0.2247  0.2095  0.4957
 7687TIP3   OH244475   3.608   2.489  10.399  0.1909  0.6598 -0.4461
 7687TIP3    H144476   3.517   2.460  10.398 -0.2146  1.6953  1.6216
 7687TIP3    H244477   3.659   2.409  10.408 -0.5748  0.1517 -0.5598
 7688TIP3   OH244478   1.155   4.434   5.752 -0.4890  0.3655  0.2908
 7688TIP3    H144479   1.141   4.346   5.787  1.7929 -1.0294 -1.9639
 7688TIP3    H244480   1.093   4.489   5.801 -1.4198 -2.2933  2.3823
 7689TIP3   OH244481   2.048   4.647  14.415  0.3130 -0.0721  0.0311
 7689TIP3    H144482   2.052   4.622  14.508 -0.8185 -1.0036 -0.1455
 7689TIP3    H244483   2.080   4.738  14.413 -1.3858  0.6303  1.6217
 7690TIP3   OH244484   0.707   3.332  13.925  0.2230  0.0822 -0.1320
 7690TIP3    H144485   0.628   3.311  13.875  0.0124 -0.8132  0.5587
 7690TIP3    H244486   0.775   3.344  13.858  0.1242 -1.8305 -0.6298
 7691TIP3   OH244487   2.426   1.753   3.311  0.3626 -0.2730 -0.0400
 7691TIP3    H144488   2.491   1.818   3.338 -1.3012  0.2552  3.2616
 7691TIP3    H244489   2.435   1.682   3.375 -0.9059 -1.1495 -0.7885
 7692TIP3   OH244490   4.284   4.748   1.248  0.0127  0.5553  0.1605
 7692TIP3    H144491   4.226   4.725   1.320 -0.6976 -0.0173 -0.5733
 7692TIP3    H244492   4.266   4.841   1.231 -0.8986  0.3201 -0.2306
 7693TIP3   OH244493   5.333   3.383  11.549  0.4051  0.4101  0.8583
 7693TIP3    H144494   5.383   3.304  11.571  1.7481  1.4274  1.5547
 7693TIP3    H244495   5.353   3.399  11.457 -0.6150 -0.5391  0.4300
 7694TIP3   OH244496   3.284   6.033   4.843 -0.0272 -0.1156 -0.6602
 7694TIP3    H144497   3.329   6.065   4.765 -0.4418  0.4273 -0.6808
 7694TIP3    H244498   3.297   6.101   4.908 -0.6402 -0.0432 -0.6040
 7695TIP3   OH244499   4.712   3.254  15.975 -0.3503 -0.1868  0.3498
 7695TIP3    H144500   4.648   3.313  15.935  0.6910  0.6007 -0.2274
 7695TIP3    H244501   4.796   3.300  15.964  0.0881 -0.2514  2.8385
 7696TIP3   OH244502   5.913   2.558   5.246  0.1799 -0.2340 -0.1435
 7696TIP3    H144503   6.002   2.590   5.237  0.5152 -1.5901 -2.2218
 7696TIP3    H244504   5.920   2.463   5.238 -0.9397 -0.9642  4.5090
 7697TIP3   OH244505   4.860   2.523  12.011 -0.3533  0.0563  0.2580
 7697TIP3    H144506   4.809   2.457  12.058  1.7180 -0.4222  2.0026
 7697TIP3    H244507   4.898   2.578  12.080  1.2755  0.5193 -0.9492
 7698TIP3   OH244508   2.082   2.582   0.990 -0.3328  0.5902  0.8761
 7698TIP3    H144509   2.062   2.667   0.952  2.1530  1.5953  1.5735
 7698TIP3    H244510   2.014   2.568   1.056 -1.7219  1.2292 -0.3808
 7699TIP3   OH244511   6.058   1.540   3.194 -0.2345  0.4085  0.2387
 7699TIP3    H144512   6.121   1.612   3.199  1.4156 -0.8948 -0.7067
 7699TIP3    H244513   6.100   1.475   3.137 -2.4837 -0.4931 -0.5017
 7700TIP3   OH244514   4.427   6.034  11.027 -0.0419 -0.2591 -0.3211
 7700TIP3    H144515   4.447   6.113  11.077 -0.7013  0.8933 -1.7906
 7700TIP3    H244516   4.333   6.040  11.009 -0.3331 -1.9446  0.4387
 7701TIP3   OH244517   2.421   2.400  11.826  0.0349 -0.0768  0.5219
 7701TIP3    H144518   2.480   2.456  11.776  0.4150 -0.3903  0.6208
 7701TIP3    H244519   2.368   2.462  11.878  1.0952  0.1641  1.3545
 7702TIP3   OH244520   0.718   4.001   3.391 -0.8789 -0.0798  0.2475
 7702TIP3    H144521   0.750   4.086   3.420  2.4842 -0.8269 -0.8705
 7702TIP3    H244522   0.673   4.020   3.308 -0.0678  0.5947 -0.0488
 7703TIP3   OH244523   3.521   4.600  13.747  0.2936 -0.0909 -0.8152
 7703TIP3    H144524   3.454   4.667  13.736  0.1371 -0.4183 -2.0704
 7703TIP3    H244525   3.474   4.525  13.784  0.7953  0.9849  2.3072
 7704TIP3   OH244526   3.210   6.378  14.918 -0.0192  0.0098  0.5457
 7704TIP3    H144527   3.142   6.422  14.970  0.1139 -0.7540  1.3976
 7704TIP3    H244528   3.237   6.303  14.972  0.7209 -0.3327 -0.2681
 7705TIP3   OH244529   3.457   6.363  12.124  0.4775  0.2340  0.8611
 7705TIP3    H144530   3.460   6.295  12.057 -0.3581 -1.6671  2.6163
 7705TIP3    H244531   3.427   6.442  12.078  0.9452 -0.7198 -1.1509
 7706TIP3   OH244532   6.056   3.241  13.587  0.3727  0.1529 -0.3740
 7706TIP3    H144533   6.064   3.202  13.499 -1.1353  0.3438 -0.6091
 7706TIP3    H244534   6.122   3.311  13.587  1.5121 -0.8680 -0.7583
 7707TIP3   OH244535   3.795   1.704   0.735 -0.0565 -0.9252  0.0156
 7707TIP3    H144536   3.809   1.613   0.707 -0.1900 -0.9679  0.0876
 7707TIP3    H244537   3.875   1.727   0.782  2.0235  0.4900 -3.8090
 7708TIP3   OH244538   1.157   5.455  14.848 -0.7328  0.4559 -0.2243
 7708TIP3    H144539   1.081   5.513  14.842 -0.6168  1.1061  2.9501
 7708TIP3    H244540   1.213   5.481  14.775 -2.2113  1.9937 -0.8695
 7709TIP3   OH244541   6.256   1.802   0.159 -0.1717  0.0932  0.2834
 7709TIP3    H144542   6.175   1.805   0.211  0.6600 -0.8300  1.6910
 7709TIP3    H244543   6.234   1.849   0.078 -2.1116 -0.1490  0.6217
 7710TIP3   OH244544   6.731   1.812   5.198  0.5605  0.0038  0.6402
 7710TIP3    H144545   6.652   1.864   5.187  1.7469  1.7927  0.0813
 7710TIP3    H244546   6.786   1.864   5.256  1.6229 -0.8225  0.3993
 7711TIP3   OH244547   4.730   2.324   2.277  0.2299 -0.1475  0.3084
 7711TIP3    H144548   4.772   2.238   2.270  0.3452 -0.1523  0.9834
 7711TIP3    H244549   4.803   2.386   2.272  0.1777 -0.1032  0.1115
 7712TIP3   OH244550   4.679   1.682   0.143  0.2274 -0.3415  0.4247
 7712TIP3    H144551   4.772   1.692   0.127  0.2533 -0.2974  0.6008
 7712TIP3    H244552   4.659   1.746   0.211 -0.0014 -0.1003  0.1309
 7713TIP3   OH244553   1.938   4.986  16.079 -0.2999  0.1804  0.2148
 7713TIP3    H144554   1.947   5.074  16.117  1.5783  1.1723 -2.1869
 7713TIP3    H244555   2.027   4.949  16.083 -0.6188 -0.7300 -0.6778
 7714TIP3   OH244556   4.681   6.014   0.154 -0.9237  0.2087 -0.0524
 7714TIP3    H144557   4.740   5.978   0.087 -1.8275 -0.6757 -0.3966
 7714TIP3    H244558   4.722   5.989   0.237 -0.5372  0.0633 -0.2818
 7715TIP3   OH244559   4.024   6.457   0.688  0.0412 -0.2595  0.2275
 7715TIP3    H144560   4.085   6.430   0.620 -1.1156  0.7648 -1.2798
 7715TIP3    H244561   4.070   6.526   0.735  0.2088  0.2149 -0.6216
 7716TIP3   OH244562   6.583   6.472  11.244 -0.3440 -0.2072  0.4528
 7716TIP3    H144563   6.587   6.418  11.165  0.8298 -0.1580  0.4669
 7716TIP3    H244564   6.672   6.503  11.257 -0.6147  0.1586  1.5498
 7717TIP3   OH244565   1.056   5.357   3.734 -0.4957 -0.5944 -0.2425
 7717TIP3    H144566   1.140   5.360   3.781  0.0719 -0.8883 -1.2133
 7717TIP3    H244567   1.022   5.446   3.741  0.2373 -0.2887 -0.4403
 7718TIP3   OH244568   6.442   3.128  14.324 -0.2017 -0.7018  0.0260
 7718TIP3    H144569   6.414   3.136  14.232  0.8039  0.7357 -0.1865
 7718TIP3    H244570   6.408   3.207  14.366  1.8184  0.1320  0.1952
 7719TIP3   OH244571   1.820   1.200   4.852  0.2774 -0.6665  0.0594
 7719TIP3    H144572   1.890   1.135   4.859  1.0054  0.0541 -0.2935
 7719TIP3    H244573   1.840   1.263   4.922 -0.8896 -1.2346  0.9365
 7720TIP3   OH244574   3.358   3.336  15.262  0.2587 -0.0300  0.3800
 7720TIP3    H144575   3.420   3.272  15.226  1.3682  1.0230  0.3580
 7720TIP3    H244576   3.412   3.392  15.318 -0.7019  0.8382  0.4496
 7721TIP3   OH244577   2.656   4.412   3.754  0.0622 -0.4348  0.2097
 7721TIP3    H144578   2.679   4.499   3.720  0.1247 -0.7228 -0.5063
 7721TIP3    H244579   2.652   4.356   3.676 -1.6297 -0.7247  0.4657
 7722TIP3   OH244580   0.126   5.321  11.023  0.1835 -0.2491 -0.1686
 7722TIP3    H144581   0.196   5.258  11.009 -1.5411 -2.0452 -1.1306
 7722TIP3    H244582   0.162   5.404  10.990  1.1775 -1.5163 -2.5483
 7723TIP3   OH244583   4.997   2.847  15.059  0.0357 -0.4488 -0.3820
 7723TIP3    H144584   4.954   2.900  15.125  0.7364 -1.2653  0.7679
 7723TIP3    H244585   4.979   2.756  15.085  0.9727 -0.7890 -0.8571
 7724TIP3   OH244586   3.343   0.387   5.408 -0.0505  0.2959 -0.1277
 7724TIP3    H144587   3.401   0.319   5.443 -1.0283 -0.6336 -0.2669
 7724TIP3    H244588   3.402   0.450   5.367  0.7954 -1.3887 -1.6138
 7725TIP3   OH244589   4.906   2.314   1.411 -0.5223  0.0279 -0.0894
 7725TIP3    H144590   4.966   2.343   1.479  0.9299 -1.8105 -0.4912
 7725TIP3    H244591   4.825   2.295   1.457  0.4282 -1.1894  1.1692
 7726TIP3   OH244592   6.659   2.973  17.045  0.5642  0.3020 -0.2299
 7726TIP3    H144593   6.569   2.997  17.023  0.6460 -0.2302 -1.1677
 7726TIP3    H244594   6.707   2.982  16.964  1.1946 -0.2176  0.0771
 7727TIP3   OH244595   0.993   2.263   0.654  0.3922 -0.1741 -0.1755
 7727TIP3    H144596   1.047   2.224   0.585 -1.4934 -0.4745 -1.5600
 7727TIP3    H244597   0.929   2.195   0.676  1.1299 -0.2244  2.1910
 7728TIP3   OH244598   2.400   5.616   3.218  0.2657 -0.0498 -0.3694
 7728TIP3    H144599   2.473   5.616   3.280 -1.4137  1.7348  1.8050
 7728TIP3    H244600   2.323   5.599   3.272 -1.4383  2.8180 -1.6616
 7729TIP3   OH244601   3.782   0.538  17.082  0.5676 -0.6020  0.0998
 7729TIP3    H144602   3.700   0.575  17.114  1.0251  0.3312  0.2398
 7729TIP3    H244603   3.756   0.472  17.019 -0.2873  0.7855 -1.0559
 7730TIP3   OH244604   6.031   3.750  11.595 -0.1589  0.5169 -0.6560
 7730TIP3    H144605   5.998   3.780  11.511 -0.5570 -0.9525 -1.0657
 7730TIP3    H244606   6.125   3.761  11.590  0.1863 -2.1422 -2.4855
 7731TIP3   OH244607   3.203   6.418  17.072 -0.2804 -0.2529 -0.1081
 7731TIP3    H144608   3.191   6.375  17.157  0.3771 -1.5270 -0.6340
 7731TIP3    H244609   3.297   6.432  17.065 -0.3210 -0.2148 -0.6475
 7732TIP3   OH244610   5.204   4.164   3.812  0.5131  0.1819 -0.7180
 7732TIP3    H144611   5.173   4.097   3.752  0.4107  1.4549 -2.1264
 7732TIP3    H244612   5.170   4.138   3.897 -0.3227 -1.0258 -1.4029
 7733TIP3   OH244613   3.685   5.581  12.513 -0.2423  0.4691 -0.0778
 7733TIP3    H144614   3.591   5.567  12.518 -0.6000  1.8925 -1.9697
 7733TIP3    H244615   3.700   5.619  12.427  2.3266 -1.5565 -0.6682
 7734TIP3   OH244616   1.936   0.677  15.388  0.9108 -0.6271 -0.3261
 7734TIP3    H144617   1.898   0.730  15.459  0.3196 -0.3265 -0.8571
 7734TIP3    H244618   1.861   0.634  15.347  0.8608  1.3808 -2.5503
 7735TIP3   OH244619   4.891   2.112   3.743  0.0870 -0.1474 -0.0871
 7735TIP3    H144620   4.856   2.029   3.710 -0.8750  0.2005  0.0093
 7735TIP3    H244621   4.814   2.157   3.779  1.1499 -0.9112  3.5788
 7736TIP3   OH244622   6.638   4.138  12.645  0.1411 -0.2620 -0.3959
 7736TIP3    H144623   6.686   4.058  12.625  1.1382  0.3472 -0.5257
 7736TIP3    H244624   6.574   4.146  12.574 -0.8341 -1.5856  0.2934
 7737TIP3   OH244625   2.511   2.393   5.997  0.3069 -0.1711 -0.1847
 7737TIP3    H144626   2.600   2.423   6.014  0.5167 -0.4212 -0.7965
 7737TIP3    H244627   2.455   2.464   6.026  0.7748  0.6305 -1.1895
 7738TIP3   OH244628   3.487   6.005   3.866  0.4863 -0.1354  0.1978
 7738TIP3    H144629   3.523   6.047   3.788  0.7227 -0.1447  0.3010
 7738TIP3    H244630   3.396   6.034   3.869  0.2495 -0.7708 -0.5253
 7739TIP3   OH244631   2.630   4.759  12.450 -0.5434  0.1909 -0.3286
 7739TIP3    H144632   2.607   4.693  12.515 -1.3726 -0.4086 -1.2157
 7739TIP3    H244633   2.709   4.800  12.486  0.7248 -2.0895 -0.3100
 7740TIP3   OH244634   4.775   6.162   4.904  0.2252 -0.0272 -0.0570
 7740TIP3    H144635   4.723   6.099   4.954 -0.5755 -0.3780 -1.2912
 7740TIP3    H244636   4.719   6.239   4.896 -0.1502 -0.4025 -1.3803
 7741TIP3   OH244637   5.721   2.101  14.246  0.0572 -0.0261 -0.0788
 7741TIP3    H144638   5.710   2.030  14.309  0.7867 -1.9527 -2.0158
 7741TIP3    H244639   5.642   2.154  14.256 -2.0612 -2.8460 -0.6661
 7742TIP3   OH244640   0.987   0.270   2.789  0.0750 -0.2443  0.0191
 7742TIP3    H144641   0.995   0.269   2.694  0.1689  0.1635  0.0204
 7742TIP3    H244642   0.898   0.239   2.806  0.1948 -0.7077 -0.1793
 7743TIP3   OH244643   0.564   2.844   5.757  0.0901  0.4102  0.0440
 7743TIP3    H144644   0.568   2.813   5.667 -2.2439  0.3792 -0.1054
 7743TIP3    H244645   0.615   2.779   5.807 -0.0819 -0.5615 -1.0110
 7744TIP3   OH244646   3.476   3.361  12.876 -0.4851 -0.0537  0.2953
 7744TIP3    H144647   3.422   3.295  12.831 -0.6112 -0.1198  0.5431
 7744TIP3    H244648   3.513   3.414  12.805  0.5587 -1.1088  0.0102
 7745TIP3   OH244649   0.826   1.024  16.484  0.5948 -0.0279  0.3006
 7745TIP3    H144650   0.829   1.089  16.414  1.3530 -0.3461  0.0399
 7745TIP3    H244651   0.858   1.071  16.561 -2.9365  1.2431  1.2284
 7746TIP3   OH244652   2.658   1.691   1.709  0.0991 -0.5832 -0.4848
 7746TIP3    H144653   2.681   1.783   1.693  0.6624 -0.7956 -0.9296
 7746TIP3    H244654   2.674   1.648   1.625  0.5749 -1.2361 -0.0655
 7747TIP3   OH244655   5.842   3.723   5.521 -0.3549  0.0985  0.8468
 7747TIP3    H144656   5.766   3.718   5.463  0.2329 -0.8525  0.1288
 7747TIP3    H244657   5.816   3.675   5.599 -0.0113 -1.5705 -0.0038
 7748TIP3   OH244658   0.881   4.359   0.725 -0.3703 -0.2862 -0.0357
 7748TIP3    H144659   0.921   4.293   0.781  0.7117  0.8283  0.5686
 7748TIP3    H244660   0.808   4.393   0.777  0.0338  0.0669  0.3107
 7749TIP3   OH244661   1.815   2.943   6.229  0.3100 -0.3712  0.3161
 7749TIP3    H144662   1.862   2.995   6.163 -0.0896 -2.1300 -1.4590
 7749TIP3    H244663   1.742   2.999   6.255 -0.5012 -0.2031 -2.0245
 7750TIP3   OH244664   0.629   1.786   4.284 -0.0022  0.7707  0.7571
 7750TIP3    H144665   0.688   1.783   4.208 -0.7717  1.3450  0.1281
 7750TIP3    H244666   0.664   1.719   4.343  0.1226 -0.2649 -0.4541
 7751TIP3   OH244667   5.357   1.110  14.495 -1.1199 -0.2493 -0.3492
 7751TIP3    H144668   5.380   1.202  14.495 -0.1776 -0.4719  0.2269
 7751TIP3    H244669   5.385   1.078  14.409  0.6658 -0.4769  0.2711
 7752TIP3   OH244670   5.693   4.848  16.806  0.3956  0.3712 -0.5668
 7752TIP3    H144671   5.606   4.808  16.800  0.6571 -0.2433 -0.2976
 7752TIP3    H244672   5.744   4.787  16.859  0.9058  0.8858 -0.4575
 7753TIP3   OH244673   1.885   5.024  16.369 -0.5731  0.3044 -0.9614
 7753TIP3    H144674   1.883   4.986  16.280 -0.8583 -0.1050 -0.7844
 7753TIP3    H244675   1.961   4.982  16.410 -1.8165 -1.3139 -0.2342
 7754TIP3   OH244676   4.084   6.009   1.428  0.6008  0.1168  0.3520
 7754TIP3    H144677   4.100   5.992   1.521  1.5984  1.4392  0.4586
 7754TIP3    H244678   4.004   5.961   1.408 -0.0143  0.3428  2.0626
 7755TIP3   OH244679   5.836   1.317  15.571  0.4160  0.8459 -0.2948
 7755TIP3    H144680   5.880   1.339  15.488  3.4287  0.5995  1.1133
 7755TIP3    H244681   5.883   1.368  15.637  1.6760 -2.7908  1.9029
 7756TIP3   OH244682   5.506   3.905  16.749  0.0612  0.0136 -0.2550
 7756TIP3    H144683   5.484   3.949  16.831 -1.7199 -0.7817 -0.2399
 7756TIP3    H244684   5.575   3.843  16.772  2.2009  2.2836 -0.1645
 7757TIP3   OH244685   0.352   2.923  16.530 -0.1105  0.6356 -0.1722
 7757TIP3    H144686   0.284   2.941  16.465  0.7008  1.9215 -0.7033
 7757TIP3    H244687   0.362   2.828  16.527 -0.9887  0.5461 -1.0062
 7758TIP3   OH244688   3.528   5.293   4.992  0.5894  0.1647 -0.1730
 7758TIP3    H144689   3.610   5.243   4.986  1.0199  0.7819  0.4553
 7758TIP3    H244690   3.547   5.375   4.947 -0.7780 -0.9756 -3.1671
 7759TIP3   OH244691   2.473   5.229  14.697  0.4532 -0.6304  0.0846
 7759TIP3    H144692   2.442   5.151  14.743 -0.7918 -0.1627  0.0831
 7759TIP3    H244693   2.508   5.196  14.615 -1.7131 -1.0725 -0.7228
 7760TIP3   OH244694   1.690   3.981  16.809  0.0158 -0.0481  0.3504
 7760TIP3    H144695   1.623   3.985  16.741  2.3061 -0.0254 -2.0685
 7760TIP3    H244696   1.686   4.067  16.852 -1.2297  0.0805  0.0225
 7761TIP3   OH244697   3.236   1.553  14.885 -0.0446 -0.0725 -0.9732
 7761TIP3    H144698   3.170   1.596  14.831 -0.8503 -0.0941 -0.0343
 7761TIP3    H244699   3.194   1.543  14.971  1.4346  0.5959 -0.1239
 7762TIP3   OH244700   3.512   4.365   3.940  0.2868 -0.3445 -0.4352
 7762TIP3    H144701   3.418   4.349   3.939 -0.2560  2.2727  0.4305
 7762TIP3    H244702   3.542   4.330   4.024 -0.3740  0.8693  0.3244
 7763TIP3   OH244703   4.807   0.051   3.930 -0.0720 -0.4614  0.1068
 7763TIP3    H144704   4.867   0.124   3.942  0.2934 -0.9419  1.3018
 7763TIP3    H244705   4.819  -0.004   4.008 -0.5662 -1.6295 -0.6055
 7764TIP3   OH244706   4.680   3.495   4.947  0.5278 -0.3106  0.4963
 7764TIP3    H144707   4.770   3.483   4.918  0.7428 -0.8902  1.3751
 7764TIP3    H244708   4.648   3.407   4.966 -0.6509 -0.2444 -0.9840
 7765TIP3   OH244709   5.125   3.141  11.613  0.1378 -0.1924 -0.0611
 7765TIP3    H144710   5.203   3.190  11.586  1.1426 -3.1128 -3.0511
 7765TIP3    H244711   5.052   3.201  11.595  1.3423  0.6428 -2.7008
 7766TIP3   OH244712   1.165   2.871   4.416 -0.6874 -0.0205  0.3269
 7766TIP3    H144713   1.148   2.847   4.325  0.0854 -1.0608  0.4355
 7766TIP3    H244714   1.078   2.886   4.453 -1.0031  0.5425 -0.6035
 7767TIP3   OH244715   4.419   2.405  13.513 -0.0215 -0.0746 -0.0970
 7767TIP3    H144716   4.391   2.315  13.526 -3.3760  1.0688  1.7061
 7767TIP3    H244717   4.463   2.428  13.596  2.7883 -0.5372 -1.3223
 7768TIP3   OH244718   1.229   5.388   3.209 -0.1688 -0.4507  0.1272
 7768TIP3    H144719   1.144   5.392   3.253 -0.7632 -0.6611 -0.9555
 7768TIP3    H244720   1.250   5.479   3.190  0.3104 -0.3240  1.2392
 7769TIP3   OH244721   6.020   2.639  15.599 -1.2219 -0.4331  0.2784
 7769TIP3    H144722   5.990   2.627  15.509  0.4447 -0.6222 -0.2762
 7769TIP3    H244723   5.950   2.601  15.653 -2.0069 -0.7656 -0.9433
 7770TIP3   OH244724   1.820   4.642  16.942 -0.0584 -0.0127 -0.6554
 7770TIP3    H144725   1.793   4.581  16.872  1.2720  1.6598 -2.7644
 7770TIP3    H244726   1.900   4.604  16.978  0.7456  0.4051 -1.9325
 7771TIP3   OH244727   2.191   2.218  15.274  0.3932 -0.3050 -0.0158
 7771TIP3    H144728   2.141   2.152  15.226  0.7600  2.2561 -4.4094
 7771TIP3    H244729   2.124   2.270  15.319 -0.2612 -1.1367 -0.0103
 7772TIP3   OH244730   2.627   0.375   3.355  0.1473 -0.5262 -0.1487
 7772TIP3    H144731   2.568   0.417   3.293  0.8710 -0.3295 -0.7136
 7772TIP3    H244732   2.647   0.290   3.316  0.8189 -0.2907 -0.3180
 7773TIP3   OH244733   4.282   3.076  16.014  0.8618 -0.1170  0.2644
 7773TIP3    H144734   4.251   2.985  16.013  2.8621 -0.8407 -1.7785
 7773TIP3    H244735   4.367   3.072  16.058  1.4473  0.5897 -0.7845
 7774TIP3   OH244736   0.429   1.788  11.780  0.3881 -0.4925 -0.1568
 7774TIP3    H144737   0.381   1.764  11.702  1.1083 -1.4022 -0.3407
 7774TIP3    H244738   0.366   1.837  11.834 -0.3233 -0.5063 -0.9625
 7775TIP3   OH244739   1.247   5.253  16.239 -0.1751  0.5058 -0.1729
 7775TIP3    H144740   1.207   5.216  16.318 -1.1949  0.0238 -0.8972
 7775TIP3    H244741   1.262   5.177  16.182  0.9814  0.7873 -0.2746
 7776TIP3   OH244742   3.308   6.071   5.734  0.8427 -0.4673 -0.2057
 7776TIP3    H144743   3.317   6.165   5.720  1.3153 -0.7455 -2.0019
 7776TIP3    H244744   3.219   6.060   5.766 -0.0350  0.4037 -2.1906
 7777TIP3   OH244745   4.066   3.512   3.040  0.7877  0.1087  0.6249
 7777TIP3    H144746   4.133   3.558   3.090  0.8217  0.2824  0.4168
 7777TIP3    H244747   4.080   3.539   2.949  1.2727 -0.8834  0.3964
 7778TIP3   OH244748   6.330   5.198   0.012 -0.0276 -0.2156  0.1787
 7778TIP3    H144749   6.293   5.117  -0.024 -0.3854  0.1072 -0.1852
 7778TIP3    H244750   6.380   5.169   0.088  1.2338 -0.9895 -0.8859
 7779TIP3   OH244751   2.615   1.927  12.956 -0.2890  0.0059  0.1104
 7779TIP3    H144752   2.580   1.951  12.870 -0.1551 -0.1031  0.0235
 7779TIP3    H244753   2.600   1.833  12.962  0.4018 -0.1254 -0.1278
 7780TIP3   OH244754   4.034   0.941   3.572  0.0845 -0.2716  0.0679
 7780TIP3    H144755   3.968   0.888   3.527 -1.2706  1.6012 -0.2463
 7780TIP3    H244756   4.084   0.982   3.502  0.5131 -0.3838  0.3052
 7781TIP3   OH244757   3.676   2.556  11.764  0.1609 -0.5059 -0.0882
 7781TIP3    H144758   3.720   2.490  11.817  0.5240  0.1322  0.4221
 7781TIP3    H244759   3.595   2.576  11.811 -0.0410 -0.7280 -0.3418
 7782TIP3   OH244760   5.204   2.663  14.657 -0.0716 -0.0445 -0.3459
 7782TIP3    H144761   5.264   2.736  14.644 -0.4357  0.3749  0.2857
 7782TIP3    H244762   5.123   2.690  14.614 -0.1686 -0.1207 -0.2115
 7783TIP3   OH244763   2.740   5.021   2.186 -0.0722 -0.2319  0.0124
 7783TIP3    H144764   2.694   5.071   2.119  0.1382 -0.2173 -0.1222
 7783TIP3    H244765   2.828   5.058   2.188  0.1743 -0.7755 -0.2876
 7784TIP3   OH244766   5.040   4.938   5.280  0.2662 -1.1498  0.7219
 7784TIP3    H144767   5.028   5.030   5.304 -0.1413 -0.7642 -0.8856
 7784TIP3    H244768   5.122   4.935   5.232  0.0494 -1.5470  0.3635
 7785TIP3   OH244769   1.704   4.229   2.085 -0.2999 -0.0424 -0.1530
 7785TIP3    H144770   1.772   4.163   2.071 -0.4881 -0.3088  0.1741
 7785TIP3    H244771   1.624   4.178   2.097 -0.6093  0.2762 -0.8037
 7786TIP3   OH244772   0.177   5.776   0.037  0.4845 -0.1885 -0.4593
 7786TIP3    H144773   0.172   5.706  -0.028  1.5700  1.3156 -2.2589
 7786TIP3    H244774   0.268   5.804   0.035  0.2387  0.7834  0.7678
 7787TIP3   OH244775   6.638   5.305  11.738 -1.0663 -0.2032  0.0702
 7787TIP3    H144776   6.588   5.332  11.815  0.0103 -0.1296  0.7686
 7787TIP3    H244777   6.719   5.268  11.774 -0.2092  0.5257 -1.0406
 7788TIP3   OH244778   1.032   1.708   2.355  0.5787  0.0346  0.1834
 7788TIP3    H144779   0.949   1.755   2.347  1.1044  1.0145  0.3763
 7788TIP3    H244780   1.070   1.712   2.267 -0.0608 -1.3845 -0.1967
 7789TIP3   OH244781   5.573   0.325  11.560  0.0242  0.0173 -0.2836
 7789TIP3    H144782   5.559   0.272  11.639  2.3272 -2.1226 -1.1928
 7789TIP3    H244783   5.503   0.298  11.501 -1.3028  1.1277  0.7123
 7790TIP3   OH244784   5.101   1.796   5.263 -0.4548 -0.0384  0.0849
 7790TIP3    H144785   5.014   1.780   5.227  0.4417 -0.7070 -1.9059
 7790TIP3    H244786   5.138   1.709   5.280  0.7110  0.1314 -1.3992
 7791TIP3   OH244787   6.478   1.178  11.588 -0.9047  0.3632 -0.0236
 7791TIP3    H144788   6.477   1.122  11.510 -2.0749  0.3037  0.0081
 7791TIP3    H244789   6.483   1.117  11.661 -1.9965  0.2851  0.0046
 7792TIP3   OH244790   1.642   0.742  16.656 -0.4747  0.2681  0.6047
 7792TIP3    H144791   1.662   0.704  16.570  1.0919 -1.7387  1.7700
 7792TIP3    H244792   1.727   0.751  16.699 -1.3825 -0.9650  2.8069
 7793TIP3   OH244793   5.939   3.708   4.695  0.2033  0.2924 -0.1343
 7793TIP3    H144794   5.988   3.641   4.649 -0.8914 -0.7661  0.1796
 7793TIP3    H244795   5.987   3.790   4.678  1.1600 -0.4468 -1.1077
 7794TIP3   OH244796   3.038   4.947  14.433  0.5330 -0.1541 -0.0537
 7794TIP3    H144797   3.051   4.901  14.351  1.0899 -0.0781 -0.0121
 7794TIP3    H244798   2.947   4.930  14.456  0.4368 -0.3529 -0.5747
 7795TIP3   OH244799   5.069   2.637   1.931 -0.2073 -0.0235 -0.3313
 7795TIP3    H144800   5.156   2.640   1.890 -0.9194  1.2107 -1.8575
 7795TIP3    H244801   5.047   2.729   1.945 -0.3363 -0.3789  2.2075
 7796TIP3   OH244802   1.852   5.800   2.816  0.3265  0.1076  0.3468
 7796TIP3    H144803   1.868   5.837   2.729 -0.2901  0.8142  0.5204
 7796TIP3    H244804   1.909   5.850   2.874 -0.1205  0.4470  0.5060
 7797TIP3   OH244805   5.219   3.624   0.627 -0.2963 -0.5015  0.4321
 7797TIP3    H144806   5.288   3.573   0.670 -2.0304 -1.1412  2.6626
 7797TIP3    H244807   5.265   3.690   0.576  1.9404 -1.1320  1.5397
 7798TIP3   OH244808   1.460   1.233  12.824 -0.2657  0.0023  0.7712
 7798TIP3    H144809   1.382   1.239  12.768 -1.4677 -1.8087  2.1057
 7798TIP3    H244810   1.444   1.297  12.894 -0.7244 -0.5594  1.1937
 7799TIP3   OH244811   1.104   4.539  11.175  0.5533  0.1583 -0.1195
 7799TIP3    H144812   1.033   4.566  11.116  0.7774  0.6545 -0.1733
 7799TIP3    H244813   1.184   4.552  11.123  0.6137 -1.9532 -0.6472
 7800TIP3   OH244814   4.936   2.880   1.277  0.4862 -0.4205 -0.1331
 7800TIP3    H144815   4.860   2.822   1.269 -0.2265 -0.2436  3.6274
 7800TIP3    H244816   4.966   2.869   1.367  2.7223  2.2059 -0.4117
 7801TIP3   OH244817   2.975   6.543   6.534  0.1659 -0.6220 -0.5189
 7801TIP3    H144818   2.960   6.448   6.528 -1.2033 -0.7792  2.9054
 7801TIP3    H244819   3.063   6.551   6.571 -0.3589 -0.6792  0.7903
 7802TIP3   OH244820   4.797   5.863  17.379 -0.1014 -0.2302  0.6150
 7802TIP3    H144821   4.832   5.876  17.291  1.9531 -1.4583  1.1945
 7802TIP3    H244822   4.735   5.790  17.369 -0.3901  0.0809  0.0740
 7803TIP3   OH244823   0.858   0.891   0.129  0.7400  0.0626  0.1497
 7803TIP3    H144824   0.842   0.951   0.057 -0.9601  0.3490  0.7156
 7803TIP3    H244825   0.897   0.814   0.088  0.5218  0.5238 -0.9595
 7804TIP3   OH244826   1.891   0.776   3.967 -0.0917  0.3724 -0.0191
 7804TIP3    H144827   1.916   0.684   3.974 -1.2907  0.1122  1.5631
 7804TIP3    H244828   1.973   0.824   3.975  0.5305 -0.5542 -0.7376
 7805TIP3   OH244829   4.251   2.045   5.361  0.2883  0.1068  0.3518
 7805TIP3    H144830   4.293   2.020   5.279 -0.2981  2.5245 -0.7649
 7805TIP3    H244831   4.308   2.113   5.398 -1.4433  1.9306 -0.1458
 7806TIP3   OH244832   0.929   2.512   0.584  0.4463 -0.0743  0.1708
 7806TIP3    H144833   0.928   2.416   0.581 -0.0973 -0.1520  2.0594
 7806TIP3    H244834   0.857   2.536   0.642 -0.3525  1.5650 -1.3875
 7807TIP3   OH244835   1.604   5.089  15.537 -0.2821  0.0672  0.6455
 7807TIP3    H144836   1.680   5.031  15.530 -0.2705  0.2391 -4.6293
 7807TIP3    H244837   1.532   5.030  15.558  0.8054 -0.4258  3.4851
 7808TIP3   OH244838   4.324   4.377  11.802 -0.0567 -0.2804 -0.0853
 7808TIP3    H144839   4.377   4.452  11.829 -2.3535  0.8706  1.5315
 7808TIP3    H244840   4.323   4.382  11.706 -0.7340  2.2694 -0.0172
 7809TIP3   OH244841   6.255   1.590  12.668  0.3482 -0.3371  0.3199
 7809TIP3    H144842   6.309   1.606  12.590 -0.6307 -0.1455 -0.3391
 7809TIP3    H244843   6.316   1.597  12.741  0.8027  2.2703 -0.2071
 7810TIP3   OH244844   1.322   0.341   0.531  0.3104 -0.5720  0.2606
 7810TIP3    H144845   1.336   0.247   0.538  1.3966 -0.4374  0.1259
 7810TIP3    H244846   1.327   0.359   0.437  1.4180 -0.2194  0.3659
 7811TIP3   OH244847   5.296   4.636  14.419 -0.9337 -0.3455  0.0577
 7811TIP3    H144848   5.286   4.656  14.326 -0.1254  2.7571  0.5207
 7811TIP3    H244849   5.208   4.614  14.449 -1.2529 -1.1058 -1.3508
 7812TIP3   OH244850   1.621   4.662  14.393 -0.1960 -0.0452  0.0155
 7812TIP3    H144851   1.532   4.669  14.359 -0.0075 -1.0305 -0.7104
 7812TIP3    H244852   1.619   4.712  14.475 -1.3961 -0.0238 -0.0069
 7813TIP3   OH244853   4.933   5.811  14.738  0.0287 -0.2899 -0.0800
 7813TIP3    H144854   4.967   5.761  14.812 -0.7729 -0.8835 -0.0996
 7813TIP3    H244855   4.930   5.902  14.769  1.6158 -0.1943 -0.0845
 7814TIP3   OH244856   1.517   4.406   5.047  0.0208  0.4090 -0.1901
 7814TIP3    H144857   1.477   4.354   4.978 -0.5631 -0.2524  0.6168
 7814TIP3    H244858   1.476   4.374   5.128 -0.8444  2.5761  0.2889
 7815TIP3   OH244859   6.229   4.318  11.630  0.2435 -0.1395 -0.2467
 7815TIP3    H144860   6.154   4.364  11.593 -0.1175  0.0722  0.7182
 7815TIP3    H244861   6.274   4.281  11.555 -0.0758  0.8600 -0.9510
 7816TIP3   OH244862   5.555   2.255   1.940  0.2374  0.3208 -0.0429
 7816TIP3    H144863   5.497   2.234   1.866 -1.1186  1.6215  0.5917
 7816TIP3    H244864   5.549   2.351   1.948  1.3299  0.3247  0.9871
 7817TIP3   OH244865   1.871   3.783   5.834 -0.3589 -0.5353 -0.0101
 7817TIP3    H144866   1.822   3.753   5.758 -1.7688 -1.7927  1.3380
 7817TIP3    H244867   1.874   3.708   5.893 -0.4794  0.7611  1.7567
 7818TIP3   OH244868   6.705   1.948   2.449  0.5077  0.0492 -0.4578
 7818TIP3    H144869   6.611   1.965   2.453  0.0746 -2.1957  0.6325
 7818TIP3    H244870   6.724   1.941   2.355 -0.0668  1.9762 -0.7582
 7819TIP3   OH244871   3.118   1.861   2.185  0.3706  0.1001  0.2256
 7819TIP3    H144872   3.084   1.864   2.095 -0.3361  1.5645  0.5091
 7819TIP3    H244873   3.066   1.926   2.232  0.6833 -0.7055  1.7274
 7820TIP3   OH244874   4.428   1.327   0.387 -0.0196 -0.2080 -0.7692
 7820TIP3    H144875   4.499   1.331   0.452 -1.0264  0.4970  0.3162
 7820TIP3    H244876   4.466   1.367   0.309  0.7129  0.3609 -0.1414
 7821TIP3   OH244877   1.678   0.051   3.741 -0.2798 -0.3500  0.5147
 7821TIP3    H144878   1.727   0.070   3.661  0.4348 -0.4852  0.9095
 7821TIP3    H244879   1.603  -0.002   3.712 -0.2522 -0.0535 -0.1100
 7822TIP3   OH244880   3.956   4.488   3.785  0.0652  0.0975 -0.0474
 7822TIP3    H144881   3.901   4.555   3.825  1.4681  1.7179 -0.6998
 7822TIP3    H244882   4.036   4.488   3.837 -0.3384 -1.9419  0.6471
 7823TIP3   OH244883   0.370   0.534   3.329 -0.0491  0.4055 -0.0742
 7823TIP3    H144884   0.440   0.493   3.380 -1.4069 -1.9379  0.0104
 7823TIP3    H244885   0.326   0.592   3.392 -0.1161 -0.5026  0.7473
 7824TIP3   OH244886   0.359   1.162  14.980  0.1948  0.1436  0.1439
 7824TIP3    H144887   0.286   1.157  15.043  1.0316 -0.0854  1.1165
 7824TIP3    H244888   0.423   1.219  15.023  1.0792 -0.5789 -0.2025
 7825TIP3   OH244889   4.784   1.144  16.329 -0.0657 -0.0834  0.0291
 7825TIP3    H144890   4.824   1.077  16.384  0.0464 -0.7142 -0.7940
 7825TIP3    H244891   4.780   1.222  16.384 -0.1750 -0.7581  0.9988
 7826TIP3   OH244892   1.411   4.271   3.709 -0.1390  0.1299  0.4979
 7826TIP3    H144893   1.387   4.273   3.616 -0.5668 -1.5006  0.5456
 7826TIP3    H244894   1.334   4.305   3.754  0.0847  0.9654  0.2729
 7827TIP3   OH244895   1.924   2.240   2.022  0.9484 -0.3582 -0.1389
 7827TIP3    H144896   1.956   2.298   2.091  0.4118 -0.2083 -0.0059
 7827TIP3    H244897   1.847   2.286   1.987 -0.0126 -1.3846  0.5479
 7828TIP3   OH244898   6.494   3.857   3.153 -0.0487  0.5149 -0.2878
 7828TIP3    H144899   6.424   3.832   3.093  0.1770  2.0132 -1.2049
 7828TIP3    H244900   6.573   3.817   3.116  0.1734  1.8342 -1.2960
 7829TIP3   OH244901   0.076   3.114  13.698  0.0262  0.5473  0.1850
 7829TIP3    H144902   0.109   3.202  13.678  1.9580  0.2427  1.6664
 7829TIP3    H244903   0.033   3.085  13.618 -1.1249  3.0134 -0.1990
 7830TIP3   OH244904   1.276   2.322   3.196  0.0593  0.4173  0.7052
 7830TIP3    H144905   1.288   2.228   3.202  0.1934  0.3014 -1.0811
 7830TIP3    H244906   1.260   2.350   3.287 -1.4452 -1.5029  1.0857
 7831TIP3   OH244907   3.617   0.025   0.361 -0.0666  0.1261 -0.3708
 7831TIP3    H144908   3.608   0.049   0.454 -2.1105  1.0631 -0.7632
 7831TIP3    H244909   3.602  -0.069   0.360 -0.1428  0.1226  0.2347
 7832TIP3   OH244910   2.946   4.836   0.421 -0.2213  0.0092 -0.2576
 7832TIP3    H144911   2.962   4.837   0.327 -1.8613  2.7865 -0.6239
 7832TIP3    H244912   3.033   4.831   0.461  0.7320  1.6749 -1.9685
 7833TIP3   OH244913   1.629   1.227   4.073 -0.1734 -0.3701  0.4594
 7833TIP3    H144914   1.717   1.233   4.036 -0.1898 -0.4659  0.4053
 7833TIP3    H244915   1.622   1.138   4.106  0.0195 -0.1331  1.1504
 7834TIP3   OH244916   4.546   1.004  10.781  0.3650 -0.1758 -0.2745
 7834TIP3    H144917   4.456   1.035  10.782 -0.6349 -2.8830  0.3598
 7834TIP3    H244918   4.566   0.992  10.688  0.1691  0.6080 -0.4278
 7835TIP3   OH244919   0.795   5.852  11.654 -0.0497 -0.4315 -0.3745
 7835TIP3    H144920   0.755   5.929  11.614 -0.6399  0.0072  0.9971
 7835TIP3    H244921   0.840   5.808  11.582 -0.7115  0.5435 -1.4161
 7836TIP3   OH244922   0.974   1.574  13.615  0.0914 -0.0880 -0.0068
 7836TIP3    H144923   1.002   1.580  13.706  0.2782  0.6822 -0.1074
 7836TIP3    H244924   0.880   1.591  13.617  0.1018 -0.0357  0.0388
 7837TIP3   OH244925   5.230   5.710   6.953  0.1254 -0.4259 -0.5064
 7837TIP3    H144926   5.299   5.721   7.018  0.8189  1.1085 -1.4455
 7837TIP3    H244927   5.275   5.697   6.870 -0.7473 -1.7793 -0.8057
 7838TIP3   OH244928   0.832   3.172  14.501 -1.0213  0.0180 -0.0931
 7838TIP3    H144929   0.846   3.135  14.588 -1.1456  1.7356  0.6962
 7838TIP3    H244930   0.902   3.134  14.448  0.9247  1.1749  1.4910
 7839TIP3   OH244931   3.058   6.001   1.792 -0.6178  0.2323 -0.2833
 7839TIP3    H144932   3.103   5.951   1.724  0.8257  1.6119 -0.3854
 7839TIP3    H244933   2.966   5.974   1.784 -0.1325 -1.2513 -1.3103
 7840TIP3   OH244934   2.927   1.529  13.024  0.1751  0.1996  0.3116
 7840TIP3    H144935   2.961   1.566  12.943  0.6278  2.6531  1.5219
 7840TIP3    H244936   2.882   1.449  12.997  1.5359  0.1635 -2.1334
 7841TIP3   OH244937   3.886   2.311  12.834  0.3863  0.1928 -0.4962
 7841TIP3    H144938   3.938   2.230  12.844 -0.0963 -0.2794 -1.7080
 7841TIP3    H244939   3.905   2.360  12.914  0.9494 -0.9717  0.1252
 7842TIP3   OH244940   2.912   4.388  14.352  0.0179  0.3860  0.2856
 7842TIP3    H144941   2.865   4.332  14.414 -0.0250 -2.2205 -1.9327
 7842TIP3    H244942   2.851   4.459  14.332 -1.8803 -1.3437 -0.3244
 7843TIP3   OH244943   1.547   0.129  15.595 -0.0339  0.0726  0.0219
 7843TIP3    H144944   1.491   0.200  15.625  0.8763  0.2805  1.3252
 7843TIP3    H244945   1.492   0.080  15.534 -1.6057  0.3344  1.1441
 7844TIP3   OH244946   6.091   6.198  15.381 -0.6719 -0.3560  0.5296
 7844TIP3    H144947   6.053   6.232  15.462 -0.6550  0.2111  0.3068
 7844TIP3    H244948   6.146   6.269  15.348 -1.9007  0.0535 -0.7854
 7845TIP3   OH244949   3.002   2.705  16.277  0.2495 -0.0577 -0.3852
 7845TIP3    H144950   2.984   2.724  16.369  0.8003  0.3824 -0.3612
 7845TIP3    H244951   2.934   2.753  16.228 -2.1495 -2.9269 -0.1443
 7846TIP3   OH244952   5.224   5.052  11.797 -0.3826  0.3246 -0.7041
 7846TIP3    H144953   5.211   4.995  11.721 -0.8942  0.5431 -0.7871
 7846TIP3    H244954   5.227   5.141  11.760 -0.7997  0.4447 -0.4554
 7847TIP3   OH244955   2.803   3.448   2.072 -0.0845  0.4440  0.5185
 7847TIP3    H144956   2.864   3.469   2.143 -0.8385  0.0624  1.2962
 7847TIP3    H244957   2.719   3.482   2.102 -0.5692 -0.3971  0.1438
 7848TIP3   OH244958   1.371   3.722   0.651  0.5858 -0.0146 -0.4042
 7848TIP3    H144959   1.365   3.780   0.727  2.5109 -0.2941  0.0226
 7848TIP3    H244960   1.375   3.634   0.689 -2.2090 -0.4788 -1.0395
 7849TIP3   OH244961   1.073   3.164  15.555  0.3180 -0.0845  0.0952
 7849TIP3    H144962   1.151   3.116  15.584  0.0523  0.2678  1.4689
 7849TIP3    H244963   1.099   3.255  15.555  0.0456 -0.0048  0.1247
 7850TIP3   OH244964   1.509   2.801   4.155  0.1322  0.8062  0.2293
 7850TIP3    H144965   1.552   2.850   4.085  0.2426  0.9842  0.4205
 7850TIP3    H244966   1.534   2.847   4.236 -0.1786  0.7396  0.3657
 7851TIP3   OH244967   0.235   2.655  14.621  0.1475  0.1753 -0.4058
 7851TIP3    H144968   0.195   2.570  14.638  0.0324  0.2155 -0.4718
 7851TIP3    H244969   0.229   2.666  14.526 -1.0111  0.8327 -0.2742
 7852TIP3   OH244970   0.059   0.466   0.431  0.4845 -0.1527 -0.1981
 7852TIP3    H144971  -0.012   0.407   0.455 -1.3726  1.1861 -2.0452
 7852TIP3    H244972   0.124   0.454   0.499 -1.5968 -1.3034  1.7186
 7853TIP3   OH244973   3.764   5.031  16.714  0.7371 -0.5519  0.5110
 7853TIP3    H144974   3.707   5.104  16.741 -0.9726 -1.1614 -1.2234
 7853TIP3    H244975   3.800   5.059  16.630 -0.1010 -1.7325 -0.2807
 7854TIP3   OH244976   6.620   4.395   2.872  0.1094 -0.1311  0.2112
 7854TIP3    H144977   6.560   4.428   2.805  0.0931 -0.7188 -0.0680
 7854TIP3    H244978   6.574   4.411   2.955 -0.0422  0.2378  0.0584
 7855TIP3   OH244979   5.667   6.734   0.067  0.6320  0.5118 -0.2203
 7855TIP3    H144980   5.633   6.697  -0.014 -0.2854  1.6017 -0.3691
 7855TIP3    H244981   5.761   6.739   0.054  0.4655  0.9304 -1.3475
 7856TIP3   OH244982   5.605   2.382  11.114 -0.0633  0.4614 -0.1278
 7856TIP3    H144983   5.517   2.403  11.145  0.4652 -0.0227  1.8507
 7856TIP3    H244984   5.598   2.385  11.019 -2.4076 -0.3272 -0.0470
 7857TIP3   OH244985   5.641   0.859   5.077  0.6109  0.5457  0.0174
 7857TIP3    H144986   5.646   0.795   5.149 -0.5724  1.6656  1.1521
 7857TIP3    H244987   5.617   0.806   5.001  1.7493 -0.6587  0.4482
 7858TIP3   OH244988   4.725   4.015  12.872  0.0851 -0.4018  0.2020
 7858TIP3    H144989   4.650   3.957  12.858  0.4661 -0.7678 -0.3647
 7858TIP3    H244990   4.724   4.033  12.966 -1.0873  0.1217  0.1071
 7859TIP3   OH244991   5.600   5.289  15.858 -0.1437  0.1975  0.3965
 7859TIP3    H144992   5.523   5.258  15.811 -0.6660  1.8364  0.0861
 7859TIP3    H244993   5.581   5.382  15.876  1.6758  0.5905  0.4727
 7860TIP3   OH244994   0.609   6.476  13.353  0.0748 -0.4159  0.0687
 7860TIP3    H144995   0.654   6.544  13.303 -1.0772  0.4107  0.1116
 7860TIP3    H244996   0.678   6.436  13.407  0.7086  0.9845  0.3427
 7861TIP3   OH244997   4.628   1.046  16.617  0.0588  0.1141  0.2893
 7861TIP3    H144998   4.610   0.961  16.658 -1.5581  1.1416  1.8557
 7861TIP3    H244999   4.553   1.060  16.559  0.0376  0.7152  0.4592
 7862TIP3   OH245000   3.865   3.927   4.933  0.1349  0.1873  0.1695
 7862TIP3    H145001   3.892   3.883   5.013 -0.7762  0.2114  0.5056
 7862TIP3    H245002   3.917   3.887   4.864  2.7782  1.8470  1.0434
 7863TIP3   OH245003   1.056   3.494  16.773 -0.8690 -0.2230  0.5301
 7863TIP3    H145004   1.124   3.434  16.803  0.4481  0.6168 -0.6064
 7863TIP3    H245005   0.980   3.439  16.755  0.4815 -1.6716 -1.0672
 7864TIP3   OH245006   4.638   6.626   0.461 -0.3940  0.7109 -0.0749
 7864TIP3    H145007   4.659   6.718   0.471  0.4920  0.6206 -0.9969
 7864TIP3    H245008   4.563   6.612   0.520 -1.6875  2.4095 -1.2315
 7865TIP3   OH245009   4.586   1.809  16.751 -0.6613  0.1408  0.4426
 7865TIP3    H145010   4.568   1.769  16.666 -0.3295 -1.8337  1.2467
 7865TIP3    H245011   4.507   1.792  16.803 -0.5706  0.6790  0.7643
 7866TIP3   OH245012   4.680   3.504   4.125 -0.1217  0.3315  0.1120
 7866TIP3    H145013   4.666   3.598   4.114 -1.9020  0.2065  0.8772
 7866TIP3    H245014   4.596   3.464   4.102 -0.3887 -0.8008  2.6816
 7867TIP3   OH245015   5.520   2.805   0.804 -0.4580  0.3255  0.1606
 7867TIP3    H145016   5.542   2.846   0.888  0.0640  1.6096 -0.5769
 7867TIP3    H245017   5.425   2.812   0.798 -0.4495  0.6974  0.4128
 7868TIP3   OH245018   6.512   1.595  13.508  0.0688  0.1828 -0.1365
 7868TIP3    H145019   6.561   1.557  13.435 -1.4759 -0.3174 -0.9431
 7868TIP3    H245020   6.483   1.519  13.559 -0.0296  0.4649  0.2296
 7869TIP3   OH245021   1.745   2.200   6.025  0.0668 -0.0056  0.3291
 7869TIP3    H145022   1.770   2.111   6.049 -0.1662  0.2342  1.5132
 7869TIP3    H245023   1.664   2.216   6.073 -1.4244 -0.1004 -1.9692
 7870TIP3   OH245024   0.486   5.583  17.424 -0.7567 -0.9610 -0.3924
 7870TIP3    H145025   0.579   5.567  17.437 -0.4744 -1.7420 -2.8547
 7870TIP3    H245026   0.477   5.678  17.428  0.0046 -0.9026  0.4338
 7871TIP3   OH245027   6.281   4.519  17.151  0.0716 -0.4813 -0.2993
 7871TIP3    H145028   6.189   4.497  17.139 -0.1046 -0.2194  0.4850
 7871TIP3    H245029   6.329   4.441  17.121 -0.4334 -0.8892 -0.0487
 7872TIP3   OH245030   0.769   4.618   5.645  0.1594 -0.1746  0.7277
 7872TIP3    H145031   0.715   4.564   5.702  0.3036 -0.1061  0.9300
 7872TIP3    H245032   0.745   4.590   5.556 -0.1934 -0.1566  0.8135
 7873TIP3   OH245033   4.183   3.465  10.864 -0.0201 -0.4704  0.2032
 7873TIP3    H145034   4.094   3.429  10.859  0.2571 -1.1465 -0.0150
 7873TIP3    H245035   4.193   3.514  10.782  0.1170 -1.1354 -0.1825
 7874TIP3   OH245036   2.774   0.032   6.953  0.0872 -0.5456  0.4964
 7874TIP3    H145037   2.746  -0.027   6.883  0.5339 -1.9578  1.4681
 7874TIP3    H245038   2.869   0.038   6.942  0.1800 -0.8983  1.0592
 7875TIP3   OH245039   1.355   0.421   1.579 -0.1309 -0.0840 -0.4620
 7875TIP3    H145040   1.368   0.516   1.576 -0.7324  0.0332  0.2444
 7875TIP3    H245041   1.388   0.395   1.665 -2.0952 -0.1434  0.3352
 7876TIP3   OH245042   3.302   0.765  16.157 -0.1034  0.2066  0.1393
 7876TIP3    H145043   3.279   0.698  16.092  0.7788 -1.3888  1.3948
 7876TIP3    H245044   3.373   0.814  16.116 -0.7725  0.4259 -0.8073
 7877TIP3   OH245045   0.964   0.591  11.079 -0.4502  0.1775  0.0684
 7877TIP3    H145046   0.905   0.524  11.114  0.9364  0.0989  2.4746
 7877TIP3    H245047   1.043   0.543  11.054 -0.0114  0.7293  0.3790
 7878TIP3   OH245048   3.260   3.692   6.303  0.1424 -0.3812 -0.7567
 7878TIP3    H145049   3.171   3.666   6.280 -0.8178 -0.2910  2.3763
 7878TIP3    H245050   3.261   3.693   6.398  2.4704  3.1068 -0.6056
 7879TIP3   OH245051   3.893   5.847  13.579 -0.6587 -0.0072  0.8008
 7879TIP3    H145052   3.879   5.784  13.509  1.1840  0.9377 -0.4948
 7879TIP3    H245053   3.899   5.793  13.658  1.7141 -1.6387 -0.3509
 7880TIP3   OH245054   1.479   6.232   0.312 -0.2318 -0.0156 -1.1154
 7880TIP3    H145055   1.386   6.249   0.298 -0.5916 -0.2619  0.7185
 7880TIP3    H245056   1.522   6.314   0.290 -1.2101  1.0615  0.7450
 7881TIP3   OH245057   2.934   4.551   5.864 -0.0107  0.6993  0.3149
 7881TIP3    H145058   2.873   4.512   5.802 -0.9398  0.3845  1.4080
 7881TIP3    H245059   2.936   4.644   5.839 -0.9209  0.7112  0.2439
 7882TIP3   OH245060   2.817   3.929   1.617 -0.0456 -0.3344 -0.0241
 7882TIP3    H145061   2.889   3.870   1.594 -1.1821 -0.9698 -2.1379
 7882TIP3    H245062   2.852   4.017   1.602  0.0948 -0.6573 -1.7515
 7883TIP3   OH245063   5.339   0.522   2.188 -0.1311 -0.1359 -0.4650
 7883TIP3    H145064   5.278   0.596   2.186 -0.6206 -0.3340  2.4724
 7883TIP3    H245065   5.418   0.558   2.229 -0.2664 -1.1032  0.7020
 7884TIP3   OH245066   4.011   2.509   3.017 -0.3885 -0.5677  0.0412
 7884TIP3    H145067   3.974   2.571   3.080  0.2399  0.8920 -0.9733
 7884TIP3    H245068   4.013   2.557   2.934  3.6526 -0.4880 -0.0081
 7885TIP3   OH245069   3.315   5.367  13.386 -0.5646  0.4217  0.2247
 7885TIP3    H145070   3.259   5.435  13.420 -0.0792  0.8909  0.1001
 7885TIP3    H245071   3.391   5.413  13.349 -0.0899 -0.1914  0.3954
 7886TIP3   OH245072   3.801   2.954  11.832 -0.0699 -0.3372  0.4810
 7886TIP3    H145073   3.775   2.926  11.920 -2.0991  1.3270  0.4789
 7886TIP3    H245074   3.763   2.888  11.774 -0.6786 -0.2270  0.7410
 7887TIP3   OH245075   2.845   2.349  16.190  0.3239  0.2260 -0.3609
 7887TIP3    H145076   2.936   2.376  16.197  0.3792 -0.2900  1.2303
 7887TIP3    H245077   2.800   2.427  16.158  1.0401  1.1179  0.7013
 7888TIP3   OH245078   5.489   1.077   1.966  0.4204  0.0715  0.4578
 7888TIP3    H145079   5.535   1.000   1.934  0.5360  0.3666 -0.0943
 7888TIP3    H245080   5.543   1.151   1.938 -0.9606  0.4997 -1.2129
 7889TIP3   OH245081   2.873   6.226   3.841 -0.1517  0.1958 -0.0804
 7889TIP3    H145082   2.832   6.185   3.765  0.5313 -2.4010  0.8660
 7889TIP3    H245083   2.885   6.155   3.904  0.7537  1.9521  1.8532
 7890TIP3   OH245084   4.198   2.280   1.647  0.0698  0.4398 -0.5795
 7890TIP3    H145085   4.179   2.187   1.659  1.8882  0.1706  0.6562
 7890TIP3    H245086   4.272   2.282   1.587 -1.1712  1.2265 -2.1553
 7891TIP3   OH245087   4.172   1.358   5.108  0.4584 -0.1488 -0.1542
 7891TIP3    H145088   4.215   1.275   5.127  0.7543  0.2498  0.9891
 7891TIP3    H245089   4.083   1.334   5.083  0.6785 -0.8326 -0.2918
 7892TIP3   OH245090   2.928   5.603  12.064 -0.0673 -0.4970  1.0713
 7892TIP3    H145091   3.002   5.661  12.081  0.2020 -0.4998 -0.0296
 7892TIP3    H245092   2.868   5.619  12.136  0.8596 -0.2579  1.8083
 7893TIP3   OH245093   1.400   2.167   3.713  0.3062  0.0329 -0.2279
 7893TIP3    H145094   1.491   2.157   3.738 -0.0105 -2.5058  0.1779
 7893TIP3    H245095   1.386   2.099   3.647 -1.6618 -0.7238  0.8818
 7894TIP3   OH245096   4.890   1.269   0.724  0.3566 -0.1719 -0.3059
 7894TIP3    H145097   4.879   1.187   0.773 -1.2738 -1.7384 -3.0115
 7894TIP3    H245098   4.936   1.327   0.784 -1.8237 -1.7398  3.2094
 7895TIP3   OH245099   0.889   3.851   1.081 -0.7526 -0.2452  0.6029
 7895TIP3    H145100   0.943   3.799   1.140  0.5761  0.3157 -0.0735
 7895TIP3    H245101   0.866   3.929   1.132  1.4743  0.8621  0.0426
 7896TIP3   OH245102   4.813   0.314   2.679 -0.1580  0.1208  0.0926
 7896TIP3    H145103   4.746   0.258   2.639  0.2417 -0.3006  0.0043
 7896TIP3    H245104   4.809   0.293   2.772 -1.7187  1.7631  0.4469
 7897TIP3   OH245105   1.659   4.471  11.933 -0.7452  0.0662 -0.0602
 7897TIP3    H145106   1.754   4.478  11.943 -0.3498 -2.3469 -1.2873
 7897TIP3    H245107   1.646   4.437  11.845 -2.5474 -2.1538  0.9384
 7898TIP3   OH245108   5.864   1.271   2.892 -0.0910  0.6217 -0.2839
 7898TIP3    H145109   5.801   1.269   2.820 -0.9538  0.8667  0.4305
 7898TIP3    H245110   5.873   1.179   2.918 -2.3061  0.7776  1.3544
 7899TIP3   OH245111   0.833   4.241   2.829  0.4375 -0.0246 -0.3240
 7899TIP3    H145112   0.742   4.224   2.806  0.9955 -4.6210 -0.0293
 7899TIP3    H245113   0.884   4.203   2.758  2.1588  0.9605  0.3111
 7900TIP3   OH245114   0.876   4.562  12.482  0.7257 -0.1282 -0.3936
 7900TIP3    H145115   0.968   4.540  12.501  0.3592 -0.6558  0.9269
 7900TIP3    H245116   0.848   4.496  12.419  1.1020 -0.2916 -0.3928
 7901TIP3   OH245117   2.914   6.674  13.000 -0.8827  0.7922  0.1339
 7901TIP3    H145118   2.913   6.719  12.916 -1.7417  0.4873 -0.0254
 7901TIP3    H245119   2.915   6.744  13.065 -3.0307  1.0837 -0.0944
 7902TIP3   OH245120   1.517   5.895  12.557 -0.1498 -0.1964 -0.0389
 7902TIP3    H145121   1.462   5.966  12.588 -2.6048 -1.1964 -1.7352
 7902TIP3    H245122   1.606   5.930  12.559 -1.0588  2.2479  0.8888
 7903TIP3   OH245123   0.926   5.258  15.931  0.3342  0.0701  0.0895
 7903TIP3    H145124   0.944   5.304  16.013 -0.1861 -0.7693  0.6972
 7903TIP3    H245125   0.874   5.182  15.957  0.0880 -0.1729 -1.0338
 7904TIP3   OH245126   4.097   2.883  16.222 -0.2813  0.0650 -0.5285
 7904TIP3    H145127   4.045   2.925  16.154 -1.4273 -0.6052 -0.0977
 7904TIP3    H245128   4.098   2.790  16.198  0.4910  0.0199 -0.3703
 7905TIP3   OH245129   1.753   1.306  12.081 -0.3447  0.0314 -0.0089
 7905TIP3    H145130   1.808   1.330  12.006  2.2841 -2.5744  0.9171
 7905TIP3    H245131   1.781   1.364  12.152  0.7352 -0.7950  0.2574
 7906TIP3   OH245132   1.284   3.989  10.973 -0.1329  0.7091  0.4915
 7906TIP3    H145133   1.264   4.021  11.060  0.0105 -0.1697  0.8567
 7906TIP3    H245134   1.300   4.068  10.921 -0.6840  1.2547  1.1365
 7907TIP3   OH245135   3.817   4.812  14.012  0.6097  0.4620  0.0424
 7907TIP3    H145136   3.787   4.730  13.973  1.7935  0.0479 -0.0311
 7907TIP3    H245137   3.768   4.880  13.965 -0.9800 -0.2204  0.6550
 7908TIP3   OH245138   3.329   3.807  15.765  0.2827  0.0340 -0.2364
 7908TIP3    H145139   3.256   3.754  15.730 -0.5180  0.6301  0.4858
 7908TIP3    H245140   3.338   3.878  15.702  0.1333  0.0426 -0.2506
 7909TIP3   OH245141   4.847   5.510  13.222  0.1309 -0.2922 -0.0655
 7909TIP3    H145142   4.934   5.474  13.233 -0.0932 -2.0542 -3.0845
 7909TIP3    H245143   4.794   5.469  13.291  0.7711 -2.7259 -0.9527
 7910TIP3   OH245144   0.559   0.217  16.366  0.1007  0.0519  0.3088
 7910TIP3    H145145   0.603   0.161  16.430 -0.2298 -0.4958  0.0623
 7910TIP3    H245146   0.470   0.227  16.400 -0.4234 -1.1782 -0.6185
 7911TIP3   OH245147   0.165   6.509   2.693  0.0758 -0.2319 -0.0970
 7911TIP3    H145148   0.147   6.553   2.610 -1.5757  0.1176  0.4107
 7911TIP3    H245149   0.091   6.449   2.705  1.1614 -1.5277  0.3014
 7912TIP3   OH245150   0.072   4.744  14.474 -0.3193 -0.6006  1.5082
 7912TIP3    H145151  -0.015   4.785  14.472 -0.1905 -0.3443  0.7499
 7912TIP3    H245152   0.132   4.813  14.446 -0.2646 -1.6465 -1.2565
 7913TIP3   OH245153   3.789   3.740  17.212  0.2333  0.2555 -0.4931
 7913TIP3    H145154   3.756   3.688  17.285  0.8683  1.1121  0.4262
 7913TIP3    H245155   3.714   3.748  17.153  0.1657 -1.8323 -0.7612
 7914TIP3   OH245156   2.477   2.346  13.746  0.4343  0.8174 -0.1194
 7914TIP3    H145157   2.498   2.373  13.836  0.3017  2.1337 -0.4738
 7914TIP3    H245158   2.397   2.295  13.755  0.0067  1.5671  0.4320
 7915TIP3   OH245159   3.996   6.384   3.019  0.5162 -0.0884  0.0747
 7915TIP3    H145160   3.929   6.354   2.958 -0.4038 -0.1994  1.0990
 7915TIP3    H245161   4.049   6.306   3.037 -0.4093 -0.5578  0.8932
 7916TIP3   OH245162   0.337   6.049   0.332 -0.1147 -0.1155 -0.5182
 7916TIP3    H145163   0.324   6.084   0.244 -1.4070 -0.2218 -0.3864
 7916TIP3    H245164   0.279   6.102   0.387  0.2626 -0.4193  0.1746
 7917TIP3   OH245165   3.140   2.213  15.164 -0.1040 -0.1760 -0.2385
 7917TIP3    H145166   3.185   2.191  15.245 -1.6883 -1.8706  0.2621
 7917TIP3    H245167   3.196   2.177  15.095 -0.5124 -2.1049  0.3628
 7918TIP3   OH245168   4.691   4.685  12.946 -0.2606 -0.2209  0.1690
 7918TIP3    H145169   4.673   4.693  13.040 -0.6696 -0.4934  0.1146
 7918TIP3    H245170   4.682   4.775  12.913 -0.4516 -0.1774  0.3326
 7919TIP3   OH245171   6.679   1.325   3.258  0.3399  0.5805 -0.2491
 7919TIP3    H145172   6.676   1.286   3.171  1.2599  0.6948 -0.3406
 7919TIP3    H245173   6.594   1.303   3.297 -0.6028  1.6037 -1.6324
 7920TIP3   OH245174   0.767   3.292   3.787  0.0481 -0.5456 -0.7981
 7920TIP3    H145175   0.728   3.308   3.702  0.3739  0.9266 -0.7129
 7920TIP3    H245176   0.731   3.361   3.843 -2.1216 -2.9537  0.9632
 7921TIP3   OH245177   3.489   0.165   4.213  0.1715  0.2080 -0.4498
 7921TIP3    H145178   3.484   0.070   4.215  1.9012  0.0901  1.3666
 7921TIP3    H245179   3.566   0.184   4.159  1.7219  0.3686  1.6693
 7922TIP3   OH245180   3.719   2.883   2.398 -0.2257 -0.4527  0.5741
 7922TIP3    H145181   3.784   2.949   2.373  0.4069 -1.2792 -0.0497
 7922TIP3    H245182   3.721   2.883   2.494 -0.4439  0.6145  0.5928
 7923TIP3   OH245183   2.487   2.866   5.447  0.0634 -0.1236 -0.4130
 7923TIP3    H145184   2.568   2.880   5.497  0.4042 -1.4692 -0.5411
 7923TIP3    H245185   2.517   2.852   5.357 -0.1022 -2.3768 -0.1823
 7924TIP3   OH245186   4.762   2.990  15.966 -0.7479  0.1739 -0.6611
 7924TIP3    H145187   4.699   3.060  15.950  0.3874  1.2851 -0.4431
 7924TIP3    H245188   4.840   3.035  15.997 -0.9474 -1.3961  2.5304
 7925TIP3   OH245189   6.017   5.443  16.259 -0.4634  0.4029  0.5235
 7925TIP3    H145190   5.996   5.467  16.349 -0.4903  2.3951  0.0423
 7925TIP3    H245191   5.935   5.411  16.223 -0.6094  0.1918  1.0373
 7926TIP3   OH245192   4.006   6.658  13.615  0.6078 -0.0517  0.3580
 7926TIP3    H145193   4.063   6.702  13.679  1.1864  0.1761 -0.2987
 7926TIP3    H245194   3.917   6.686  13.639  0.8412  0.2539  0.8905
 7927TIP3   OH245195   1.873   2.034  13.322 -0.1560 -0.3662 -0.2073
 7927TIP3    H145196   1.901   2.087  13.396  1.5545 -1.4710  0.0042
 7927TIP3    H245197   1.865   1.945  13.358  0.1605 -0.8201 -1.2153
 7928TIP3   OH245198   1.939   1.776  16.407  0.0809  0.3870  0.2567
 7928TIP3    H145199   1.922   1.759  16.314  1.4687 -0.2525  0.1049
 7928TIP3    H245200   1.899   1.862  16.423 -2.9052 -0.7794 -0.1302
 7929TIP3   OH245201   4.052   2.955  15.712 -0.1453  0.0421 -0.1972
 7929TIP3    H145202   4.025   3.047  15.703  1.6143  0.4988 -1.6360
 7929TIP3    H245203   3.996   2.908  15.651  1.1035  0.7349 -1.9845
 7930TIP3   OH245204   0.875   4.016   0.407 -0.2433  0.1704  0.2886
 7930TIP3    H145205   0.860   4.110   0.398  0.0892  0.2657  0.7025
 7930TIP3    H245206   0.793   3.981   0.440 -0.4908  0.2591 -0.2253
 7931TIP3   OH245207   0.775   2.905  16.938  0.0575  0.1692  0.2979
 7931TIP3    H145208   0.827   2.832  16.903  0.8496  0.1173  1.5276
 7931TIP3    H245209   0.705   2.917  16.873  1.2500 -0.1489 -1.1116
 7932TIP3   OH245210   6.545   6.636   4.115 -0.1615 -0.5449 -0.0317
 7932TIP3    H145211   6.487   6.690   4.169 -0.2612  0.3972 -1.0518
 7932TIP3    H245212   6.633   6.652   4.151  0.0463  1.6451 -1.3069
 7933TIP3   OH245213   2.354   4.489  14.958  0.2545  0.1588  0.2573
 7933TIP3    H145214   2.293   4.562  14.948 -1.3893 -1.4024 -2.4156
 7933TIP3    H245215   2.439   4.524  14.932 -0.1292  1.5493  0.8091
 7934TIP3   OH245216   6.436   0.259   2.303 -0.4441 -0.1216 -0.0759
 7934TIP3    H145217   6.525   0.230   2.322 -0.3427 -1.2492 -2.0300
 7934TIP3    H245218   6.381   0.192   2.344 -0.5328  1.4884  2.6534
 7935TIP3   OH245219   5.212   4.597   6.468  0.2168  0.5037  0.1454
 7935TIP3    H145220   5.149   4.668   6.482 -1.7547 -1.5106  2.3376
 7935TIP3    H245221   5.177   4.548   6.393 -1.0358 -0.7106  1.4648
 7936TIP3   OH245222   0.998   4.417  15.725  0.2973  0.4203 -0.2031
 7936TIP3    H145223   0.985   4.460  15.640 -0.7842 -0.8412 -0.7057
 7936TIP3    H245224   1.057   4.344  15.706  1.6544  1.2749  0.5374
 7937TIP3   OH245225   5.161   4.849   6.132 -0.3291  0.7037  0.1017
 7937TIP3    H145226   5.237   4.828   6.185  0.5913 -2.0507 -2.0153
 7937TIP3    H245227   5.196   4.871   6.046 -1.8523  0.1222 -0.7266
 7938TIP3   OH245228   2.009   4.808   4.864  0.5943  0.4675 -0.2792
 7938TIP3    H145229   2.030   4.850   4.780 -1.3097  2.3404  0.0657
 7938TIP3    H245230   1.966   4.726   4.840  1.2459  0.3594 -1.1030
 7939TIP3   OH245231   6.330   2.964  12.165  0.3241 -0.0829 -0.5766
 7939TIP3    H145232   6.372   3.019  12.099 -2.2278  2.0612 -0.5588
 7939TIP3    H245233   6.356   3.002  12.249 -0.1932  0.1271 -0.5100
 7940TIP3   OH245234   1.346   5.453  17.286 -0.3963  0.2695 -0.6980
 7940TIP3    H145235   1.439   5.434  17.274 -0.1288  0.3496  1.0835
 7940TIP3    H245236   1.308   5.372  17.319 -0.9361  0.3068 -1.1965
 7941TIP3   OH245237   1.961   5.314   1.312 -0.2754 -0.4936 -0.0578
 7941TIP3    H145238   2.000   5.256   1.377 -1.6780 -0.7488  0.5943
 7941TIP3    H245239   1.935   5.256   1.241 -1.9810 -0.7505  0.7396
 7942TIP3   OH245240   0.822   2.417   5.799  0.6259  0.3708 -0.3469
 7942TIP3    H145241   0.877   2.339   5.811 -0.4792 -0.2900  0.5936
 7942TIP3    H245242   0.789   2.409   5.710  1.8095  0.6389 -0.8372
 7943TIP3   OH245243   6.528   4.745   0.490  0.2225  0.2228  0.2902
 7943TIP3    H145244   6.465   4.715   0.556 -1.2923  1.3579 -0.5670
 7943TIP3    H245245   6.479   4.742   0.407  0.5038  3.2095 -0.1125
 7944TIP3   OH245246   1.656   6.004  15.221 -0.7337  0.0824 -0.1834
 7944TIP3    H145247   1.632   5.914  15.242  1.1418 -0.6006 -0.6708
 7944TIP3    H245248   1.610   6.022  15.139 -1.4489 -0.2741  0.1296
 7945TIP3   OH245249   2.398   4.315   5.008 -0.2203  0.2610  0.3258
 7945TIP3    H145250   2.478   4.364   4.990 -1.1868  1.0345 -2.3185
 7945TIP3    H245251   2.391   4.314   5.104  2.3416  1.1033  0.5883
 7946TIP3   OH245252   2.208   3.844   3.735 -0.4372 -0.1587  0.8573
 7946TIP3    H145253   2.210   3.935   3.765  1.6316  0.5811 -1.2116
 7946TIP3    H245254   2.300   3.817   3.734 -0.8089 -1.5183 -0.6516
 7947TIP3   OH245255   3.312   4.418  12.225  0.0286  0.1341  0.1548
 7947TIP3    H145256   3.357   4.501  12.208  0.1511 -0.3034 -1.9246
 7947TIP3    H245257   3.367   4.352  12.183 -2.1417 -0.4895 -1.9205
 7948TIP3   OH245258   0.387   5.226   4.608  0.5156 -0.4557  0.1084
 7948TIP3    H145259   0.370   5.246   4.516  1.0396  2.5273  0.5605
 7948TIP3    H245260   0.445   5.149   4.605  1.0615 -0.0398 -2.0771
 7949TIP3   OH245261   1.198   4.123   0.034  0.1369 -0.5074 -0.1653
 7949TIP3    H145262   1.222   4.066  -0.039 -2.2264  0.8953 -2.2234
 7949TIP3    H245263   1.211   4.212  -0.000 -2.2469  0.2017  0.5855
 7950TIP3   OH245264   1.239   1.573  17.229  0.2240 -0.0676 -0.2758
 7950TIP3    H145265   1.208   1.513  17.161 -0.1002 -1.0237  0.6902
 7950TIP3    H245266   1.321   1.534  17.259  0.1569  0.1270  0.1586
 7951TIP3   OH245267   6.194   4.884  15.248 -0.1118  0.4983  0.0589
 7951TIP3    H145268   6.208   4.802  15.296 -1.1070  0.3206  0.0572
 7951TIP3    H245269   6.225   4.865  15.159 -0.2511  0.1583  0.0822
 7952TIP3   OH245270   3.920   4.611  15.667 -0.1352  0.5097  0.2928
 7952TIP3    H145271   3.853   4.567  15.615  0.1144  0.9272 -0.3976
 7952TIP3    H245272   3.911   4.574  15.755 -0.4450 -0.3326 -0.0891
 7953TIP3   OH245273   1.703   2.051  15.812 -0.2308 -0.0820 -0.4414
 7953TIP3    H145274   1.797   2.063  15.826 -0.3076 -0.3403  0.3382
 7953TIP3    H245275   1.689   2.079  15.721  0.4166  0.9646 -0.2354
 7954TIP3   OH245276   2.217   0.839  16.235 -0.1325  0.3974  0.0644
 7954TIP3    H145277   2.228   0.899  16.162  1.1904  1.0938  0.8105
 7954TIP3    H245278   2.137   0.869  16.279 -1.6861 -0.7993 -1.7548
 7955TIP3   OH245279   2.431   3.525   3.853 -0.0911 -1.0257 -0.2548
 7955TIP3    H145280   2.356   3.492   3.804 -0.4395 -0.6743  0.0330
 7955TIP3    H245281   2.434   3.618   3.830 -0.2150 -0.8742  0.3307
 7956TIP3   OH245282   0.059   2.524  16.124  0.3008 -0.2635  0.1506
 7956TIP3    H145283   0.039   2.577  16.201 -1.0892 -1.0772  0.3882
 7956TIP3    H245284  -0.015   2.463  16.118  0.5325 -0.3981 -1.6647
 7957TIP3   OH245285   5.769   3.847   3.325  0.5603 -0.3900  0.0310
 7957TIP3    H145286   5.674   3.856   3.316  0.5196  0.2585  0.9301
 7957TIP3    H245287   5.784   3.752   3.331 -0.3715 -0.4584  2.7520
 7958TIP3   OH245288   3.324   4.921   4.048 -0.2265  0.4268  0.4184
 7958TIP3    H145289   3.232   4.896   4.038  0.0507 -0.4321 -0.0638
 7958TIP3    H245290   3.321   5.010   4.085 -1.2416  0.3297  0.5893
 7959TIP3   OH245291   4.241   2.798  15.438 -0.0513 -0.3206  0.7690
 7959TIP3    H145292   4.305   2.728  15.425 -0.2754 -0.4141  0.1542
 7959TIP3    H245293   4.189   2.770  15.513 -0.9663 -1.4289 -0.2459
 7960TIP3   OH245294   4.793   1.793   2.026  0.7561  0.1746 -0.0461
 7960TIP3    H145295   4.845   1.772   2.103  0.1247  0.2116  0.3942
 7960TIP3    H245296   4.816   1.726   1.962 -1.7246 -2.3654  1.5373
 7961TIP3   OH245297   5.027   4.681   2.846 -0.0158 -0.3325  0.1447
 7961TIP3    H145298   5.023   4.643   2.759  0.4556 -1.0903  0.4405
 7961TIP3    H245299   5.118   4.670   2.873 -0.4797 -1.5468  1.3460
 7962TIP3   OH245300   2.656   3.663  15.433 -0.0380  0.3169 -0.5179
 7962TIP3    H145301   2.595   3.589  15.429  0.5075 -0.2213  0.5908
 7962TIP3    H245302   2.678   3.681  15.342 -1.0913 -0.1103 -0.8773
 7963TIP3   OH245303   3.279   6.341  12.985  0.0795 -0.0239 -0.5855
 7963TIP3    H145304   3.195   6.295  12.987 -0.1423  0.3924  0.1265
 7963TIP3    H245305   3.256   6.433  13.001  0.4023  0.5339 -3.0034
 7964TIP3   OH245306   1.531   4.935  17.356 -0.0440 -0.1203 -0.3677
 7964TIP3    H145307   1.514   4.844  17.331  0.1125 -0.7463  1.6423
 7964TIP3    H245308   1.609   4.931  17.411 -1.0502  0.9447  1.2373
 7965TIP3   OH245309   1.710   5.809   2.130 -0.1745  0.6587  0.3336
 7965TIP3    H145310   1.651   5.884   2.141  0.6569  1.3103  0.3929
 7965TIP3    H245311   1.694   5.779   2.040 -1.8143 -0.2414  0.8753
 7966TIP3   OH245312   6.220   0.843  17.170 -0.1147 -0.1456 -0.0153
 7966TIP3    H145313   6.302   0.795  17.163  0.2491  0.5075 -0.3057
 7966TIP3    H245314   6.195   0.835  17.263  0.5034  0.0240  0.1695
 7967TIP3   OH245315   3.312   3.895   0.179  0.3292  0.5098  0.1000
 7967TIP3    H145316   3.372   3.842   0.232 -0.6597 -1.5481 -0.7344
 7967TIP3    H245317   3.230   3.896   0.229  0.1024  0.5550 -0.2698
 7968TIP3   OH245318   5.866   5.149   0.809  0.6147 -0.6967  0.4327
 7968TIP3    H145319   5.925   5.216   0.844 -1.0041 -0.8421  3.8761
 7968TIP3    H245320   5.789   5.197   0.779 -0.0981 -0.8757  1.9007
 7969TIP3   OH245321   1.697   1.596  12.912 -1.0358 -0.6276 -0.0952
 7969TIP3    H145322   1.651   1.673  12.877 -0.8434 -0.7944 -0.7373
 7969TIP3    H245323   1.650   1.574  12.992 -0.2494  1.0200  0.8730
 7970TIP3   OH245324   6.723   1.910   1.914  0.0991  0.0362  0.0984
 7970TIP3    H145325   6.760   1.946   1.833 -0.0171 -0.9795 -0.4238
 7970TIP3    H245326   6.680   1.829   1.887 -0.4035 -0.0518  1.0997
 7971TIP3   OH245327   2.507   4.853  11.298  0.0441  0.1665 -0.1568
 7971TIP3    H145328   2.498   4.822  11.208  1.1492  0.1248 -0.2665
 7971TIP3    H245329   2.553   4.937  11.290  1.3328 -0.4434  0.4216
 7972TIP3   OH245330   3.542   4.197  17.394  0.4335  0.4017  0.0554
 7972TIP3    H145331   3.600   4.153  17.456 -1.2875 -0.5307  1.0555
 7972TIP3    H245332   3.454   4.173  17.422 -0.4505 -1.0236 -3.4016
 7973TIP3   OH245333   1.206   3.930  13.976  0.2782  0.6950 -0.1535
 7973TIP3    H145334   1.176   4.017  14.004 -1.4198  0.1972 -0.3412
 7973TIP3    H245335   1.180   3.924  13.884  2.6471  0.9243 -0.9150
 7974TIP3   OH245336   2.783   6.433   4.173  0.5675  0.2444 -0.7603
 7974TIP3    H145337   2.735   6.413   4.093  0.4960  1.0960 -0.9477
 7974TIP3    H245338   2.773   6.528   4.184  1.8294  0.3814 -0.5718
 7975TIP3   OH245339   3.571   3.989   1.647 -0.3865  0.0843  0.1573
 7975TIP3    H145340   3.478   3.971   1.634 -0.3703 -0.0556  0.2350
 7975TIP3    H245341   3.584   3.978   1.741 -0.4025  0.6246  0.2274
 7976TIP3   OH245342   0.359   5.721   5.546 -0.6829 -0.1280  0.1298
 7976TIP3    H145343   0.267   5.749   5.552 -0.9204 -0.3111 -1.8355
 7976TIP3    H245344   0.380   5.730   5.453  1.0989 -0.7296  0.4436
 7977TIP3   OH245345   4.345   6.316   1.585  0.0063  0.2197  0.0738
 7977TIP3    H145346   4.274   6.379   1.595  0.8693  1.3453 -0.7077
 7977TIP3    H245347   4.357   6.309   1.490  1.5581  0.7655  0.2050
 7978TIP3   OH245348   0.704   0.436  12.769  0.4001 -0.3766  0.5484
 7978TIP3    H145349   0.693   0.359  12.712  3.1638  0.0563 -0.7258
 7978TIP3    H245350   0.759   0.405  12.840 -0.5866 -0.1485  1.4427
 7979TIP3   OH245351   5.552   2.642  12.443  0.4039  0.8192 -0.0501
 7979TIP3    H145352   5.604   2.623  12.365 -0.1245  0.1648 -0.2511
 7979TIP3    H245353   5.501   2.720  12.420 -0.3216  0.1847 -0.6504
 7980TIP3   OH245354   1.477   1.850   0.620  0.0434 -0.5152  0.3111
 7980TIP3    H145355   1.433   1.932   0.643 -0.2575 -0.3938 -0.6561
 7980TIP3    H245356   1.509   1.816   0.703  1.1098  1.1286  0.6128
 7981TIP3   OH245357   2.408   1.554   0.069 -0.0729  0.2514  0.1470
 7981TIP3    H145358   2.472   1.598   0.013 -0.4934 -1.4747 -1.8288
 7981TIP3    H245359   2.373   1.624   0.125  1.5810  1.7460 -0.5808
 7982TIP3   OH245360   4.912   5.989  12.752  0.9031  0.5670 -0.0775
 7982TIP3    H145361   4.891   5.981  12.845 -0.0955 -0.2215 -0.3428
 7982TIP3    H245362   4.916   6.083  12.736  0.2342  0.7233  0.5948
 7983TIP3   OH245363   5.496   5.541  15.867 -1.0785 -0.0057  0.4564
 7983TIP3    H145364   5.425   5.544  15.930  0.4489  2.0543  2.2528
 7983TIP3    H245365   5.479   5.614  15.808 -0.4086  0.6297  1.0215
 7984TIP3   OH245366   5.644   0.847   0.847 -0.1534 -0.1786  0.0344
 7984TIP3    H145367   5.619   0.792   0.921  2.1972 -0.3026  0.8388
 7984TIP3    H245368   5.738   0.861   0.859 -0.0937  1.4606 -1.8593
 7985TIP3   OH245369   5.586   2.863   4.997 -0.2610 -0.0390  0.2222
 7985TIP3    H145370   5.543   2.925   4.937 -2.1758  1.8748  3.2982
 7985TIP3    H245371   5.532   2.784   4.993 -0.9071  0.4007  0.0614
 7986TIP3   OH245372   4.874   2.228   0.374 -0.2895  0.1327  0.5109
 7986TIP3    H145373   4.905   2.318   0.372  0.4092 -0.1064 -0.4107
 7986TIP3    H245374   4.946   2.179   0.415 -0.4948 -0.0618  0.6436
 7987TIP3   OH245375   2.355   6.353   4.216 -0.6702  0.1851 -0.1438
 7987TIP3    H145376   2.303   6.344   4.136 -0.9271  3.5295 -0.4989
 7987TIP3    H245377   2.425   6.414   4.192  1.5055 -1.5926  1.2570
 7988TIP3   OH245378   0.784   0.607   4.852  0.1526 -0.0921 -0.4270
 7988TIP3    H145379   0.795   0.688   4.802  1.6188 -0.6913 -1.1391
 7988TIP3    H245380   0.740   0.634   4.933  0.0746  1.3095 -0.9156
 7989TIP3   OH245381   5.248   2.896   5.773 -0.4966  0.3036 -0.1223
 7989TIP3    H145382   5.344   2.896   5.778 -0.4274  0.1392 -1.1670
 7989TIP3    H245383   5.224   2.988   5.782 -0.3338  0.2247  1.3531
 7990TIP3   OH245384   0.598   2.318   0.704 -0.4329  0.1936 -0.2918
 7990TIP3    H145385   0.556   2.349   0.624 -0.4881  1.7409  0.3042
 7990TIP3    H245386   0.639   2.235   0.679 -0.1387  0.8253 -2.0211
 7991TIP3   OH245387   2.190   2.272   4.653  0.8017  0.3781  0.1338
 7991TIP3    H145388   2.181   2.216   4.575  2.3953 -0.4853  0.5154
 7991TIP3    H245389   2.187   2.210   4.726 -2.6677  1.3550  0.9810
 7992TIP3   OH245390   0.888   0.613  11.376  0.1760 -0.0468 -0.3630
 7992TIP3    H145391   0.970   0.564  11.384 -0.1161 -0.2306  2.2562
 7992TIP3    H245392   0.824   0.547  11.346 -0.3203 -1.6254  3.5782
 7993TIP3   OH245393   3.618   6.014  15.243 -0.1319  0.2641 -0.4202
 7993TIP3    H145394   3.671   5.942  15.208  1.1878  1.3683 -0.7561
 7993TIP3    H245395   3.626   6.083  15.178  0.2902  1.4470  0.8469
 7994TIP3   OH245396   6.687   2.810   0.792 -0.1976 -0.1112 -0.2170
 7994TIP3    H145397   6.664   2.861   0.715 -1.3537 -1.0104 -0.5011
 7994TIP3    H245398   6.636   2.729   0.783  0.4680 -0.6865  0.9483
 7995TIP3   OH245399   1.985   3.972  12.017  0.6273 -0.3463 -0.1977
 7995TIP3    H145400   2.030   3.932  11.943  1.2732 -0.1116  0.0650
 7995TIP3    H245401   2.052   4.021  12.063  0.6371 -1.8676  1.5185
 7996TIP3   OH245402   6.093   1.075   3.729  0.4002  0.0629  0.8111
 7996TIP3    H145403   6.136   1.160   3.718 -0.4188  0.3830 -0.0669
 7996TIP3    H245404   6.092   1.061   3.824  1.2152  0.6711  0.9249
 7997TIP3   OH245405   4.457   0.279   0.185 -0.3688 -0.2742  0.2430
 7997TIP3    H145406   4.402   0.201   0.194  0.0714 -0.4984  1.0805
 7997TIP3    H245407   4.398   0.345   0.148 -0.3969 -1.3614 -1.8038
 7998TIP3   OH245408   0.996   6.618   1.719 -0.0644  0.1417  0.4443
 7998TIP3    H145409   1.012   6.680   1.648 -0.1135  0.5084  0.7499
 7998TIP3    H245410   0.976   6.535   1.675 -4.9873  1.3783 -0.2043
 7999TIP3   OH245411   2.281   0.686   0.665 -0.1372 -0.1989 -0.0158
 7999TIP3    H145412   2.250   0.669   0.754 -0.8846 -0.3863 -0.3031
 7999TIP3    H245413   2.216   0.645   0.608 -0.2303  0.8035 -0.6702
 8000TIP3   OH245414   5.905   3.599  12.956 -0.1484 -0.5253  0.1131
 8000TIP3    H145415   5.968   3.624  12.888  0.9755 -0.9501  0.9732
 8000TIP3    H245416   5.865   3.518  12.922  1.0746 -1.2505  0.3474
 8001TIP3   OH245417   0.562   2.315   3.968 -0.4414 -0.4640 -0.0773
 8001TIP3    H145418   0.585   2.233   4.012 -1.1023 -0.2478  0.6828
 8001TIP3    H245419   0.525   2.369   4.037  1.1898  0.9850 -0.2698
 8002TIP3   OH245420   1.981   6.316  11.622  0.5115  0.4575  0.0020
 8002TIP3    H145421   2.020   6.285  11.704  0.2528 -1.8296 -0.6781
 8002TIP3    H245422   2.014   6.257  11.555  0.3675  2.0011 -1.5193
 8003TIP3   OH245423   2.927   4.383  16.495  0.7240 -0.7653  0.0308
 8003TIP3    H145424   2.878   4.373  16.414 -0.5223 -1.0182  0.7896
 8003TIP3    H245425   2.997   4.318  16.490  1.5118  0.1455 -1.4158
 8004TIP3   OH245426   1.917   1.733  15.388 -0.1806 -0.2373 -0.8140
 8004TIP3    H145427   2.003   1.748  15.428 -1.3518 -0.0889  1.8398
 8004TIP3    H245428   1.937   1.686  15.307  2.2928 -3.4861  1.3970
 8005TIP3   OH245429   1.071   2.179   5.433  0.2381  0.2660 -0.3319
 8005TIP3    H145430   1.116   2.095   5.442 -0.4574 -0.0311  0.5414
 8005TIP3    H245431   0.993   2.170   5.488 -0.8516  0.7869 -1.7400
 8006TIP3   OH245432   1.164   0.358  16.986  0.1235 -0.4012  0.1530
 8006TIP3    H145433   1.231   0.398  16.931  1.0036 -3.1091 -0.9261
 8006TIP3    H245434   1.120   0.296  16.929 -0.7958 -1.3509  1.8122
 8007TIP3   OH245435   5.638   0.770   1.418  0.4470 -0.1367 -0.2854
 8007TIP3    H145436   5.593   0.732   1.494 -0.6189  4.0714  1.4985
 8007TIP3    H245437   5.729   0.745   1.429  0.0742 -0.8494  1.5533
 8008TIP3   OH245438   0.055   1.117  14.745  0.2300 -0.4620 -0.2548
 8008TIP3    H145439   0.004   1.083  14.671  1.4530  0.1403 -1.4159
 8008TIP3    H245440   0.031   1.061  14.819 -2.6482  0.2375 -0.5501
 8009TIP3   OH245441   0.461   3.930   2.660 -0.0951 -0.2858 -0.4786
 8009TIP3    H145442   0.472   3.992   2.731  2.4578 -1.2624  0.0722
 8009TIP3    H245443   0.467   3.982   2.580  1.6040  0.2565 -0.0176
 8010TIP3   OH245444   2.550   3.828   4.509  0.1364  0.0815  0.6055
 8010TIP3    H145445   2.600   3.750   4.487 -0.5799 -0.4436  0.8234
 8010TIP3    H245446   2.531   3.869   4.425  0.5942  0.0775  0.4972
 8011TIP3   OH245447   1.759   2.009   0.749  0.5496  0.6420  0.3696
 8011TIP3    H145448   1.700   2.082   0.729  0.3195  0.7388  1.3101
 8011TIP3    H245449   1.769   1.961   0.667 -1.8430 -0.1044  0.4602
 8012TIP3   OH245450   0.513   5.119   3.504  0.1635  0.0444  0.6904
 8012TIP3    H145451   0.543   5.145   3.417 -2.0269 -1.2351 -0.5388
 8012TIP3    H245452   0.558   5.037   3.521 -0.8763 -0.7315 -0.1648
 8013TIP3   OH245453   3.778   5.883   0.665  0.0896 -0.5386  0.3775
 8013TIP3    H145454   3.778   5.870   0.760  1.0771 -0.3452  0.4160
 8013TIP3    H245455   3.686   5.896   0.642 -0.2651 -1.5171  1.1769
 8014TIP3   OH245456   6.293   1.638  15.511  0.2258  0.1433 -0.1730
 8014TIP3    H145457   6.273   1.634  15.605 -1.6635  1.0354 -0.5052
 8014TIP3    H245458   6.384   1.607  15.506  0.0301 -0.9825  1.8101
 8015TIP3   OH245459   2.146   0.298   1.711 -0.1869  0.0044 -0.3466
 8015TIP3    H145460   2.060   0.272   1.744  0.0741  0.6937  0.9805
 8015TIP3    H245461   2.154   0.253   1.627 -1.2012 -1.3123  0.2069
 8016TIP3   OH245462   1.890   3.289   2.705  0.5930  0.3722 -0.5498
 8016TIP3    H145463   1.914   3.246   2.787  0.0326  0.5638 -0.2783
 8016TIP3    H245464   1.794   3.284   2.703  0.5595  1.0758 -0.8062
 8017TIP3   OH245465   1.289   0.671  11.871 -0.3776  0.2403 -0.4998
 8017TIP3    H145466   1.372   0.683  11.825  0.6148 -2.0411  0.5088
 8017TIP3    H245467   1.222   0.684  11.804  0.7351  2.4242 -1.2664
 8018TIP3   OH245468   1.760   5.602   4.291  0.9854 -0.1348 -0.0961
 8018TIP3    H145469   1.779   5.540   4.220 -1.4944 -0.3563 -0.6937
 8018TIP3    H245470   1.760   5.687   4.248 -2.4293 -0.4226 -0.9738
 8019TIP3   OH245471   0.394   4.099   2.475  0.6644  0.4685 -0.2042
 8019TIP3    H145472   0.303   4.091   2.445  0.2279  0.1887  1.1248
 8019TIP3    H245473   0.437   4.151   2.407 -0.1678 -0.4722 -1.5059
 8020TIP3   OH245474   0.592   3.609  15.902  0.0530 -0.3375 -0.3140
 8020TIP3    H145475   0.616   3.690  15.857 -0.4592 -0.6356 -1.1401
 8020TIP3    H245476   0.534   3.563  15.841 -1.2429 -0.4251  0.9099
 8021TIP3   OH245477   5.771   6.672   1.786 -0.6569  0.3829  0.1610
 8021TIP3    H145478   5.836   6.727   1.830 -0.0152 -0.4532  0.2611
 8021TIP3    H245479   5.787   6.687   1.693  0.1814 -0.3967  0.1746
 8022TIP3   OH245480   6.649   0.811   3.477 -0.0796 -0.2883 -0.2285
 8022TIP3    H145481   6.684   0.896   3.505 -1.5574  0.3962 -0.3412
 8022TIP3    H245482   6.622   0.824   3.386 -1.7594 -0.3733  0.2214
 8023TIP3   OH245483   1.518   2.861   5.219 -0.0139  0.4461 -0.5313
 8023TIP3    H145484   1.516   2.776   5.265  0.4352  0.8178  0.1968
 8023TIP3    H245485   1.490   2.924   5.285 -0.4379  0.8581 -1.1020
 8024TIP3   OH245486   5.833   2.519  14.952  0.1973  0.0102  0.8295
 8024TIP3    H145487   5.888   2.578  14.900 -0.0147 -0.0731  0.5108
 8024TIP3    H245488   5.847   2.433  14.913 -0.2938  0.0183  0.6357
 8025TIP3   OH245489   0.519   2.821  14.633  0.6581 -0.4747  0.3276
 8025TIP3    H145490   0.456   2.749  14.644  0.2504 -0.1831 -0.0395
 8025TIP3    H245491   0.467   2.900  14.646  0.3575 -0.1228 -2.3841
 8026TIP3   OH245492   6.081   2.879  10.680  0.4670 -0.0761  0.1224
 8026TIP3    H145493   6.122   2.839  10.604 -0.9045 -1.2335 -0.0370
 8026TIP3    H245494   5.988   2.860  10.670  0.0213  1.4031  1.1135
 8027TIP3   OH245495   3.915   2.628  12.871 -0.5042  0.4769  0.0992
 8027TIP3    H145496   3.957   2.588  12.794  0.5300  1.9377 -0.1378
 8027TIP3    H245497   3.821   2.623  12.853 -0.3533 -0.8009 -0.4264
 8028TIP3   OH245498   1.394   2.554  12.886 -0.0337 -0.2384 -0.5651
 8028TIP3    H145499   1.478   2.542  12.841 -0.7242  0.2676 -2.0269
 8028TIP3    H245500   1.404   2.504  12.967  0.9735 -1.7887 -1.5881
 8029TIP3   OH245501   3.535   4.000  16.454  0.2620 -0.8838 -0.3014
 8029TIP3    H145502   3.478   4.028  16.526  0.9890 -0.3632  0.0767
 8029TIP3    H245503   3.562   3.912  16.479 -0.3159 -1.1048 -0.4437
 8030TIP3   OH245504   2.026   6.098   0.735 -0.0149  0.1021 -0.1050
 8030TIP3    H145505   1.967   6.076   0.662  0.5420  1.0406 -0.8583
 8030TIP3    H245506   2.021   6.022   0.793 -2.8183  0.5795  0.4175
 8031TIP3   OH245507   5.910   5.818   3.743  0.5293 -0.0336  0.7134
 8031TIP3    H145508   5.899   5.911   3.765 -0.6911  0.1735 -0.6232
 8031TIP3    H245509   5.933   5.776   3.826 -1.4553  1.0588  1.8826
 8032TIP3   OH245510   0.881   6.335  11.461 -0.1928 -0.2643 -0.7138
 8032TIP3    H145511   0.938   6.397  11.505 -2.0467  1.1128 -0.1202
 8032TIP3    H245512   0.894   6.351  11.368 -0.3085  0.6996 -0.5672
 8033TIP3   OH245513   3.634   0.626   5.938  0.1973 -0.6094 -0.5985
 8033TIP3    H145514   3.657   0.534   5.940  2.6794 -0.0450  0.3066
 8033TIP3    H245515   3.716   0.672   5.954 -1.4404  1.6961  2.1488
 8034TIP3   OH245516   1.405   1.387  15.434  0.2163 -1.0101 -0.0689
 8034TIP3    H145517   1.500   1.397  15.436  0.2123 -0.7536 -0.8567
 8034TIP3    H245518   1.386   1.351  15.348 -0.4310 -0.7489 -0.0452
 8035TIP3   OH245519   5.264   1.465   3.852  0.4640 -0.5328  0.4112
 8035TIP3    H145520   5.188   1.465   3.794 -2.2356 -3.0110  3.5675
 8035TIP3    H245521   5.275   1.557   3.877 -0.3143  0.1151 -1.4481
 8036TIP3   OH245522   1.188   4.367  17.317 -0.1694  0.1444 -0.4017
 8036TIP3    H145523   1.177   4.352  17.223 -0.3522 -2.4497 -0.0174
 8036TIP3    H245524   1.128   4.440  17.336 -0.4226  0.4650 -2.2005
 8037TIP3   OH245525   4.347   5.426   0.749  0.2393 -0.2904  0.1802
 8037TIP3    H145526   4.373   5.516   0.728 -0.4256 -0.3158 -0.7951
 8037TIP3    H245527   4.411   5.371   0.704  0.1120 -0.3125  0.0236
 8038TIP3   OH245528   3.576   5.850  13.428 -0.0294  0.1678 -0.0160
 8038TIP3    H145529   3.560   5.886  13.341  0.8620  3.4142  1.0240
 8038TIP3    H245530   3.500   5.876  13.479  0.1293 -0.4399  0.5525
 8039TIP3   OH245531   4.598   0.474   1.737 -0.1140  0.2613 -0.1247
 8039TIP3    H145532   4.510   0.486   1.773 -0.3013 -0.0398 -0.4724
 8039TIP3    H245533   4.606   0.379   1.725 -0.0667  0.3557 -0.8899
 8040TIP3   OH245534   6.540   6.641  13.016  0.3052  0.4235  0.5802
 8040TIP3    H145535   6.479   6.619  12.945 -0.3681  0.6152  1.0831
 8040TIP3    H245536   6.500   6.602  13.094 -0.1189  2.0791  1.2349
 8041TIP3   OH245537   4.316   1.295  11.566 -0.4616  0.1673  0.4899
 8041TIP3    H145538   4.324   1.297  11.662 -1.0270 -1.7743  0.6137
 8041TIP3    H245539   4.386   1.353  11.536 -0.2987  0.8611  2.0771
 8042TIP3   OH245540   2.789   4.863  14.942  0.2649 -0.2094 -0.2993
 8042TIP3    H145541   2.716   4.827  14.991  0.9313 -1.5575 -0.2607
 8042TIP3    H245542   2.796   4.954  14.972 -1.0165 -0.2304  0.1017
 8043TIP3   OH245543   2.782   2.448  11.245  0.0696  0.0029  0.8258
 8043TIP3    H145544   2.830   2.515  11.197  1.0788 -0.6752  0.8586
 8043TIP3    H245545   2.692   2.455  11.212 -0.1823  2.2668  1.8233
 8044TIP3   OH245546   3.514   2.789  15.031  0.0184 -0.4142  0.0606
 8044TIP3    H145547   3.520   2.856  14.963  1.2948 -1.1302 -0.5836
 8044TIP3    H245548   3.440   2.734  15.005 -0.5418  0.2862  0.1705
 8045TIP3   OH245549   3.506   0.229   2.659 -0.3633  0.0846  0.1367
 8045TIP3    H145550   3.476   0.207   2.748  0.1299  2.6977  1.0421
 8045TIP3    H245551   3.600   0.242   2.668  0.4516 -3.2687 -1.6701
 8046TIP3   OH245552   4.057   3.376   4.168 -0.4359 -0.2797 -0.0529
 8046TIP3    H145553   4.035   3.284   4.156 -1.3062 -0.0778 -0.0146
 8046TIP3    H245554   3.975   3.418   4.193 -0.0373  0.5004 -0.0237
 8047TIP3   OH245555   2.657   3.766   1.470  0.0717  0.1447 -0.0210
 8047TIP3    H145556   2.685   3.677   1.494 -0.8495  0.1451  1.1621
 8047TIP3    H245557   2.701   3.823   1.533 -0.5159  0.3813  0.1805
 8048TIP3   OH245558   5.019   5.917   0.710  0.2911  0.1705 -0.1112
 8048TIP3    H145559   5.018   5.956   0.797 -1.9693  1.2942 -0.5717
 8048TIP3    H245560   5.107   5.934   0.677  0.9008  0.5092  1.5990
 8049TIP3   OH245561   5.026   1.820   5.801 -0.0727  0.2595  0.1439
 8049TIP3    H145562   4.969   1.884   5.758  0.2811 -0.1014 -0.8813
 8049TIP3    H245563   5.042   1.858   5.888 -0.8824  0.9488  0.0079
 8050TIP3   OH245564   6.149   3.949   1.008  0.2772 -0.4345  0.1447
 8050TIP3    H145565   6.207   3.873   0.998 -1.8980 -2.2040  0.2483
 8050TIP3    H245566   6.082   3.937   0.942 -0.5216  1.0458  0.6356
 8051TIP3   OH245567   0.971   4.217   5.353  0.2626  0.3498 -0.1022
 8051TIP3    H145568   1.015   4.211   5.437  0.0062 -1.5807 -0.0664
 8051TIP3    H245569   1.033   4.179   5.290 -0.3847 -0.2053 -0.4222
 8052TIP3   OH245570   5.585   4.387  13.691  0.1669  0.0162 -0.1748
 8052TIP3    H145571   5.547   4.390  13.603  0.5814  1.6836 -0.3263
 8052TIP3    H245572   5.520   4.431  13.747  0.3124 -0.2340  0.1966
 8053TIP3   OH245573   4.763   3.013   0.744 -0.5734  0.1707 -0.4177
 8053TIP3    H145574   4.853   3.034   0.769 -0.2700  1.1425 -2.2124
 8053TIP3    H245575   4.757   3.037   0.652 -2.0992 -1.7609 -0.8975
 8054TIP3   OH245576   2.292   0.474  11.878 -0.0196  0.3709 -0.1375
 8054TIP3    H145577   2.386   0.460  11.864  0.1482  1.1426  0.1651
 8054TIP3    H245578   2.266   0.535  11.808 -0.3088  0.1069 -0.2617
 8055TIP3   OH245579   3.782   0.064   3.114  0.4192  0.4883 -0.1257
 8055TIP3    H145580   3.747   0.063   3.203  1.4999 -3.3434  0.4245
 8055TIP3    H245581   3.707   0.045   3.058  0.3262 -0.4374  0.3087
 8056TIP3   OH245582   6.516   4.034  13.159  0.0185 -0.0553  0.5573
 8056TIP3    H145583   6.432   4.073  13.134  0.5539  2.4320  2.2668
 8056TIP3    H245584   6.581   4.083  13.109  0.5597 -0.9692  0.3473
 8057TIP3   OH245585   6.724   5.202   1.454  0.1405  0.0701  0.1295
 8057TIP3    H145586   6.637   5.222   1.420  0.6550  0.8073 -0.8112
 8057TIP3    H245587   6.711   5.189   1.548 -1.0525 -0.3336 -0.0770
 8058TIP3   OH245588   6.058   0.771  15.658 -0.1918  0.1245 -0.2159
 8058TIP3    H145589   6.080   0.768  15.751 -0.1471  0.0668 -0.2285
 8058TIP3    H245590   5.967   0.743  15.654 -0.2781  0.3984 -0.1593
 8059TIP3   OH245591   5.915   2.494   6.200 -0.8850 -0.0751  0.0069
 8059TIP3    H145592   5.961   2.577   6.195  3.0713 -1.7878  2.8386
 8059TIP3    H245593   5.831   2.515   6.240  0.0502  2.5450  0.7616
 8060TIP3   OH245594   5.093   3.872   5.809 -0.0249  0.3887 -0.1262
 8060TIP3    H145595   5.106   3.919   5.726 -0.2881 -0.1694 -0.4872
 8060TIP3    H245596   5.166   3.900   5.864  0.9053 -0.2374 -1.0024
 8061TIP3   OH245597   1.192   3.911   5.381  0.2773  0.2206 -0.1803
 8061TIP3    H145598   1.162   3.838   5.436  0.4344  0.0884 -0.2701
 8061TIP3    H245599   1.287   3.908   5.386  0.2883  0.3163 -0.3198
 8062TIP3   OH245600   3.414   1.941   5.228 -0.4169  0.2227 -0.0061
 8062TIP3    H145601   3.367   2.025   5.229 -0.0919  0.4314 -1.0829
 8062TIP3    H245602   3.464   1.941   5.310 -0.8769  0.8104  0.2856
 8063TIP3   OH245603   2.149   4.346  16.397 -0.2631 -0.2688  0.8386
 8063TIP3    H145604   2.194   4.269  16.431  0.7598 -0.1658 -0.1816
 8063TIP3    H245605   2.190   4.420  16.443  0.1604 -0.2206  0.3983
 8064TIP3   OH245606   2.554   4.566  16.525  0.9080  0.3913  0.3623
 8064TIP3    H145607   2.482   4.505  16.540  0.6483  0.8826  1.1457
 8064TIP3    H245608   2.549   4.587  16.431 -1.2746  2.0124  0.7612
 8065TIP3   OH245609   1.075   2.803  11.571 -0.2937 -0.1551  0.3980
 8065TIP3    H145610   1.145   2.856  11.610  1.1611 -2.0349  0.4897
 8065TIP3    H245611   1.071   2.833  11.480  1.7045 -1.0041 -0.0116
 8066TIP3   OH245612   5.072   4.311  12.479 -0.1779  0.0397  0.0195
 8066TIP3    H145613   5.018   4.243  12.440 -0.0485  0.0642 -0.2063
 8066TIP3    H245614   5.162   4.281  12.465 -0.1161  0.3135 -0.1871
 8067TIP3   OH245615   2.503   0.754  12.706 -0.4591 -0.4902 -0.2212
 8067TIP3    H145616   2.525   0.843  12.732  0.5630 -1.0158  0.7917
 8067TIP3    H245617   2.555   0.739  12.627 -1.9327  0.3636 -1.4142
 8068TIP3   OH245618   6.681   3.331  15.385  0.3732  0.1903  0.1707
 8068TIP3    H145619   6.719   3.296  15.466  2.7082  0.6955 -0.6221
 8068TIP3    H245620   6.630   3.258  15.350  0.2886 -0.4225  1.4973
 8069TIP3   OH245621   5.777   1.901  12.378  0.1318 -0.3287 -0.1309
 8069TIP3    H145622   5.734   1.838  12.320 -0.8430  1.0045 -0.9189
 8069TIP3    H245623   5.858   1.924  12.333  0.2684 -0.6619 -0.0591
 8070TIP3   OH245624   5.054   2.121  11.491 -0.5367 -0.3360  0.1330
 8070TIP3    H145625   5.059   2.144  11.398  0.6143  0.5023  0.3842
 8070TIP3    H245626   5.105   2.041  11.499 -2.6823 -1.8522 -0.3451
 8071TIP3   OH245627   4.239   6.684  12.276 -0.3840  0.0875  0.1468
 8071TIP3    H145628   4.224   6.778  12.286 -0.2047  0.1823 -0.4869
 8071TIP3    H245629   4.248   6.652  12.366  0.5439  0.8366  0.3312
 8072TIP3   OH245630   0.220   1.358   3.404  0.3617  0.2838 -0.0928
 8072TIP3    H145631   0.206   1.282   3.347 -0.7576 -2.8387  3.8902
 8072TIP3    H245632   0.308   1.388   3.382 -0.3746  0.1326 -4.1013
 8073TIP3   OH245633   5.353   5.028   3.618 -0.0440 -0.2629 -0.2505
 8073TIP3    H145634   5.337   5.031   3.524 -2.2195  1.1570  0.0897
 8073TIP3    H245635   5.357   5.119   3.645  1.6925 -0.6284  0.9165
 8074TIP3   OH245636   2.051   2.490  13.595 -0.0901 -0.3347  0.7948
 8074TIP3    H145637   2.018   2.574  13.562  2.2855  0.3281 -0.0532
 8074TIP3    H245638   2.026   2.490  13.687  0.4047  1.6234  0.9751
 8075TIP3   OH245639   0.148   2.536  16.676  0.0511  0.7536 -0.1408
 8075TIP3    H145640   0.222   2.582  16.636 -0.5075  0.3951 -1.6541
 8075TIP3    H245641   0.188   2.481  16.744  1.5015 -0.9952 -2.2523
 8076TIP3   OH245642   0.101   2.788  16.053  0.2388 -1.4576  0.3677
 8076TIP3    H145643   0.112   2.708  16.002  0.7614  0.1202 -2.1869
 8076TIP3    H245644   0.010   2.813  16.040  1.0339  0.4665 -2.4080
 8077TIP3   OH245645   4.453   4.538  13.253 -0.1335 -0.3472  0.1022
 8077TIP3    H145646   4.450   4.551  13.158 -2.3409  1.4752  0.3233
 8077TIP3    H245647   4.366   4.565  13.283  0.1767 -1.7955  2.5611
 8078TIP3   OH245648   2.834   0.510  11.237 -0.0984 -0.3066 -0.3633
 8078TIP3    H145649   2.911   0.514  11.182  0.5732 -0.1189  0.5603
 8078TIP3    H245650   2.836   0.421  11.275  0.9364  0.4114  1.3931
 8079TIP3   OH245651   5.842   2.322  14.006 -0.1312  0.0732 -0.0248
 8079TIP3    H145652   5.813   2.232  14.019  0.6799 -0.3939 -1.2621
 8079TIP3    H245653   5.763   2.375  14.021 -0.9588 -0.9554 -0.6369
 8080TIP3   OH245654   4.825   1.981  15.097  0.1118  0.0466  1.1627
 8080TIP3    H145655   4.738   1.945  15.080  1.4693 -3.0689 -0.0858
 8080TIP3    H245656   4.835   2.051  15.033 -1.4202  0.4151  1.2908
 8081TIP3   OH245657   1.479   4.382  12.760 -0.0597 -0.4046  0.3076
 8081TIP3    H145658   1.441   4.306  12.804 -0.1976 -1.1549 -1.0617
 8081TIP3    H245659   1.566   4.391  12.800  0.4882 -2.0990 -0.3977
 8082TIP3   OH245660   3.432   1.977   1.708  0.1461 -0.1504  0.3085
 8082TIP3    H145661   3.475   1.983   1.623 -1.3721 -0.5747 -0.5260
 8082TIP3    H245662   3.475   1.903   1.751  0.6317 -0.2048 -0.2576
 8083TIP3   OH245663   3.602   1.656  14.208  0.0402  0.4654 -0.5194
 8083TIP3    H145664   3.651   1.602  14.146  1.1981  1.6425 -0.6752
 8083TIP3    H245665   3.662   1.671  14.280 -1.2364 -0.7524  0.8802
 8084TIP3   OH245666   1.111   2.619  14.943  0.5605  0.6502 -0.7260
 8084TIP3    H145667   1.111   2.667  14.860 -2.4822  0.8828 -0.6907
 8084TIP3    H245668   1.021   2.624  14.974  1.1114 -1.3562  1.5134
 8085TIP3   OH245669   4.288   6.700   3.679  0.0177 -0.2000 -0.2969
 8085TIP3    H145670   4.225   6.693   3.751 -0.2025  1.5567 -0.2723
 8085TIP3    H245671   4.301   6.794   3.668 -0.9752 -0.3234 -3.4460
 8086TIP3   OH245672   5.060   3.808  11.891  0.2026 -0.1551 -0.1381
 8086TIP3    H145673   5.099   3.740  11.946  2.4805 -0.5810 -2.1494
 8086TIP3    H245674   5.134   3.856  11.855 -1.1822  0.4621 -2.3747
 8087TIP3   OH245675   2.895   5.124  15.131 -0.2481  0.1315  0.1163
 8087TIP3    H145676   2.933   5.163  15.052 -0.9996 -0.6483 -0.6573
 8087TIP3    H245677   2.935   5.173  15.203  1.9327 -0.3934 -0.6426
 8088TIP3   OH245678   0.583   3.056  15.556 -0.1132 -0.5497  0.4267
 8088TIP3    H145679   0.629   3.110  15.491 -2.5813  1.2328 -0.0042
 8088TIP3    H245680   0.646   3.044  15.627  0.8270  2.3083  0.1954
 8089TIP3   OH245681   4.617   5.826  14.963  0.1109 -0.1540 -0.5190
 8089TIP3    H145682   4.608   5.881  14.886 -0.3942 -0.6505 -0.8221
 8089TIP3    H245683   4.530   5.828  15.004  0.3639  0.0781  0.0191
 8090TIP3   OH245684   1.788   6.477  16.689  0.1656  0.2356  0.0406
 8090TIP3    H145685   1.748   6.391  16.705  1.8867 -0.2564  2.2291
 8090TIP3    H245686   1.839   6.465  16.609 -2.3566  0.3204 -1.6855
 8091TIP3   OH245687   2.478   2.547   3.787 -0.7337  0.3154  0.5493
 8091TIP3    H145688   2.489   2.495   3.707 -1.4955  0.1233  0.5616
 8091TIP3    H245689   2.477   2.481   3.857  0.2624  0.5071  0.7590
 8092TIP3   OH245690   0.069   5.424  13.570  0.3214 -0.2813  0.1507
 8092TIP3    H145691   0.065   5.329  13.563 -2.1772 -0.2513  0.4318
 8092TIP3    H245692  -0.012   5.455  13.529  1.3318  1.7789 -0.4469
 8093TIP3   OH245693   5.550   3.707   2.452 -0.2948  0.5550 -0.5282
 8093TIP3    H145694   5.626   3.764   2.442  0.6416 -0.4347  0.5905
 8093TIP3    H245695   5.536   3.701   2.546 -0.5635 -0.7909 -0.6284
 8094TIP3   OH245696   0.152   3.411   3.555 -0.1738  0.8426  0.0066
 8094TIP3    H145697   0.203   3.345   3.508 -0.0850 -0.2704  1.5989
 8094TIP3    H245698   0.082   3.361   3.598 -1.1058  2.0164 -0.1140
 8095TIP3   OH245699   5.253   2.099  14.662 -0.0926 -0.2566  0.1641
 8095TIP3    H145700   5.282   2.060  14.580  1.7882 -1.2585  1.2313
 8095TIP3    H245701   5.329   2.147  14.694 -1.0586  0.8150  0.9290
 8096TIP3   OH245702   0.627   2.287  16.209  0.2100 -0.2701  0.2173
 8096TIP3    H145703   0.705   2.298  16.262  0.2339 -1.6140  0.4928
 8096TIP3    H245704   0.660   2.257  16.124  0.0306 -0.2921  0.1547
 8097TIP3   OH245705   0.337   4.360   4.462  0.2321  0.7611 -0.6851
 8097TIP3    H145706   0.343   4.292   4.395 -0.7025 -0.9117  0.8542
 8097TIP3    H245707   0.319   4.441   4.413  0.1599 -0.2877 -2.4684
 8098TIP3   OH245708   6.204   2.355   1.404 -0.5226  0.4179  0.0358
 8098TIP3    H145709   6.258   2.352   1.326  1.7604 -0.7827  1.5507
 8098TIP3    H245710   6.242   2.425   1.458 -1.2780  0.4173  0.5961
 8099TIP3   OH245711   5.809   1.722   0.690  0.2724  0.4622 -0.3495
 8099TIP3    H145712   5.852   1.801   0.659 -0.4441  1.5654  1.3414
 8099TIP3    H245713   5.717   1.732   0.665  0.2777 -0.1129 -0.6214
 8100TIP3   OH245714   4.043   1.664  16.462 -0.3496 -0.0151 -0.2333
 8100TIP3    H145715   3.948   1.667  16.452 -0.6312 -2.7338  0.7047
 8100TIP3    H245716   4.066   1.747  16.503 -2.4673  0.2712  0.4793
 8101TIP3   OH245717   6.152   2.524   0.439 -0.1166 -0.5480 -0.5329
 8101TIP3    H145718   6.090   2.451   0.435  0.0711 -0.8047  0.7674
 8101TIP3    H245719   6.136   2.573   0.358 -0.4155 -1.8796 -1.3301
 8102TIP3   OH245720   5.108   4.701   3.206  0.3831  0.3792 -0.0363
 8102TIP3    H145721   5.097   4.794   3.189  2.8964  0.7038 -0.1428
 8102TIP3    H245722   5.200   4.683   3.190  0.2395 -1.8914  1.1757
 8103TIP3   OH245723   6.018   0.135   4.745  0.1344  0.4606 -0.0322
 8103TIP3    H145724   6.053   0.222   4.765  1.5416 -0.2597  0.7759
 8103TIP3    H245725   6.039   0.122   4.653  1.7530  0.1820  0.3564
 8104TIP3   OH245726   1.759   0.671  11.797  0.0428  0.2491 -0.1486
 8104TIP3    H145727   1.763   0.730  11.722  0.4870 -1.0901 -1.2112
 8104TIP3    H245728   1.672   0.632  11.793  0.0820  0.1433  0.0112
 8105TIP3   OH245729   2.198   2.968  13.217 -0.3330  0.1464  0.1591
 8105TIP3    H145730   2.253   2.891  13.202  1.6013  1.3732  0.6705
 8105TIP3    H245731   2.188   3.007  13.130  0.3598  0.4010  0.1912
 8106TIP3   OH245732   0.207   3.632   4.004  0.0704  0.1806  0.3879
 8106TIP3    H145733   0.125   3.635   3.955  0.6344  0.4769 -0.5794
 8106TIP3    H245734   0.272   3.604   3.940  0.6322 -0.6172  1.2858
 8107TIP3   OH245735   5.070   6.121   1.584 -0.1125 -0.0159 -0.1953
 8107TIP3    H145736   4.988   6.071   1.585  0.2499 -0.6880 -1.5828
 8107TIP3    H245737   5.044   6.211   1.604 -1.0676 -0.3825  0.2449
 8108TIP3   OH245738   6.141   0.085   4.968  0.5762  0.7116 -0.5629
 8108TIP3    H145739   6.233   0.075   4.943  0.3636 -2.4413 -0.4835
 8108TIP3    H245740   6.094   0.085   4.884  0.3420 -3.5300 -0.6308
 8109TIP3   OH245741   0.306   1.302  11.638  0.7804  0.0621  0.0615
 8109TIP3    H145742   0.377   1.276  11.580 -1.1025  0.0855 -2.3839
 8109TIP3    H245743   0.259   1.221  11.657  0.7559  0.2150  0.6716
 8110TIP3   OH245744   2.553   0.294  13.341  0.3138 -0.0081 -0.6464
 8110TIP3    H145745   2.491   0.241  13.392 -0.1634  0.3814 -0.8207
 8110TIP3    H245746   2.582   0.362  13.402 -0.4392  0.6026 -0.9518
 8111TIP3   OH245747   3.207   6.165  13.563 -0.1114  0.1922 -0.3392
 8111TIP3    H145748   3.126   6.215  13.579 -1.8883 -2.5940 -0.0005
 8111TIP3    H245749   3.237   6.196  13.478 -0.9972  1.9496 -0.0755
 8112TIP3   OH245750   3.094   0.162  11.289 -0.0067  0.1653  0.3651
 8112TIP3    H145751   3.115   0.106  11.213 -2.9003 -0.1948 -0.2654
 8112TIP3    H245752   3.145   0.242  11.274  0.7013 -0.5217 -1.1338
 8113TIP3   OH245753   1.639   6.278   1.603 -0.0896 -0.0450 -0.1425
 8113TIP3    H145754   1.601   6.230   1.530 -1.0103  0.9080 -0.3184
 8113TIP3    H245755   1.567   6.288   1.665  0.6489 -0.7465  0.8610
 8114TIP3   OH245756   3.041   2.829  17.229 -0.0523  0.1845 -0.6422
 8114TIP3    H145757   3.123   2.809  17.273 -0.6590 -2.1206 -0.4339
 8114TIP3    H245758   2.975   2.828  17.299 -0.4929  0.3769 -1.0438
 8115TIP3   OH245759   1.163   3.219  16.019 -0.1078 -0.7787 -0.4020
 8115TIP3    H145760   1.181   3.139  15.969  1.4189  0.3073 -1.7271
 8115TIP3    H245761   1.250   3.253  16.041 -0.6746  1.0053 -0.7243
 8116TIP3   OH245762   1.032   3.275   5.546  0.5578 -0.5059  0.4114
 8116TIP3    H145763   1.033   3.281   5.450  1.0524  1.2520  0.4826
 8116TIP3    H245764   0.950   3.232   5.567 -0.8433  1.4150 -0.7484
 8117TIP3   OH245765   6.564   6.128  15.098 -0.2156  0.0255 -0.0229
 8117TIP3    H145766   6.596   6.203  15.046 -0.8488 -0.8497 -1.7326
 8117TIP3    H245767   6.469   6.137  15.096 -0.2349  0.2913  1.5088
 8118TIP3   OH245768   0.061   1.076  16.236  0.0753 -0.1428  0.2287
 8118TIP3    H145769   0.140   1.065  16.184 -0.7824 -0.0088 -1.1296
 8118TIP3    H245770   0.047   0.989  16.275  1.3548  0.0524  1.2369
 8119TIP3   OH245771   5.801   4.158   1.166  0.4298  0.5363 -0.4116
 8119TIP3    H145772   5.885   4.112   1.165  0.9088  1.3951 -0.8609
 8119TIP3    H245773   5.738   4.093   1.135  0.5903 -0.6893  1.6597
 8120TIP3   OH245774   2.304   3.570  12.933  0.2569 -0.6945  0.3813
 8120TIP3    H145775   2.326   3.605  12.847 -0.9850  1.7182  0.9511
 8120TIP3    H245776   2.361   3.616  12.994  0.0172 -1.1879  0.9978
 8121TIP3   OH245777   2.901   5.684   0.782 -0.2938 -0.3339 -0.5409
 8121TIP3    H145778   2.875   5.632   0.706 -0.6513 -0.6381 -0.2151
 8121TIP3    H245779   2.979   5.641   0.815  0.8194  0.7341 -1.6764
 8122TIP3   OH245780   2.077   0.217   2.943  0.5449  0.3419 -0.2857
 8122TIP3    H145781   2.026   0.146   2.981  0.6348  0.2990 -0.2436
 8122TIP3    H245782   2.168   0.194   2.963  0.5537  0.6561  0.0577
 8123TIP3   OH245783   5.827   0.009   2.338  0.0708 -0.0407  0.3546
 8123TIP3    H145784   5.836  -0.007   2.431 -0.0716 -0.3657  0.3134
 8123TIP3    H245785   5.741   0.049   2.328 -0.3175 -0.8885  0.2541
 8124TIP3   OH245786   5.790   4.770  12.619  0.3262  0.2040 -0.3782
 8124TIP3    H145787   5.826   4.780  12.707 -0.7544 -0.3635  0.1492
 8124TIP3    H245788   5.704   4.813  12.623  0.9351  1.6345 -1.6356
 8125TIP3   OH245789   1.130   2.025   1.278  0.9354 -0.4200  0.3574
 8125TIP3    H145790   1.040   2.011   1.248  0.6715  0.0522  0.9146
 8125TIP3    H245791   1.142   2.120   1.275  1.4267 -0.4810  0.2636
 8126TIP3   OH245792   4.046   0.769  16.452  0.2162  0.1210  0.3404
 8126TIP3    H145793   4.064   0.801  16.540  0.1576 -0.6167  0.6258
 8126TIP3    H245794   3.956   0.798  16.434  0.0724 -0.1045  0.6907
 8127TIP3   OH245795   6.620   1.872  14.590 -0.2134  0.4858 -1.2648
 8127TIP3    H145796   6.591   1.827  14.669  2.0714 -0.0287 -0.6215
 8127TIP3    H245797   6.572   1.955  14.589 -0.0021  0.6775  0.9062
 8128TIP3   OH245798   3.777   2.768  13.756  0.7456 -0.3753  0.4665
 8128TIP3    H145799   3.765   2.857  13.722 -0.3190 -0.7091 -0.0855
 8128TIP3    H245800   3.693   2.724  13.739  0.6692 -0.9963  2.2600
 8129TIP3   OH245801   1.511   6.542   1.385 -0.4934 -0.2696  0.2822
 8129TIP3    H145802   1.515   6.450   1.409 -0.4912 -0.4544 -0.3994
 8129TIP3    H245803   1.488   6.588   1.466 -1.4754 -0.9666  0.4082
 8130TIP3   OH245804   2.500   3.302  12.613  0.4786 -0.1202 -0.1502
 8130TIP3    H145805   2.426   3.289  12.553  1.2164  2.4941 -1.8156
 8130TIP3    H245806   2.480   3.246  12.688 -2.6384 -0.3430 -0.9865
 8131TIP3   OH245807   4.568   6.428  12.137 -0.1319 -0.5810  0.2430
 8131TIP3    H145808   4.533   6.365  12.074  0.7023 -0.3405 -0.4805
 8131TIP3    H245809   4.654   6.393  12.162  0.1046 -0.0093  0.2516
 8132TIP3   OH245810   3.538   5.736   3.281  0.0590  0.3583 -0.4187
 8132TIP3    H145811   3.562   5.820   3.320  2.1705  0.1607 -1.1514
 8132TIP3    H245812   3.533   5.754   3.187 -0.0145 -0.2203 -0.5284
 8133TIP3   OH245813   0.934   2.854   1.138  0.0830  0.5498 -0.5823
 8133TIP3    H145814   1.027   2.873   1.128 -0.3985  4.1444  0.2773
 8133TIP3    H245815   0.918   2.781   1.078  3.1949  0.6166 -1.6752
 8134TIP3   OH245816   3.301   3.473  10.413  0.2957 -0.6201  0.0477
 8134TIP3    H145817   3.289   3.378  10.423  1.7996 -1.5610 -4.5028
 8134TIP3    H245818   3.221   3.502  10.369 -0.5258  0.4987  2.1630
 8135TIP3   OH245819   4.708   6.118   3.459 -0.1089  0.7458 -0.2388
 8135TIP3    H145820   4.765   6.086   3.528 -2.2372 -1.3274  0.6992
 8135TIP3    H245821   4.635   6.159   3.504 -3.1590 -3.3635 -0.8162
 8136TIP3   OH245822   0.445   6.599  17.042  0.6075  0.3609  0.1440
 8136TIP3    H145823   0.491   6.527  16.997 -0.5349 -0.7782  0.7256
 8136TIP3    H245824   0.396   6.555  17.112 -1.1067  1.5604 -0.2556
 8137TIP3   OH245825   1.836   5.274  16.091 -0.2743  0.1707 -0.4875
 8137TIP3    H145826   1.748   5.312  16.090 -0.6167 -0.6088 -0.2960
 8137TIP3    H245827   1.866   5.285  16.181 -0.4054 -0.0855 -0.4120
 8138TIP3   OH245828   1.826   5.617  16.943  0.2730  0.2485 -0.5589
 8138TIP3    H145829   1.851   5.636  17.034 -1.2215  0.1860 -0.1200
 8138TIP3    H245830   1.797   5.526  16.945 -2.4797  1.0587 -0.4634
 8139TIP3   OH245831   2.950   1.506  11.684  0.4649  0.0194  0.1965
 8139TIP3    H145832   2.904   1.581  11.721 -1.0327 -1.2905  1.0829
 8139TIP3    H245833   2.902   1.429  11.714  2.4669 -1.3869  0.0826
 8140TIP3   OH245834   2.008   5.363   3.593 -0.4262 -0.7066  0.3825
 8140TIP3    H145835   1.983   5.313   3.670  2.1445 -2.2410  0.3039
 8140TIP3    H245836   2.002   5.300   3.520  1.0221 -0.3994 -0.0217
 8141TIP3   OH245837   1.323   6.612  13.512  0.5996 -0.2435 -0.2338
 8141TIP3    H145838   1.396   6.561  13.548 -0.6015 -2.8120 -1.1927
 8141TIP3    H245839   1.316   6.582  13.422 -2.0290 -0.5536  0.0142
 8142TIP3   OH245840   2.467   2.283   3.941 -0.4825 -0.7350  0.0820
 8142TIP3    H145841   2.396   2.244   3.890 -0.6044 -1.6527  0.9193
 8142TIP3    H245842   2.545   2.234   3.917 -0.4745 -0.9360  0.5086
 8143TIP3   OH245843   6.316   5.912   4.061 -0.0800 -0.3501  0.1899
 8143TIP3    H145844   6.318   5.994   4.109 -2.2346 -0.5724  0.7746
 8143TIP3    H245845   6.289   5.936   3.972 -4.4709 -0.5835  1.2111
 8144TIP3   OH245846   1.344   3.714  12.492  0.4005 -0.7054 -0.5448
 8144TIP3    H145847   1.317   3.672  12.411  0.4177 -1.1705 -0.3150
 8144TIP3    H245848   1.322   3.651  12.560 -1.0424  0.2981 -0.0214
 8145TIP3   OH245849   3.831   5.107  13.990 -0.1951 -0.1179  0.0512
 8145TIP3    H145850   3.807   5.186  13.941  1.4901 -0.1520 -0.9438
 8145TIP3    H245851   3.888   5.139  14.060 -3.2575  0.0335  2.6998
 8146TIP3   OH245852   6.121   2.944   5.543  0.5532 -0.5446 -0.3512
 8146TIP3    H145853   6.085   3.005   5.478  0.5588 -0.3780 -0.1991
 8146TIP3    H245854   6.159   2.874   5.491  2.0515  0.3993 -0.5965
 8147TIP3   OH245855   4.133   4.706   5.705 -0.4046  0.8826 -0.6640
 8147TIP3    H145856   4.055   4.653   5.723  0.0764  0.1500 -0.6932
 8147TIP3    H245857   4.201   4.666   5.759 -0.2519  2.0732  0.0600
 8148TIP3   OH245858   1.501   3.006  12.660  0.9573 -0.4640 -0.2749
 8148TIP3    H145859   1.478   3.052  12.741  2.1791 -0.9192  0.3597
 8148TIP3    H245860   1.584   3.046  12.633  1.4545 -1.5255 -0.3334
 8149TIP3   OH245861   1.372   1.782  14.364  0.5599  0.8468  0.1292
 8149TIP3    H145862   1.286   1.816  14.341 -0.5345 -1.2549  0.8657
 8149TIP3    H245863   1.390   1.714  14.299  0.2240 -0.8433  1.6922
 8150TIP3   OH245864   2.903   1.056  14.777  0.3984  0.3660  0.0543
 8150TIP3    H145865   2.860   1.075  14.860  1.3046  0.0363  0.6069
 8150TIP3    H245866   2.868   0.971  14.751 -0.6015  0.8958 -0.3930
 8151TIP3   OH245867   1.205   4.788  14.738  0.0979  0.8655 -0.1736
 8151TIP3    H145868   1.213   4.829  14.652 -0.3993 -1.5769 -1.4784
 8151TIP3    H245869   1.154   4.850  14.790  1.1498  2.7893 -1.3243
 8152TIP3   OH245870   1.051   2.313  16.724  0.7108 -0.1981  0.4269
 8152TIP3    H145871   0.964   2.275  16.721  0.1852  0.9971 -0.2619
 8152TIP3    H245872   1.107   2.250  16.679 -0.2525  0.0988 -1.2875
 8153TIP3   OH245873   3.678   2.738  16.408 -0.3756  0.4983 -0.5923
 8153TIP3    H145874   3.742   2.669  16.390  0.3251  1.2595 -1.1010
 8153TIP3    H245875   3.731   2.818  16.413 -1.3089  1.1592 -1.1399
 8154TIP3   OH245876   0.472   5.195   6.154  0.1173  0.1839  0.0384
 8154TIP3    H145877   0.507   5.110   6.125 -2.1771  0.1692 -3.3004
 8154TIP3    H245878   0.455   5.183   6.248  1.7915 -2.2792  0.1315
 8155TIP3   OH245879   0.257   3.358  16.687 -0.1690  0.6725 -0.8892
 8155TIP3    H145880   0.333   3.313  16.725 -0.6734 -0.1666 -0.8631
 8155TIP3    H245881   0.251   3.440  16.737  0.2605  0.4012 -0.3740
 8156TIP3   OH245882   5.496   0.607  16.846 -0.0151  0.4751 -0.2957
 8156TIP3    H145883   5.535   0.582  16.762  2.1585  1.3330  0.4103
 8156TIP3    H245884   5.468   0.697  16.834 -1.1684  0.1082 -0.5488
 8157TIP3   OH245885   3.858   0.340   3.157 -0.7859 -0.3660 -0.0968
 8157TIP3    H145886   3.771   0.357   3.193 -0.7741 -1.3728  0.4448
 8157TIP3    H245887   3.846   0.264   3.101  0.1525 -2.0258  1.8205
 8158TIP3   OH245888   0.488   5.743  13.494  0.0724  0.5539 -0.1435
 8158TIP3    H145889   0.526   5.696  13.568  1.1900  0.4693 -0.7477
 8158TIP3    H245890   0.398   5.762  13.521  0.0027 -0.7661  0.6388
 8159TIP3   OH245891   1.721   1.450  12.666  0.0962  0.4920 -0.2776
 8159TIP3    H145892   1.743   1.360  12.689 -0.2965  0.2689 -0.7451
 8159TIP3    H245893   1.721   1.497  12.749 -0.6143 -0.1417  0.1030
 8160TIP3   OH245894   2.363   2.062   4.761  0.7461 -0.2363  0.3043
 8160TIP3    H145895   2.347   1.968   4.757  2.0744 -0.5521  1.4126
 8160TIP3    H245896   2.358   2.091   4.670  0.1877 -1.3484 -0.0424
 8161TIP3   OH245897   6.522   5.485   1.730  0.0683  0.2552  0.1393
 8161TIP3    H145898   6.446   5.439   1.766 -0.1064  0.5761  0.1857
 8161TIP3    H245899   6.494   5.576   1.723  0.9135  0.6590  1.5209
 8162TIP3   OH245900   2.933   4.122   1.279 -0.3013 -0.6600  0.0071
 8162TIP3    H145901   2.905   4.170   1.201  0.8702 -2.0778 -1.3479
 8162TIP3    H245902   2.882   4.041   1.275  0.7561 -1.3402 -0.0779
 8163TIP3   OH245903   1.970   0.713   0.396  0.9305 -0.1121  0.1132
 8163TIP3    H145904   1.977   0.797   0.441 -0.7825  0.4681 -0.6346
 8163TIP3    H245905   1.996   0.732   0.306  1.7399 -0.6883  0.2025
 8164TIP3   OH245906   3.002   1.571   5.658 -0.1871  0.3625 -0.5455
 8164TIP3    H145907   2.924   1.516   5.656 -0.8290  1.2396 -0.2680
 8164TIP3    H245908   3.063   1.527   5.599  0.5106 -2.3579  1.9562
 8165TIP3   OH245909   6.272   3.667   1.210 -0.4068 -0.0056 -0.1263
 8165TIP3    H145910   6.283   3.723   1.287  1.6129 -0.1984 -0.2264
 8165TIP3    H245911   6.345   3.690   1.153  0.5007 -2.7140 -0.1706
 8166TIP3   OH245912   0.597   6.738   5.226 -0.4177  0.1851  0.0029
 8166TIP3    H145913   0.587   6.662   5.283 -0.5998 -0.2384 -0.5937
 8166TIP3    H245914   0.688   6.734   5.196 -0.8386 -0.6291 -1.2002
 8167TIP3   OH245915   1.616   5.455   0.665  0.0217 -0.4835  0.4723
 8167TIP3    H145916   1.704   5.492   0.654 -0.4142  0.7966  1.0403
 8167TIP3    H245917   1.567   5.486   0.589  0.0800 -1.2606  0.1169
 8168TIP3   OH245918   5.618   0.594   4.530 -0.3154  0.3735  0.3612
 8168TIP3    H145919   5.529   0.594   4.494  0.0480  1.0667 -0.5946
 8168TIP3    H245920   5.627   0.679   4.573  0.2917  0.8387 -0.6510
 8169TIP3   OH245921   4.421   1.844  16.138 -0.0052  0.2292  0.5025
 8169TIP3    H145922   4.358   1.786  16.095 -0.8706  2.0063 -0.7552
 8169TIP3    H245923   4.489   1.786  16.171 -1.9323 -1.7083  1.3126
 8170TIP3   OH245924   1.195   6.170   4.804 -0.0734  0.6080 -0.1439
 8170TIP3    H145925   1.246   6.129   4.734 -0.5727  1.0335 -0.7804
 8170TIP3    H245926   1.103   6.155   4.779 -0.2748 -0.0539  0.9246
 8171TIP3   OH245927   1.623   2.451  16.690 -0.5882 -0.2620  0.0685
 8171TIP3    H145928   1.635   2.504  16.611  1.4176  1.1150  1.2011
 8171TIP3    H245929   1.545   2.487  16.732 -0.8197 -0.0406 -0.5378
 8172TIP3   OH245930   2.750   3.549   4.959 -0.0586  0.3908 -0.2998
 8172TIP3    H145931   2.799   3.623   4.996 -0.1003 -0.0404  0.6280
 8172TIP3    H245932   2.787   3.538   4.871  2.1355 -0.4543  0.6665
 8173TIP3   OH245933   4.009   5.112  13.452 -1.0443  0.1459  0.0794
 8173TIP3    H145934   3.928   5.105  13.503 -0.3665  0.1514  1.2005
 8173TIP3    H245935   4.067   5.163  13.508 -0.9496  2.0310 -1.6077
 8174TIP3   OH245936   6.666   2.346   2.214 -0.2622  0.5873  0.9608
 8174TIP3    H145937   6.655   2.425   2.161 -0.2263  1.4505  2.1947
 8174TIP3    H245938   6.683   2.379   2.302  0.7913 -0.8024  1.3046
 8175TIP3   OH245939   1.150   1.363  13.101  0.8861  0.5682  0.1292
 8175TIP3    H145940   1.200   1.420  13.160  1.1488  0.2255  0.2424
 8175TIP3    H245941   1.212   1.342  13.031  1.1653 -0.5276  0.6968
 8176TIP3   OH245942   5.892   2.273  14.817  0.3521 -0.1217 -0.0425
 8176TIP3    H145943   5.985   2.252  14.807  0.4776 -0.4290  1.5519
 8176TIP3    H245944   5.852   2.242  14.735  1.6871  0.3392 -0.8995
 8177TIP3   OH245945   0.314   4.926   3.924 -0.9479 -0.1954 -0.0404
 8177TIP3    H145946   0.224   4.957   3.915 -0.9820 -0.6901 -1.7241
 8177TIP3    H245947   0.350   4.979   3.996 -2.3663  0.4716  0.2274
 8178TIP3   OH245948   0.004   6.283  14.376  0.6601  0.4434  0.9638
 8178TIP3    H145949   0.003   6.323  14.289 -1.1789  2.3395  1.7383
 8178TIP3    H245950   0.086   6.312  14.416  1.0074  0.4621  0.2371
 8179TIP3   OH245951   5.565   5.451   5.122 -0.4816  0.1185  0.0032
 8179TIP3    H145952   5.610   5.429   5.040 -2.1594  0.0162 -0.9572
 8179TIP3    H245953   5.482   5.490   5.093 -1.9761 -1.6581  1.6076
 8180TIP3   OH245954   5.477   5.592   1.672 -0.1636  0.0280 -0.1791
 8180TIP3    H145955   5.478   5.629   1.760  1.2397 -1.0461  0.2982
 8180TIP3    H245956   5.512   5.661   1.616 -0.1907  0.3945  0.2502
 8181TIP3   OH245957   1.220   4.519   5.172  0.6579  0.0722 -0.2839
 8181TIP3    H145958   1.222   4.511   5.268 -1.6632 -2.1585 -0.3028
 8181TIP3    H245959   1.220   4.428   5.141  0.2899  0.7270 -2.3611
 8182TIP3   OH245960   6.062   2.715   6.157 -0.1435  0.2398 -0.7368
 8182TIP3    H145961   6.118   2.743   6.085  1.2575 -0.5851 -0.0176
 8182TIP3    H245962   6.076   2.781   6.225 -1.0342  0.7147 -0.9997
 8183TIP3   OH245963   5.170   6.460  16.571 -0.0461 -0.4647 -0.2751
 8183TIP3    H145964   5.200   6.533  16.626  1.7173 -0.7273 -0.8342
 8183TIP3    H245965   5.205   6.382  16.613  1.6360 -0.6466 -1.8905
 8184TIP3   OH245966   3.357   2.452   2.827 -0.1926  0.0579 -0.1426
 8184TIP3    H145967   3.347   2.420   2.917 -0.6810 -3.9306 -1.3991
 8184TIP3    H245968   3.268   2.457   2.793 -0.0308  1.7507 -0.3983
 8185TIP3   OH245969   1.745   0.410   1.567 -0.6863 -0.3849  0.0865
 8185TIP3    H145970   1.702   0.475   1.512 -0.6275 -1.4677 -1.2787
 8185TIP3    H245971   1.773   0.341   1.506  2.0651 -0.2122  1.0507
 8186TIP3   OH245972   1.465   5.907   0.301 -0.0370  0.4784 -0.4264
 8186TIP3    H145973   1.416   5.892   0.221  0.0730 -1.7450 -0.1461
 8186TIP3    H245974   1.557   5.906   0.273  0.0114 -0.5424 -0.2704
 8187TIP3   OH245975   3.857   0.078  14.385 -0.3896  0.0866  0.2691
 8187TIP3    H145976   3.940   0.060  14.430 -0.8195 -0.4235  0.8635
 8187TIP3    H245977   3.870   0.165  14.345 -0.2556  0.9029  1.9918
 8188TIP3   OH245978   6.497   6.664  15.830  0.5067 -0.0294  0.0891
 8188TIP3    H145979   6.470   6.573  15.847  0.1631 -0.3582 -1.9812
 8188TIP3    H245980   6.463   6.683  15.743  0.7790  2.0360  0.3927
 8189TIP3   OH245981   4.420   3.678  16.606  0.2446  0.0280 -0.4542
 8189TIP3    H145982   4.423   3.584  16.622  1.0542  0.1677  0.2454
 8189TIP3    H245983   4.446   3.688  16.514  0.8001 -0.3827 -0.3434
 8190TIP3   OH245984   1.661   4.336  11.370  0.1390 -0.0470 -0.6319
 8190TIP3    H145985   1.591   4.401  11.366 -1.2833 -1.2014  2.4410
 8190TIP3    H245986   1.731   4.373  11.316 -1.2636  3.1228 -0.5164
 8191TIP3   OH245987   2.160   1.195   4.486 -0.1422  0.5343 -0.5675
 8191TIP3    H145988   2.163   1.163   4.577  1.7553  1.5605 -0.1983
 8191TIP3    H245989   2.070   1.225   4.474 -0.6195 -0.2649  0.7390
 8192TIP3   OH245990   3.420   2.516  11.577 -0.0763 -0.1527  0.9173
 8192TIP3    H145991   3.474   2.572  11.633  0.0587 -1.0875  1.7663
 8192TIP3    H245992   3.474   2.438  11.563 -0.3771 -0.2042  0.0167
 8193TIP3   OH245993   3.111   1.077  13.518 -0.0784  0.0277  0.3140
 8193TIP3    H145994   3.149   1.165  13.522  0.9127 -0.4263  1.6382
 8193TIP3    H245995   3.021   1.091  13.488  0.0502  1.4990  0.5448
 8194TIP3   OH245996   0.465   2.174   1.984  0.1156 -0.1116  0.2087
 8194TIP3    H145997   0.558   2.180   2.005  0.0317 -0.4499  0.7087
 8194TIP3    H245998   0.422   2.181   2.069 -0.3139 -0.0708 -0.0103
 8195TIP3   OH245999   5.418   5.729   5.364 -0.4668  0.1317  0.2689
 8195TIP3    H146000   5.360   5.655   5.346 -0.1196 -0.4703  1.5093
 8195TIP3    H246001   5.474   5.735   5.287  0.1198 -1.4991  0.5382
 8196TIP3   OH246002   4.470   2.488  16.595  0.0374  0.6479 -0.5179
 8196TIP3    H146003   4.378   2.462  16.589  0.0870  0.7149 -1.7103
 8196TIP3    H246004   4.477   2.531  16.680 -1.0413  0.6789 -0.4301
 8197TIP3   OH246005   4.357   3.169   2.735 -0.4568 -0.0213 -0.3286
 8197TIP3    H146006   4.444   3.209   2.739 -0.6125  0.2874 -0.0854
 8197TIP3    H246007   4.367   3.086   2.781 -0.8973  1.0993  1.8791
 8198TIP3   OH246008   5.357   3.706  17.111 -0.6251  0.6118 -0.0170
 8198TIP3    H146009   5.288   3.685  17.174  1.3666 -1.4275  1.6219
 8198TIP3    H246010   5.347   3.641  17.041  0.1786 -0.3325  0.7159
 8199TIP3   OH246011   0.610   2.151  14.215  0.6010  0.3573  0.3777
 8199TIP3    H146012   0.517   2.140  14.195  0.7893  1.6309 -1.5236
 8199TIP3    H246013   0.614   2.153  14.310 -1.8041  3.2474  0.5856
 8200TIP3   OH246014   0.563   6.207   5.384 -0.0052  0.6564  0.0410
 8200TIP3    H146015   0.472   6.189   5.407 -0.4730  0.9808 -1.4157
 8200TIP3    H246016   0.609   6.211   5.468 -1.1377 -0.4765  0.7566
 8201TIP3   OH246017   1.277   5.612  14.635  0.2480  0.4353 -0.3593
 8201TIP3    H146018   1.359   5.587  14.592  0.2425 -1.6832  0.7298
 8201TIP3    H246019   1.283   5.707  14.644  3.6829  0.2295  1.6997
 8202TIP3   OH246020   3.739   4.655   0.179  0.1562  0.2086  0.1114
 8202TIP3    H146021   3.821   4.704   0.173  0.3540 -0.2722 -1.7501
 8202TIP3    H246022   3.671   4.721   0.163  0.1893  0.4815  1.0094
 8203TIP3   OH246023   4.332   3.520   3.473  0.1289  0.2122  0.4830
 8203TIP3    H146024   4.324   3.532   3.568  0.3891  3.1127  0.2112
 8203TIP3    H246025   4.264   3.455   3.452 -1.1313  0.7864  2.4270
 8204TIP3   OH246026   2.593   3.995  14.439  0.0309  0.0300  0.4031
 8204TIP3    H146027   2.685   3.974  14.456  0.0654  1.3984  2.3302
 8204TIP3    H246028   2.544   3.932  14.491 -0.0429  0.3840  0.7749
 8205TIP3   OH246029   0.527   2.036  11.979  0.0494  0.6261  0.0020
 8205TIP3    H146030   0.448   2.074  11.939 -0.4510 -0.7273 -0.3270
 8205TIP3    H246031   0.599   2.078  11.933 -0.4723  1.4990 -0.0510
 8206TIP3   OH246032   4.133   0.480   4.309 -0.0192  0.6480 -0.3294
 8206TIP3    H146033   4.108   0.502   4.220 -0.0451  2.2054  0.0274
 8206TIP3    H246034   4.060   0.513   4.363  0.3122  0.3585  0.3057
 8207TIP3   OH246035   0.351   0.169   2.291 -0.4414 -0.5934 -1.0758
 8207TIP3    H146036   0.321   0.230   2.358 -0.8851 -0.0264 -1.7781
 8207TIP3    H246037   0.429   0.211   2.253  0.2137 -1.2305 -0.4639
 8208TIP3   OH246038   5.355   4.359  16.363  0.0722 -0.2108  0.4378
 8208TIP3    H146039   5.325   4.447  16.340  0.6538  0.0281  0.5695
 8208TIP3    H246040   5.291   4.328  16.426  0.4817  0.5792  1.2783
 8209TIP3   OH246041   1.626   4.003  15.566 -0.1931 -0.6183  0.6068
 8209TIP3    H146042   1.688   4.017  15.494 -0.1497 -0.7986  0.6090
 8209TIP3    H246043   1.631   4.083  15.618  0.0542 -0.6422  0.6194
 8210TIP3   OH246044   1.551   0.568  17.270  0.3124  0.1256 -0.0752
 8210TIP3    H146045   1.620   0.548  17.333  1.0630 -0.4901 -1.0677
 8210TIP3    H246046   1.581   0.648  17.227  0.4771 -0.2117 -0.5952
 8211TIP3   OH246047   5.507   6.243  17.110 -0.0585  0.1872  0.0276
 8211TIP3    H146048   5.572   6.312  17.100  0.6281 -0.5442 -0.7258
 8211TIP3    H246049   5.532   6.199  17.192  0.0102  0.3063  0.0711
 8212TIP3   OH246050   5.786   5.309  15.283  0.5934  0.1427  0.2176
 8212TIP3    H146051   5.824   5.394  15.303  0.9081  0.5079 -1.6925
 8212TIP3    H246052   5.692   5.325  15.275  0.4110 -0.0890  1.6625
 8213TIP3   OH246053   6.311   0.439  14.445 -0.4570 -0.4002 -0.1754
 8213TIP3    H146054   6.328   0.518  14.496 -0.5080  0.5021 -1.4906
 8213TIP3    H246055   6.332   0.464  14.355 -1.3620 -1.6131 -0.7556
 8214TIP3   OH246056   6.572   2.953  11.595 -0.6753  0.1458 -0.2760
 8214TIP3    H146057   6.580   2.980  11.504 -2.0370 -1.1337 -0.8170
 8214TIP3    H246058   6.494   2.999  11.627 -2.8784 -2.7088 -1.1402
 8215TIP3   OH246059   1.689   4.826  11.801 -0.2074 -0.0860  0.0066
 8215TIP3    H146060   1.631   4.770  11.853 -1.4574  2.0202  0.9928
 8215TIP3    H246061   1.681   4.793  11.712 -2.9622  0.1217  0.1158
 8216TIP3   OH246062   4.459   3.102  17.238 -0.5521 -0.5748 -0.2534
 8216TIP3    H146063   4.423   3.189  17.254  1.6542  0.4142 -0.4131
 8216TIP3    H246064   4.441   3.085  17.145 -0.5447 -0.0824 -0.3459
 8217TIP3   OH246065   5.684   0.842  15.229  0.1984  0.3097 -0.0627
 8217TIP3    H146066   5.596   0.851  15.265  0.0708  0.9248 -0.5069
 8217TIP3    H246067   5.724   0.928  15.241  0.5061  0.2256 -0.4621
 8218TIP3   OH246068   4.150   2.027  11.594  0.1792 -0.0648  0.2658
 8218TIP3    H146069   4.145   1.967  11.669 -1.8330  0.9473  1.0162
 8218TIP3    H246070   4.163   2.113  11.634 -0.1876  0.4047 -0.6021
 8219TIP3   OH246071   2.183   3.726  13.736 -0.0190 -0.3226  0.1380
 8219TIP3    H146072   2.154   3.779  13.661 -1.5697 -1.0800  0.1753
 8219TIP3    H246073   2.200   3.790  13.805  1.0027  0.3514 -0.6977
 8220TIP3   OH246074   2.112   5.855  13.592 -0.4018  0.1835  0.2296
 8220TIP3    H146075   2.036   5.891  13.636 -0.9977  0.3077 -0.8489
 8220TIP3    H246076   2.094   5.761  13.586 -2.3920  0.5954 -3.3697
 8221TIP3   OH246077   1.516   2.290   3.011 -0.9826 -0.3371  0.3014
 8221TIP3    H146078   1.477   2.336   3.085 -1.8703 -0.3777 -0.1374
 8221TIP3    H246079   1.489   2.199   3.022 -0.9653 -0.3752  0.0246
 8222TIP3   OH246080   6.048   3.671  12.660  0.7486 -0.4887  0.1639
 8222TIP3    H146081   6.081   3.584  12.681  0.8529 -0.0229  2.1038
 8222TIP3    H246082   6.118   3.712  12.608  1.7554 -0.7151  1.3129
 8223TIP3   OH246083   1.937   5.551   5.245  0.1035 -0.1058 -0.1181
 8223TIP3    H146084   2.015   5.516   5.201 -0.3834 -0.0926 -1.0206
 8223TIP3    H246085   1.864   5.521   5.192 -0.4782  0.3485  0.4066
 8224TIP3   OH246086   2.996   1.374   3.155  0.0915  0.3464  0.3676
 8224TIP3    H146087   2.905   1.370   3.127  0.4681 -1.2452 -0.8249
 8224TIP3    H246088   3.001   1.311   3.228  0.7527 -1.7771 -1.4065
 8225TIP3   OH246089   4.137   0.396  17.012 -0.3875 -0.3277  0.5704
 8225TIP3    H146090   4.140   0.369  16.920  0.3480  2.2692 -0.2591
 8225TIP3    H246091   4.223   0.433  17.029 -1.2840  1.4534  1.5268
 8226TIP3   OH246092   3.599   6.354  14.627 -0.0688  0.5452  0.4171
 8226TIP3    H146093   3.585   6.261  14.610 -0.9070  0.8308 -0.6126
 8226TIP3    H246094   3.522   6.380  14.679 -2.4789  1.6205 -3.2797
 8227TIP3   OH246095   0.883   1.387  10.877 -0.1277  0.2139  0.4889
 8227TIP3    H146096   0.936   1.332  10.819  1.3259  1.7745  0.2626
 8227TIP3    H246097   0.881   1.473  10.835 -1.2590  0.7035  1.4610
 8228TIP3   OH246098   0.244   4.546  13.652 -0.0044 -0.6045 -0.3863
 8228TIP3    H146099   0.250   4.548  13.748  0.0020  1.3663 -0.3824
 8228TIP3    H246100   0.254   4.638  13.626 -1.2895 -0.9211 -2.1962
 8229TIP3   OH246101   6.588   2.957   3.693 -0.7627  0.0094  0.2896
 8229TIP3    H146102   6.539   2.886   3.652  0.5541  0.0760 -1.5658
 8229TIP3    H246103   6.678   2.945   3.662 -0.2703  1.7827  0.8772
 8230TIP3   OH246104   2.116   0.144   0.620  0.1925  0.2070  0.0694
 8230TIP3    H146105   2.041   0.161   0.677  0.7831  0.8700  0.6757
 8230TIP3    H246106   2.090   0.068   0.567 -0.5818 -0.0684  0.8283
 8231TIP3   OH246107   1.893   6.654  17.208 -0.3431  0.2639  0.6182
 8231TIP3    H146108   1.897   6.581  17.269  0.1966  1.2703  1.8203
 8231TIP3    H246109   1.806   6.646  17.167 -0.2526 -1.0870  0.6396
 8232TIP3   OH246110   1.009   4.427   1.577 -0.2384  0.2903  0.2967
 8232TIP3    H146111   1.019   4.454   1.669 -0.9238 -0.6969  0.6797
 8232TIP3    H246112   0.920   4.392   1.572  0.7347 -2.3425 -0.0208
 8233TIP3   OH246113   5.621   4.453   4.381 -0.1144  0.2604 -0.2904
 8233TIP3    H146114   5.645   4.524   4.321 -0.3109 -0.7716 -1.6548
 8233TIP3    H246115   5.673   4.378   4.351 -1.0458 -0.5794  0.1371
 8234TIP3   OH246116   5.102   1.224  12.765  0.3281  0.3089 -0.2895
 8234TIP3    H146117   5.112   1.129  12.778 -1.2649  0.1126 -0.2291
 8234TIP3    H246118   5.152   1.243  12.686  2.6097 -0.1396  0.9785
 8235TIP3   OH246119   4.199   5.701   6.334  0.4391  0.0419  0.4561
 8235TIP3    H146120   4.134   5.634   6.316 -1.8966  2.3715 -0.3522
 8235TIP3    H246121   4.172   5.740   6.416  1.4600  0.3693  0.6565
 8236TIP3   OH246122   1.965   0.279   0.807 -0.1363  0.2974 -0.2705
 8236TIP3    H146123   2.027   0.317   0.869 -0.4953 -0.5019  0.6072
 8236TIP3    H246124   1.899   0.347   0.794  0.6541  0.9749 -0.8419
 8237TIP3   OH246125   1.380   0.784  15.930 -0.4732  0.4212 -0.4315
 8237TIP3    H146126   1.386   0.879  15.932  1.5168  0.4494 -2.6634
 8237TIP3    H246127   1.445   0.757  15.865 -0.3646 -2.5386  0.7397
 8238TIP3   OH246128   5.372   2.228   5.743  0.0597 -0.2806 -0.2748
 8238TIP3    H146129   5.416   2.234   5.828  0.6489  1.0612 -0.6468
 8238TIP3    H246130   5.345   2.136   5.737  1.1511 -0.7076  0.7951
 8239TIP3   OH246131   5.926   5.369   0.463 -0.0778 -0.0650 -0.1722
 8239TIP3    H146132   5.967   5.453   0.443  2.1321 -0.7243  1.2216
 8239TIP3    H246133   5.950   5.312   0.390  1.2035 -0.3422  0.4529
 8240TIP3   OH246134   6.132   1.886  15.962 -0.1080  0.5631 -0.3683
 8240TIP3    H146135   6.143   1.915  16.052 -2.6806  0.2846  0.1006
 8240TIP3    H246136   6.164   1.960  15.909  0.8969  0.9446  0.7352
 8241TIP3   OH246137   6.685   0.116  11.180  0.3250  0.0528  0.1425
 8241TIP3    H146138   6.699   0.094  11.272  0.0113  0.1843  0.2193
 8241TIP3    H246139   6.769   0.154  11.152 -0.5875  3.3164  1.3166
 8242TIP3   OH246140   1.723   1.562  14.560  0.1132  0.2822  0.1447
 8242TIP3    H146141   1.682   1.481  14.588  1.6810 -0.6463 -0.1333
 8242TIP3    H246142   1.702   1.569  14.466 -0.0022  0.2003  0.1643
 8243TIP3   OH246143   0.459   6.687   4.971 -0.5090 -0.3999 -0.0988
 8243TIP3    H146144   0.483   6.600   5.003 -0.0166 -0.5126 -0.7580
 8243TIP3    H246145   0.511   6.747   5.024  0.3906 -0.5897 -0.7379
 8244TIP3   OH246146   0.130   1.409   0.776 -0.0989 -0.1540  0.1733
 8244TIP3    H146147   0.215   1.406   0.731 -0.1881 -0.7748  0.0408
 8244TIP3    H246148   0.065   1.410   0.705 -0.2154 -0.0560  0.2802
 8245TIP3   OH246149   3.011   5.049  13.496  0.1658 -0.0387  0.3544
 8245TIP3    H146150   3.086   5.108  13.505 -0.7812  1.1446  0.8435
 8245TIP3    H246151   2.936   5.102  13.524 -0.8797 -1.1245 -0.3168
 8246TIP3   OH246152   5.806   6.256  15.123 -0.1465  0.3752 -0.0910
 8246TIP3    H146153   5.761   6.243  15.039  2.1189  1.4427 -1.5655
 8246TIP3    H246154   5.873   6.321  15.105  1.9789 -1.0527  1.9710
 8247TIP3   OH246155   3.837   1.625  15.787  0.7243 -0.2160  0.0052
 8247TIP3    H146156   3.762   1.684  15.786  0.5778 -0.3732  0.9421
 8247TIP3    H246157   3.813   1.555  15.725  0.0237 -0.3565  0.4270
 8248TIP3   OH246158   0.077   6.201  15.416 -0.1616 -0.0813  0.5772
 8248TIP3    H146159   0.137   6.203  15.341  0.1966 -0.6113  0.8375
 8248TIP3    H246160   0.099   6.280  15.466 -2.3590  1.8545 -1.3175
 8249TIP3   OH246161   2.819   4.051  12.018  0.0866 -0.0650  0.0384
 8249TIP3    H146162   2.896   4.108  12.015  0.7256 -0.9231 -1.5173
 8249TIP3    H246163   2.765   4.086  12.088  1.4136  1.1967  0.4768
 8250TIP3   OH246164   0.983   2.117  14.176 -0.2243 -0.3883  0.0098
 8250TIP3    H146165   0.910   2.058  14.158  0.1108 -0.1706 -2.4864
 8250TIP3    H246166   1.057   2.059  14.191 -0.6664 -0.6022  1.4281
 8251TIP3   OH246167   5.765   3.138  11.384  0.5164  0.2490 -0.3012
 8251TIP3    H146168   5.854   3.174  11.379  0.6560 -0.0957 -0.3971
 8251TIP3    H246169   5.737   3.132  11.293  0.6391 -0.2213 -0.3129
 8252TIP3   OH246170   1.999   6.604   2.504 -0.3296 -0.1298  0.5041
 8252TIP3    H146171   2.062   6.675   2.495 -1.2801  0.7452  0.5884
 8252TIP3    H246172   2.006   6.577   2.595 -1.1449  0.9954  0.9112
 8253TIP3   OH246173   6.661   1.198  16.656 -0.6447 -0.3827 -0.1321
 8253TIP3    H146174   6.703   1.163  16.735  0.6997  1.2563 -0.0586
 8253TIP3    H246175   6.700   1.284  16.644 -0.9058 -0.5160 -2.5299
 8254TIP3   OH246176   6.573   2.184   0.849 -0.1078  0.0203 -0.2103
 8254TIP3    H146177   6.509   2.211   0.915  0.7376 -0.5726  0.8754
 8254TIP3    H246178   6.526   2.119   0.796 -0.7670  0.4433 -0.1620
 8255TIP3   OH246179   3.738   0.573   5.155  0.5137 -0.2148 -0.3329
 8255TIP3    H146180   3.704   0.629   5.085 -0.3967 -1.6801 -1.1166
 8255TIP3    H246181   3.678   0.586   5.228 -1.2013 -1.9704 -1.3479
 8256TIP3   OH246182   6.325   4.888  16.053  0.9781 -0.0277  0.0717
 8256TIP3    H146183   6.380   4.857  16.124  3.1126  0.9425 -1.0814
 8256TIP3    H246184   6.370   4.964  16.017  2.2477 -2.6329 -4.8402
 8257TIP3   OH246185   2.537   1.078   3.830  0.0977  0.5600  0.0406
 8257TIP3    H146186   2.632   1.070   3.819  0.0894  0.2204  0.1824
 8257TIP3    H246187   2.501   1.008   3.775 -0.1295  1.4206 -0.9332
 8258TIP3   OH246188   5.855   6.537  17.312  0.4673 -0.2337 -0.0243
 8258TIP3    H146189   5.840   6.449  17.346  0.5004  0.1658  1.0656
 8258TIP3    H246190   5.932   6.569  17.360  1.6691 -0.3160 -1.7927
 8259TIP3   OH246191   6.040   0.649   1.754 -0.7377  0.2954  0.4490
 8259TIP3    H146192   6.114   0.643   1.814  0.1704 -0.2176 -0.6744
 8259TIP3    H246193   5.965   0.670   1.810 -0.2252 -1.5981  1.9768
 8260TIP3   OH246194   0.376   6.158  17.037  0.2038  0.5229 -0.0017
 8260TIP3    H146195   0.380   6.218  16.962 -1.1130 -0.0912 -0.6012
 8260TIP3    H246196   0.460   6.113  17.036  0.5265  1.1214 -0.6128
 8261TIP3   OH246197   1.945   5.014   0.489 -0.2344 -0.2632 -0.2521
 8261TIP3    H146198   1.978   4.925   0.502 -2.2903 -0.9577  0.6591
 8261TIP3    H246199   1.945   5.053   0.576  1.7367  1.0986 -0.7981
 8262TIP3   OH246200   2.443   6.539  16.552  0.0729 -0.3340  0.4096
 8262TIP3    H146201   2.376   6.567  16.615  0.0285  3.3342 -1.0599
 8262TIP3    H246202   2.524   6.537  16.602 -0.3550 -0.0173  1.1305
 8263TIP3   OH246203   0.697   3.110  11.857 -0.4117 -0.0051  0.0383
 8263TIP3    H146204   0.721   3.192  11.900  1.3448 -0.8741  0.8273
 8263TIP3    H246205   0.664   3.055  11.928 -3.1571  0.4976 -0.7355
 8264TIP3   OH246206   2.390   1.540   0.822  0.1899 -0.3911 -0.0675
 8264TIP3    H146207   2.481   1.535   0.851  0.3639  0.8438 -0.3330
 8264TIP3    H246208   2.389   1.613   0.760 -1.3813  1.1084  1.5959
 8265TIP3   OH246209   3.484   3.262   4.027  0.1437  0.0623  0.3640
 8265TIP3    H146210   3.455   3.207   3.954  2.4479 -2.0381  0.9190
 8265TIP3    H246211   3.552   3.318   3.989  0.5988 -0.2778  0.6833
 8266TIP3   OH246212   5.914   2.010   2.463 -0.2271  0.1858 -0.6874
 8266TIP3    H146213   5.849   2.067   2.421 -1.0608 -0.9101 -0.9100
 8266TIP3    H246214   5.913   2.038   2.555 -0.0579  1.0449 -0.9348
 8267TIP3   OH246215   3.429   6.175   4.643  0.4906  0.4924  0.1299
 8267TIP3    H146216   3.448   6.268   4.627  0.3664  0.8156  1.6569
 8267TIP3    H246217   3.513   6.131   4.628  0.2178  0.6241 -1.9896
 8268TIP3   OH246218   3.673   2.573  16.107  0.1879 -0.0883  0.0193
 8268TIP3    H146219   3.664   2.664  16.134  2.1868 -0.5531  2.5641
 8268TIP3    H246220   3.674   2.523  16.188  3.0191 -1.9747 -1.0198
 8269TIP3   OH246221   5.330   1.112  15.558 -0.6391 -0.3525  0.5420
 8269TIP3    H146222   5.262   1.045  15.564 -1.1639  0.2843  2.2403
 8269TIP3    H246223   5.287   1.185  15.512 -1.0454 -0.0722  1.3330
 8270TIP3   OH246224   0.775   2.678  14.903 -0.4376  0.3811 -0.3296
 8270TIP3    H146225   0.689   2.635  14.902 -0.7700  1.0086  0.3630
 8270TIP3    H246226   0.813   2.655  14.988  0.4345 -0.5342 -0.9400
 8271TIP3   OH246227   3.592   3.743   2.198  0.3119 -0.6370  0.3774
 8271TIP3    H146228   3.547   3.742   2.113  1.2894 -1.2195 -0.1471
 8271TIP3    H246229   3.676   3.699   2.182  0.8593 -0.0268  1.4593
 8272TIP3   OH246230   2.661   5.620  13.935  0.3991  0.2806  0.0792
 8272TIP3    H146231   2.637   5.527  13.930 -0.1037  0.2627  1.9677
 8272TIP3    H246232   2.592   5.665  13.886  0.2009 -0.2864 -0.1671
 8273TIP3   OH246233   6.585   4.755  15.178 -0.4988 -0.6734  0.0457
 8273TIP3    H146234   6.591   4.680  15.238 -0.5027 -2.2057 -1.7818
 8273TIP3    H246235   6.669   4.756  15.132 -1.1628 -0.6841 -1.2107
 8274TIP3   OH246236   6.746   1.474   1.024 -0.0599  0.8578 -0.0736
 8274TIP3    H146237   6.651   1.464   1.021  0.0329  0.0152 -0.7492
 8274TIP3    H246238   6.777   1.428   0.946  0.8212  2.1440 -0.5047
 8275TIP3   OH246239   0.377   4.367   3.937  0.3878  0.5541  0.3710
 8275TIP3    H146240   0.400   4.332   3.851 -0.6162  1.1054 -0.1315
 8275TIP3    H246241   0.311   4.307   3.971  1.1426  0.0526  0.9916
 8276TIP3   OH246242   4.717   3.960  16.247  0.1673  0.1259 -0.4649
 8276TIP3    H146243   4.682   4.040  16.287  1.1906  0.4708 -0.2522
 8276TIP3    H246244   4.799   3.943  16.294  0.5515 -0.3899 -1.3064
 8277TIP3   OH246245   4.772   4.625  16.690  0.1004  0.2292  0.2317
 8277TIP3    H146246   4.771   4.618  16.594  0.5095 -0.4957  0.2775
 8277TIP3    H246247   4.732   4.543  16.720 -0.1399  0.5093  0.6798
 8278TIP3   OH246248   1.175   1.633   0.061  0.1357  0.1096  0.1772
 8278TIP3    H146249   1.195   1.593  -0.023  0.1624 -1.0444  0.7188
 8278TIP3    H246250   1.248   1.609   0.118 -1.0066 -1.1404  1.1801
 8279TIP3   OH246251   0.419   1.552  12.691 -0.5721  0.2266 -0.3327
 8279TIP3    H146252   0.375   1.516  12.614 -1.1613 -0.4015  0.2875
 8279TIP3    H246253   0.432   1.645  12.670 -0.4269 -0.0105 -1.3185
 8280TIP3   OH246254   2.555   3.477   4.241 -0.1419  0.0441 -0.2285
 8280TIP3    H146255   2.587   3.540   4.306  0.4837 -1.1926  0.7174
 8280TIP3    H246256   2.479   3.519   4.202 -0.5376  0.8545  1.3179
 8281TIP3   OH246257   0.143   0.273   4.665  0.6365 -0.1935 -0.4464
 8281TIP3    H146258   0.130   0.366   4.684 -1.4165 -0.5911  0.3481
 8281TIP3    H246259   0.228   0.252   4.704  0.6004  1.0895  0.3585
 8282TIP3   OH246260   1.926   3.137   5.585 -0.3288  0.3480  0.1699
 8282TIP3    H146261   1.871   3.212   5.562  0.2896  0.8447  0.2803
 8282TIP3    H246262   1.923   3.082   5.507  0.1158  1.0425 -0.3582
 8283TIP3   OH246263   5.923   1.077  12.291 -0.3238  0.0626 -0.0712
 8283TIP3    H146264   6.004   1.051  12.335 -1.2225  0.4153  1.9112
 8283TIP3    H246265   5.890   0.996  12.251 -0.0688 -0.5504  0.9272
 8284TIP3   OH246266   1.958   3.924   2.307 -0.5838  0.1750 -0.4994
 8284TIP3    H146267   1.958   3.949   2.399  0.9386  0.9008 -0.6622
 8284TIP3    H246268   1.873   3.882   2.294  0.2280 -2.5083  1.9025
 8285TIP3   OH246269   4.762   1.179   3.681  0.5569 -0.5843 -0.0262
 8285TIP3    H146270   4.725   1.264   3.655  1.3549 -0.7499 -1.9130
 8285TIP3    H246271   4.686   1.121   3.688  0.2420 -0.5935 -2.4980
 8286TIP3   OH246272   3.936   5.060  11.598  0.1243 -0.1543  0.0767
 8286TIP3    H146273   3.953   4.975  11.558 -0.0519 -0.6527  1.0139
 8286TIP3    H246274   3.841   5.060  11.614  0.0020  0.5426 -0.6222
 8287TIP3   OH246275   6.479   6.006   5.988 -0.7810 -0.6137  0.0202
 8287TIP3    H146276   6.428   6.056   6.052 -0.7875 -1.4806  0.7151
 8287TIP3    H246277   6.569   6.036   5.999 -1.0554  0.6341 -0.9297
 8288TIP3   OH246278   0.612   3.524   1.837 -0.0132 -0.3478 -0.3666
 8288TIP3    H146279   0.583   3.522   1.745 -0.8017 -0.5753 -0.1248
 8288TIP3    H246280   0.620   3.617   1.858 -2.3457 -0.1997  0.0782
 8289TIP3   OH246281   1.662   4.179   1.616 -0.0597  0.2508  0.2313
 8289TIP3    H146282   1.702   4.099   1.582 -1.7231 -0.8696  0.8097
 8289TIP3    H246283   1.568   4.164   1.610 -0.4267  2.3204  0.0277
 8290TIP3   OH246284   2.800   3.686  14.554 -0.2376 -0.1341  0.0458
 8290TIP3    H146285   2.828   3.718  14.469 -0.3704  1.2319  0.4896
 8290TIP3    H246286   2.720   3.636  14.536  0.1403 -0.4776 -0.7097
 8291TIP3   OH246287   1.065   6.528  12.196  0.1288  0.2579  0.3099
 8291TIP3    H146288   0.990   6.477  12.165  0.8376 -1.1072  0.7418
 8291TIP3    H246289   1.060   6.523  12.291  0.2788  0.9006  0.3535
 8292TIP3   OH246290   2.725   5.218  17.044 -0.5817  0.1166 -0.3199
 8292TIP3    H146291   2.813   5.253  17.032 -0.4994 -0.1479 -0.4709
 8292TIP3    H246292   2.700   5.184  16.958 -0.9953  0.5675 -0.3848
 8293TIP3   OH246293   2.049   3.977   5.913 -0.3748 -0.0636  0.7489
 8293TIP3    H146294   1.998   3.905   5.876  0.9514 -0.5389 -0.2404
 8293TIP3    H246295   2.000   4.005   5.990 -2.4130 -0.1171 -0.4731
 8294TIP3   OH246296   2.039   2.037   1.843  0.0019 -0.0261  0.0879
 8294TIP3    H146297   2.058   1.969   1.908 -2.5615 -0.7846  0.1761
 8294TIP3    H246298   2.031   2.118   1.894 -0.0945 -0.2653  0.4538
 8295TIP3   OH246299   0.535   2.917   1.495 -0.4701  0.0657  0.4777
 8295TIP3    H146300   0.571   2.831   1.517 -1.0664  0.0485  1.4777
 8295TIP3    H246301   0.489   2.904   1.412  0.5164 -0.2589 -0.0399
 8296TIP3   OH246302   0.773   5.450   2.441  0.5645 -0.4723  0.4266
 8296TIP3    H146303   0.704   5.391   2.468  0.6023  0.2049  2.1468
 8296TIP3    H246304   0.828   5.398   2.382 -0.8581 -1.3013 -0.2029
 8297TIP3   OH246305   3.739   6.063  12.148 -0.9508 -0.6532 -0.2527
 8297TIP3    H146306   3.740   6.158  12.135  1.3231 -0.7423 -1.0913
 8297TIP3    H246307   3.756   6.027  12.061  1.6044 -1.6840  0.5810
 8298TIP3   OH246308   3.835   4.913   6.716  0.0161  0.1838 -0.2178
 8298TIP3    H146309   3.802   4.838   6.668 -0.7743  0.9762 -0.9486
 8298TIP3    H246310   3.917   4.882   6.756 -0.1494 -0.9623 -0.7323
 8299TIP3   OH246311   4.786   2.931   4.752 -0.1061  0.5149 -0.8107
 8299TIP3    H146312   4.715   2.920   4.815 -0.4657 -1.7472 -1.5186
 8299TIP3    H246313   4.746   2.978   4.679 -0.1467  1.6015 -0.1075
 8300TIP3   OH246314   6.228   2.223  15.411 -0.8143 -0.2372 -0.0399
 8300TIP3    H146315   6.278   2.165  15.469  1.4850  2.0998  0.5055
 8300TIP3    H246316   6.292   2.254  15.348 -2.3233  0.5622 -1.2367
 8301TIP3   OH246317   5.351   4.690  16.088  0.2429  0.4776  0.3573
 8301TIP3    H146318   5.290   4.641  16.033  1.6443  0.6716 -1.4914
 8301TIP3    H246319   5.323   4.673  16.178 -1.5894 -0.6111 -0.3782
 8302TIP3   OH246320   6.052   6.418   4.358 -0.5638  1.0210  0.5670
 8302TIP3    H146321   6.003   6.416   4.440 -0.7320 -0.9735  0.4764
 8302TIP3    H246322   6.114   6.346   4.366 -1.4670 -0.0843 -1.5545
 8303TIP3   OH246323   4.862   4.185  15.017 -0.0341 -0.1323  0.6783
 8303TIP3    H146324   4.858   4.113  14.954 -2.1172  0.5850 -0.0969
 8303TIP3    H246325   4.901   4.258  14.969 -0.5042  0.0643  0.5917
 8304TIP3   OH246326   2.423   3.493  14.057 -0.0511 -0.3083  0.1568
 8304TIP3    H146327   2.352   3.518  14.116 -1.2831 -1.8110 -0.6112
 8304TIP3    H246328   2.381   3.436  13.992  1.7092 -0.5642 -0.8134
 8305TIP3   OH246329   3.147   4.916  11.151 -0.5871  0.0404  0.2338
 8305TIP3    H146330   3.230   4.960  11.170 -1.7485  1.8281  1.4952
 8305TIP3    H246331   3.162   4.871  11.068  1.2374  1.4639 -0.2701
 8306TIP3   OH246332   3.039   4.050   5.801 -0.0364  0.3575 -0.3795
 8306TIP3    H146333   3.098   4.073   5.873 -0.6212  1.0340 -0.0950
 8306TIP3    H246334   3.085   3.982   5.752 -0.5066 -1.6433  1.8151
 8307TIP3   OH246335   2.362   5.647   2.745 -0.1240 -0.2998 -0.6975
 8307TIP3    H146336   2.392   5.729   2.783 -1.1434  0.6974 -1.9633
 8307TIP3    H246337   2.270   5.640   2.772  0.1199 -1.3738 -0.0586
 8308TIP3   OH246338   5.443   4.049   4.720  0.4627  0.0713  0.0360
 8308TIP3    H146339   5.381   4.086   4.658 -2.0026  0.1801  2.3773
 8308TIP3    H246340   5.429   3.954   4.715 -2.5902  0.1809  2.8863
 8309TIP3   OH246341   1.471   5.582   0.448  0.2233 -0.2610  0.5777
 8309TIP3    H146342   1.515   5.653   0.403 -2.2202  0.5558 -0.7313
 8309TIP3    H246343   1.396   5.624   0.492 -0.9489 -1.9057  0.2749
 8310TIP3   OH246344   5.500   2.481   0.154  0.2929 -0.2038 -0.2529
 8310TIP3    H146345   5.571   2.538   0.124  0.7141 -1.0930 -1.0465
 8310TIP3    H246346   5.510   2.477   0.249  2.2383 -1.4136 -0.4359
 8311TIP3   OH246347   0.313   4.383   2.656 -0.1013  0.1088  0.3464
 8311TIP3    H146348   0.388   4.433   2.688 -0.7718  1.4664 -0.1574
 8311TIP3    H246349   0.237   4.426   2.692 -0.6676 -1.5378  1.2285
 8312TIP3   OH246350   5.063   3.286   3.103 -0.1321  0.4771  0.2349
 8312TIP3    H146351   5.008   3.256   3.031  0.4765  1.8791 -0.8673
 8312TIP3    H246352   5.138   3.227   3.102  0.3646  1.0924 -0.9759
 8313TIP3   OH246353   1.168   1.109   1.398  0.2221  0.0593  0.2169
 8313TIP3    H146354   1.214   1.144   1.474 -0.2978  0.8906  0.1633
 8313TIP3    H246355   1.170   1.180   1.334 -1.0782  0.1103  0.1983
 8314TIP3   OH246356   3.633   1.659   4.573  0.3889 -0.1445  0.2394
 8314TIP3    H146357   3.583   1.582   4.600  0.0397  0.4773  1.4386
 8314TIP3    H246358   3.634   1.716   4.650  2.1885  0.2659 -0.0333
 8315TIP3   OH246359   2.818   2.093  12.570  0.6077  0.5055 -0.1017
 8315TIP3    H146360   2.755   2.047  12.515 -2.4783 -0.3593  3.6706
 8315TIP3    H246361   2.868   2.024  12.613 -0.4500  0.7789  1.7005
 8316TIP3   OH246362   4.146   2.378  16.760 -0.3059  0.2754 -0.0802
 8316TIP3    H146363   4.167   2.408  16.672 -0.5980  1.2539  0.1681
 8316TIP3    H246364   4.119   2.287  16.749 -1.2355  0.6609 -1.1298
 8317TIP3   OH246365   6.165   5.608   1.722  0.0843 -0.5778  0.7036
 8317TIP3    H146366   6.107   5.676   1.687  1.3915 -0.0594 -0.5401
 8317TIP3    H246367   6.113   5.528   1.720 -0.8073  0.0002  0.2446
 8318TIP3   OH246368   4.653   3.620  15.243 -0.1600  0.8719 -0.1485
 8318TIP3    H146369   4.641   3.671  15.324  1.5193 -0.0488  0.7401
 8318TIP3    H246370   4.622   3.533  15.265 -0.0832  0.7169 -0.6471
 8319TIP3   OH246371   0.807   4.282   0.467  0.9751  0.3716 -0.3682
 8319TIP3    H146372   0.717   4.308   0.482  0.1954 -1.6291 -1.1547
 8319TIP3    H246373   0.849   4.286   0.553 -0.3641 -0.3583  0.3403
 8320TIP3   OH246374   6.561   2.169   1.251 -0.2489  0.2580  0.4559
 8320TIP3    H146375   6.548   2.092   1.307 -0.3422 -0.2618 -0.2695
 8320TIP3    H246376   6.654   2.168   1.230 -0.4969 -0.4670 -0.6880
 8321TIP3   OH246377   4.259   1.334   2.698  0.5151  0.3461 -0.1476
 8321TIP3    H146378   4.186   1.355   2.640  0.9058 -0.8989 -1.1491
 8321TIP3    H246379   4.271   1.239   2.688  1.7469  0.3992  0.6129
 8322TIP3   OH246380   1.451   3.100  11.384 -0.4159 -0.7198 -0.0157
 8322TIP3    H146381   1.377   3.053  11.345 -0.3200 -0.7231 -0.1947
 8322TIP3    H246382   1.412   3.150  11.456 -0.4003 -1.6292  0.6334
 8323TIP3   OH246383   4.204   2.129   6.341 -0.1546  0.3697  0.4181
 8323TIP3    H146384   4.162   2.156   6.259  0.4699 -0.0547 -0.0537
 8323TIP3    H246385   4.269   2.064   6.314  0.1314  0.3009  1.2439
 8324TIP3   OH246386   6.435   5.982   4.712 -0.2032  0.7431 -0.3649
 8324TIP3    H146387   6.528   6.000   4.722 -0.0446  1.5884 -2.7190
 8324TIP3    H246388   6.396   6.067   4.693 -0.9443  0.0287 -2.3091
 8325TIP3   OH246389   4.810   0.522  12.605  0.3594  0.1874 -0.1937
 8325TIP3    H146390   4.827   0.457  12.537  1.1843  0.3632 -0.1704
 8325TIP3    H246391   4.881   0.586  12.594 -0.5020  1.1418 -0.2926
 8326TIP3   OH246392   6.338   3.124  13.248 -0.6704  0.4127  0.0685
 8326TIP3    H146393   6.396   3.192  13.213 -0.6928  1.2161  1.5344
 8326TIP3    H246394   6.386   3.043  13.236  1.2948  1.1549  2.2130
 8327TIP3   OH246395   5.260   4.841   5.548 -0.1031  0.0316 -0.5059
 8327TIP3    H146396   5.256   4.791   5.466 -0.4124  1.1370 -1.1830
 8327TIP3    H246397   5.169   4.860   5.568 -0.4434 -3.4089  2.1695
 8328TIP3   OH246398   5.363   2.435  13.477 -0.3524  0.5813 -0.1405
 8328TIP3    H146399   5.387   2.430  13.384 -0.8246 -0.5867 -0.2068
 8328TIP3    H246400   5.445   2.418  13.524 -0.5521 -1.1076 -0.3610
 8329TIP3   OH246401   2.187   3.281  12.898 -0.1963 -0.5885  0.3226
 8329TIP3    H146402   2.229   3.366  12.908  1.6843 -1.2518 -1.1127
 8329TIP3    H246403   2.099   3.292  12.934 -0.8862  2.6354 -1.8944
 8330TIP3   OH246404   2.885   0.522  12.502 -0.2194  0.4910 -0.2732
 8330TIP3    H146405   2.866   0.607  12.542 -1.0955 -0.5755  1.7041
 8330TIP3    H246406   2.954   0.485  12.557 -0.0165 -0.1794 -0.9690
 8331TIP3   OH246407   5.112   2.565   1.537 -0.0034  0.0603  0.6034
 8331TIP3    H146408   5.148   2.628   1.600 -1.5299  1.9585 -0.2815
 8331TIP3    H246409   5.147   2.594   1.452 -0.4332 -0.5110  0.2243
 8332TIP3   OH246410   2.733   0.985   3.625 -0.3692 -0.3872 -0.3678
 8332TIP3    H146411   2.793   0.935   3.570  0.8573  1.4541 -0.8309
 8332TIP3    H246412   2.693   1.048   3.565  0.9371  1.6204  0.7204
 8333TIP3   OH246413   4.280   0.496  13.578 -0.3589  0.0206 -0.3361
 8333TIP3    H146414   4.282   0.425  13.641  0.3233  0.7215  0.4646
 8333TIP3    H246415   4.353   0.478  13.519 -1.2668 -0.8690 -1.2023
 8334TIP3   OH246416   0.150   3.667  13.280  0.4479  0.0725 -0.6184
 8334TIP3    H146417   0.129   3.747  13.232 -0.5458 -0.1996 -0.6722
 8334TIP3    H246418   0.085   3.664  13.351  1.9562  0.5234  0.8447
 8335TIP3   OH246419   3.677   0.418   1.165  0.0748  0.4036 -0.2454
 8335TIP3    H146420   3.656   0.351   1.229 -1.8705  0.7848 -0.4174
 8335TIP3    H246421   3.624   0.396   1.089  2.0918  0.1443 -1.6532
 8336TIP3   OH246422   1.802   2.156   2.701 -0.0675 -0.1500 -0.0567
 8336TIP3    H146423   1.776   2.238   2.659 -1.7636  0.4202  1.8976
 8336TIP3    H246424   1.769   2.088   2.642 -1.5051  0.6058 -0.1789
 8337TIP3   OH246425   6.389   0.757   1.466 -0.4641 -0.2398  0.1264
 8337TIP3    H146426   6.353   0.668   1.467  1.4434 -1.0792  0.1404
 8337TIP3    H246427   6.464   0.752   1.526 -0.3111  1.3941  0.1114
 8338TIP3   OH246428   6.047   4.531   1.176  0.5633 -0.1869  0.0284
 8338TIP3    H146429   5.962   4.508   1.139  0.3216 -0.3045  0.6454
 8338TIP3    H246430   6.044   4.626   1.187 -0.7653 -0.4468  3.0213
 8339TIP3   OH246431   2.913   1.534   1.183  0.1263  0.4686  0.8037
 8339TIP3    H146432   2.845   1.502   1.242  1.4428  0.3231  2.3001
 8339TIP3    H246433   2.877   1.614   1.145 -1.2202 -0.0909  0.8598
 8340TIP3   OH246434   1.016   4.288   2.432  0.1658 -0.2543 -0.4221
 8340TIP3    H146435   1.049   4.343   2.503 -0.7998  0.4291 -0.4807
 8340TIP3    H246436   0.936   4.249   2.467  1.5710 -2.8219  0.1337
 8341TIP3   OH246437   6.050   2.722  17.336  0.0071  0.3231 -0.2307
 8341TIP3    H146438   6.135   2.679  17.347  0.1300  0.6870  0.2660
 8341TIP3    H246439   6.047   2.787  17.406 -1.7833 -1.4295  1.4556
 8342TIP3   OH246440   5.704   5.981   2.329  0.1881 -0.5470 -0.5333
 8342TIP3    H146441   5.730   6.066   2.364 -0.1020 -0.5543 -0.3008
 8342TIP3    H246442   5.780   5.953   2.277  0.9850 -0.9555  0.8151
 8343TIP3   OH246443   2.168   0.102  16.255  0.1575 -0.1185 -0.3843
 8343TIP3    H146444   2.187   0.013  16.284  1.6156 -0.1662 -1.3747
 8343TIP3    H246445   2.242   0.125  16.199 -0.5815  1.4379 -0.7709
 8344TIP3   OH246446   0.635   1.697  12.547 -0.1327 -0.3661 -0.0443
 8344TIP3    H146447   0.646   1.791  12.556  1.0091 -0.5596  0.6968
 8344TIP3    H246448   0.625   1.683  12.453 -4.2141  0.8639  0.0066
 8345TIP3   OH246449   1.464   3.070   0.308 -0.1503 -0.1330 -0.2605
 8345TIP3    H146450   1.403   3.140   0.283 -0.1425  0.1512  0.5042
 8345TIP3    H246451   1.412   3.010   0.360  0.3980  0.5359  1.0989
 8346TIP3   OH246452   4.047   6.574   1.966  0.4213  0.8174  0.0491
 8346TIP3    H146453   4.019   6.489   1.998  0.5279  1.1936  1.1841
 8346TIP3    H246454   3.997   6.587   1.885 -1.2478  0.6319  1.0113
 8347TIP3   OH246455   2.255   0.417   3.446  0.1476 -0.2885  0.0594
 8347TIP3    H146456   2.291   0.393   3.532 -1.0463  0.5831  0.8341
 8347TIP3    H246457   2.215   0.503   3.460  0.9264  0.4001 -1.6690
 8348TIP3   OH246458   3.083   3.965  16.061  0.3611  0.1146 -0.0067
 8348TIP3    H146459   3.073   4.050  16.104 -0.4368  0.3777 -0.6862
 8348TIP3    H246460   3.053   3.980  15.971 -2.7586 -1.5707  0.6268
 8349TIP3   OH246461   0.770   5.403  13.403 -0.7543 -0.1115  0.1374
 8349TIP3    H146462   0.827   5.332  13.435 -0.2531 -0.2498 -1.0225
 8349TIP3    H246463   0.829   5.477  13.389 -0.5575 -0.6384 -2.3096
 8350TIP3   OH246464   2.106   2.097  16.520  0.5226 -0.2376  0.0987
 8350TIP3    H146465   2.123   2.187  16.491  0.2307 -0.4407 -0.7450
 8350TIP3    H246466   2.011   2.088  16.514  0.4553 -0.3081  1.1107
 8351TIP3   OH246467   6.348   1.810  16.169  0.5979 -0.1378  0.3580
 8351TIP3    H146468   6.429   1.761  16.185 -0.5133 -2.9253 -1.6759
 8351TIP3    H246469   6.373   1.875  16.103  1.0633 -1.8040 -1.2422
 8352TIP3   OH246470   3.487   3.410   1.944  0.2005 -0.5110 -0.6201
 8352TIP3    H146471   3.408   3.411   1.997  0.5459 -1.0251 -0.0894
 8352TIP3    H246472   3.458   3.441   1.858 -0.3435  0.4074 -0.1232
 8353TIP3   OH246473   3.783   6.034   6.804 -0.4914  0.1085  0.0813
 8353TIP3    H146474   3.749   5.965   6.747  0.9089 -0.4855 -0.0855
 8353TIP3    H246475   3.867   6.000   6.835 -0.3770  1.2039  1.0437
 8354TIP3   OH246476   5.728   4.312  16.128  0.1704 -0.0806  0.2781
 8354TIP3    H146477   5.765   4.328  16.041 -2.3927  1.0046 -0.7148
 8354TIP3    H246478   5.720   4.217  16.134  3.1371 -0.4158  0.6716
 8355TIP3   OH246479   0.613   2.894   4.764 -0.5079  0.2362  0.1059
 8355TIP3    H146480   0.536   2.885   4.820 -0.5225 -0.3906 -0.0059
 8355TIP3    H246481   0.675   2.830   4.798 -0.9296 -0.9491 -1.2606
 8356TIP3   OH246482   2.223   4.295  16.855 -0.1053  0.0046  0.1947
 8356TIP3    H146483   2.316   4.274  16.851  0.0122  0.6807 -1.2160
 8356TIP3    H246484   2.179   4.209  16.849  0.4137 -0.2044 -0.7516
 8357TIP3   OH246485   1.650   5.131   3.769  0.9989 -0.2220 -0.3772
 8357TIP3    H146486   1.574   5.182   3.795 -0.7155 -2.4929 -0.6120
 8357TIP3    H246487   1.696   5.113   3.851 -0.0323 -0.7706  0.0944
 8358TIP3   OH246488   6.423   0.477   3.763  0.1016 -0.4215  0.6029
 8358TIP3    H146489   6.435   0.559   3.717 -1.8655 -0.7338 -0.5776
 8358TIP3    H246490   6.383   0.419   3.698  0.6452 -2.0551  1.6623
 8359TIP3   OH246491   6.096   3.054  15.685  0.1317 -0.3554 -0.2813
 8359TIP3    H146492   6.156   3.082  15.755 -0.2294 -0.5911  0.1280
 8359TIP3    H246493   6.151   2.999  15.629  0.6476  0.5413 -0.6725
 8360TIP3   OH246494   5.714   4.274  10.471 -0.4943  0.1893  0.2045
 8360TIP3    H146495   5.707   4.343  10.406  2.7143  0.7578  0.3038
 8360TIP3    H246496   5.695   4.316  10.555 -0.5379  0.4544  0.0595
 8361TIP3   OH246497   5.843   1.339  13.416  0.4418  0.1528  0.3168
 8361TIP3    H146498   5.839   1.392  13.337  0.1901  0.9681  0.8574
 8361TIP3    H246499   5.838   1.248  13.385  1.7738  0.3877 -0.6959
 8362TIP3   OH246500   2.539   5.233  12.226 -0.1623  0.4595 -0.1293
 8362TIP3    H146501   2.614   5.272  12.181 -0.0679  2.3822  1.5322
 8362TIP3    H246502   2.554   5.139  12.219  1.1189  0.7268 -1.8930
 8363TIP3   OH246503   5.566   1.507  11.329  0.2017 -0.4234 -0.4534
 8363TIP3    H146504   5.566   1.448  11.405 -0.9334  0.7423  0.5026
 8363TIP3    H246505   5.553   1.594  11.366  0.2016  0.2527 -1.9563
 8364TIP3   OH246506   2.500   2.682  12.815 -0.3776  0.0721  0.8791
 8364TIP3    H146507   2.586   2.666  12.852  0.6155  0.2591 -1.2244
 8364TIP3    H246508   2.486   2.611  12.753 -1.0854  0.8477  0.1200
 8365TIP3   OH246509   5.021   1.522  12.520  0.2225 -0.3088  0.0451
 8365TIP3    H146510   4.932   1.549  12.499 -0.4624  0.3008  3.2176
 8365TIP3    H246511   5.020   1.427  12.512 -0.5570 -0.2738 -0.3819
 8366TIP3   OH246512   3.393   2.487  12.889  0.4244 -0.2876  0.2504
 8366TIP3    H146513   3.402   2.422  12.819  0.4046 -1.2790  1.1378
 8366TIP3    H246514   3.366   2.436  12.965 -1.5272  1.0309  0.5030
 8367TIP3   OH246515   5.424   6.740   6.809  0.2346  0.0544 -0.1182
 8367TIP3    H146516   5.434   6.649   6.781 -0.2653 -0.4158  1.2027
 8367TIP3    H246517   5.495   6.786   6.764  0.7898 -1.0615 -0.4200
 8368TIP3   OH246518   2.191   6.188  11.043  0.4993 -0.1443 -1.0770
 8368TIP3    H146519   2.195   6.195  10.947 -1.8619 -0.6288 -1.2683
 8368TIP3    H246520   2.110   6.140  11.060  0.8394 -0.0012  1.1848
 8369TIP3   OH246521   6.748   0.162   4.988 -0.1267  0.7766 -0.2797
 8369TIP3    H146522   6.661   0.138   5.019  0.1602 -0.9137 -0.6318
 8369TIP3    H246523   6.739   0.250   4.952 -1.0143  1.8103  2.3114
 8370TIP3   OH246524   1.893   0.409  16.689 -0.1799 -0.5109 -0.3435
 8370TIP3    H146525   1.950   0.481  16.662 -0.9888  1.3688  2.4946
 8370TIP3    H246526   1.891   0.414  16.785 -1.7540 -3.1860 -0.1242
 8371TIP3   OH246527   6.128   1.239   3.343 -0.4530 -0.0143 -0.0390
 8371TIP3    H146528   6.053   1.231   3.284  0.4954  0.8953 -1.4145
 8371TIP3    H246529   6.123   1.328   3.378  0.5588  0.4379 -0.9867
 8372TIP3   OH246530   3.074   0.295  12.600  0.2435 -0.3779 -0.1607
 8372TIP3    H146531   3.000   0.293  12.660 -0.4662 -0.5553 -1.0295
 8372TIP3    H246532   3.151   0.299  12.658 -0.4514  0.5973  0.7306
 8373TIP3   OH246533   0.699   6.028   6.355  0.5056 -0.3073  1.2190
 8373TIP3    H146534   0.765   6.072   6.410  1.3453 -1.4452  1.1688
 8373TIP3    H246535   0.741   6.020   6.270 -0.1262 -0.1149  0.8826
 8374TIP3   OH246536   1.936   5.295   6.912 -0.1288 -0.1769  0.0387
 8374TIP3    H146537   1.845   5.266   6.921 -0.6438  0.9102 -1.3945
 8374TIP3    H246538   1.971   5.244   6.839  0.1316  0.0842 -0.0226
 8375TIP3   OH246539   3.104   5.462   2.554  0.5559  0.1982  0.1451
 8375TIP3    H146540   3.079   5.548   2.521  0.1829  0.7974  1.9128
 8375TIP3    H246541   3.196   5.453   2.529  0.8547  1.5111  0.7057
 8376TIP3   OH246542   0.923   1.301  16.077 -0.3154  0.3619 -0.0300
 8376TIP3    H146543   0.955   1.377  16.125 -0.6222  0.4816 -0.0116
 8376TIP3    H246544   0.851   1.268  16.131 -0.5262  0.3732 -0.3068
 8377TIP3   OH246545   5.272   1.860   2.675 -0.4151  0.6560  0.6125
 8377TIP3    H146546   5.246   1.778   2.718 -0.6522  0.8602  0.8604
 8377TIP3    H246547   5.223   1.928   2.721 -0.6905  0.8733  0.0079
 8378TIP3   OH246548   6.000   4.567   0.370 -0.4020  0.0225  0.3459
 8378TIP3    H146549   5.966   4.634   0.311  2.2812  0.7322 -0.5633
 8378TIP3    H246550   5.974   4.597   0.457 -1.4971  0.8058 -0.2238
 8379TIP3   OH246551   6.618   3.331   4.048 -0.2312  0.6152  0.4519
 8379TIP3    H146552   6.695   3.373   4.086  0.0636 -1.2839  2.1136
 8379TIP3    H246553   6.652   3.252   4.005 -1.0927  0.4665  0.0134
 8380TIP3   OH246554   3.330   2.022  16.019  0.1279 -0.5398  0.2034
 8380TIP3    H146555   3.422   1.998  16.029  0.0743 -0.5358  0.7144
 8380TIP3    H246556   3.332   2.107  15.975  0.3667 -0.5302  0.2325
 8381TIP3   OH246557   2.005   3.671  17.234 -0.2547  0.4508  0.6405
 8381TIP3    H146558   2.021   3.761  17.206 -0.9048  0.6752  0.9720
 8381TIP3    H246559   2.030   3.618  17.158  0.9127  0.8500  0.7314
 8382TIP3   OH246560   6.171   4.634  12.938 -0.0616  0.5105 -0.3351
 8382TIP3    H146561   6.121   4.552  12.936 -1.7878  1.4427  1.2260
 8382TIP3    H246562   6.192   4.646  13.031  2.6958  0.4448 -0.8591
 8383TIP3   OH246563   0.149   6.641  14.508  0.1052 -0.4032  0.3941
 8383TIP3    H146564   0.164   6.641  14.413  0.6602 -0.4556  0.4769
 8383TIP3    H246565   0.180   6.556  14.537  0.7699 -0.0519  0.7416
 8384TIP3   OH246566   2.536   2.465  11.106  0.2313  0.6026  0.1788
 8384TIP3    H146567   2.573   2.539  11.058  2.0002 -0.4978 -0.2606
 8384TIP3    H246568   2.466   2.432  11.050 -0.0976  1.4886  0.0513
 8385TIP3   OH246569   5.673   3.743  17.126 -0.5221  0.2132 -0.0788
 8385TIP3    H146570   5.705   3.826  17.091 -0.3334  0.6989  1.2023
 8385TIP3    H246571   5.578   3.754  17.134 -0.5072  0.2740  0.0097
 8386TIP3   OH246572   3.221   2.838  16.030  0.0432 -0.3463  0.2233
 8386TIP3    H146573   3.273   2.893  15.972 -1.5382 -0.0988 -1.0349
 8386TIP3    H246574   3.240   2.872  16.118  0.6636  0.8707 -0.3484
 8387TIP3   OH246575   6.375   3.551  13.334  0.2413 -1.0714  0.1872
 8387TIP3    H146576   6.432   3.590  13.268 -0.9506 -1.5042 -1.1471
 8387TIP3    H246577   6.435   3.514  13.399  1.4426 -0.5161 -0.5748
 8388TIP3   OH246578   4.593   1.752  13.083 -0.0891 -0.6478  0.2620
 8388TIP3    H146579   4.676   1.781  13.121  0.0532 -0.4322 -0.2073
 8388TIP3    H246580   4.561   1.828  13.035 -0.4742 -0.7849  0.3039
 8389TIP3   OH246581   6.140   0.901  12.382  1.0221 -0.5798 -0.2038
 8389TIP3    H146582   6.147   0.930  12.473  2.3457 -0.6487 -0.2750
 8389TIP3    H246583   6.108   0.811  12.389  0.9029 -0.5125  0.1814
 8390TIP3   OH246584   1.842   1.416  16.871  0.0899  0.0070  0.1201
 8390TIP3    H146585   1.896   1.457  16.803 -0.5397 -1.1495 -1.1272
 8390TIP3    H246586   1.752   1.430  16.842 -0.1581 -1.4921  0.0991
 8391TIP3   OH246587   1.478   0.496   2.529 -0.1743 -0.1294  0.1095
 8391TIP3    H146588   1.464   0.573   2.475 -0.2667 -0.1245  0.1405
 8391TIP3    H246589   1.557   0.516   2.579 -0.8085  0.4078  0.9323
 8392TIP3   OH246590   2.025   0.198  14.140  0.9640 -0.1841 -0.1058
 8392TIP3    H146591   2.043   0.289  14.167 -0.4639  0.3927 -1.0061
 8392TIP3    H246592   1.940   0.178  14.178  0.0661 -0.2173 -2.0188
 8393TIP3   OH246593   6.450   5.087   6.109 -0.3693 -0.0443 -0.0193
 8393TIP3    H146594   6.501   5.006   6.117 -2.1388 -1.5442 -2.4665
 8393TIP3    H246595   6.401   5.093   6.191 -0.8598 -1.9703 -0.1336
 8394TIP3   OH246596   3.678   5.772  12.228  0.2747  0.1866  0.5276
 8394TIP3    H146597   3.736   5.843  12.198  0.9026  0.2263  1.7801
 8394TIP3    H246598   3.672   5.714  12.153 -1.2493  2.1503 -0.9819
 8395TIP3   OH246599   0.229   6.296   5.244 -0.1598 -0.0227  0.2083
 8395TIP3    H146600   0.187   6.375   5.209  0.2439  0.2054  0.2280
 8395TIP3    H246601   0.273   6.326   5.323  0.7795 -0.0528 -0.2830
 8396TIP3   OH246602   5.719   4.843   0.846  0.4888 -0.0122 -0.4125
 8396TIP3    H146603   5.645   4.809   0.796  0.2084  1.1153 -0.8028
 8396TIP3    H246604   5.793   4.788   0.819 -0.2667 -1.4012  0.2801
 8397TIP3   OH246605   4.079   2.105  12.879 -0.3650 -0.1769 -0.4130
 8397TIP3    H146606   4.120   2.134  12.798  1.5883  0.3279  0.6834
 8397TIP3    H246607   4.052   2.015  12.863 -1.8995  0.5336 -2.2400
 8398TIP3   OH246608   2.433   2.989  11.141  0.4728  0.6108 -0.1589
 8398TIP3    H146609   2.516   2.965  11.101 -0.3774 -0.8218 -1.1499
 8398TIP3    H246610   2.444   3.080  11.168  1.5287  1.2301 -2.5122
 8399TIP3   OH246611   6.419   2.022   1.738 -0.3798  0.2961  0.3080
 8399TIP3    H146612   6.343   1.988   1.786  0.0656  0.1646  0.9383
 8399TIP3    H246613   6.428   2.112   1.770 -1.4067  0.9706 -1.1729
 8400TIP3   OH246614   3.436   4.469  14.455 -0.0690  0.0724 -0.1720
 8400TIP3    H146615   3.367   4.461  14.389 -0.0418  0.7246 -0.2797
 8400TIP3    H246616   3.484   4.548  14.430 -0.6006  0.8375  1.1312
 8401TIP3   OH246617   5.938   3.926   4.145 -0.0059  0.2690  0.8001
 8401TIP3    H146618   5.844   3.924   4.132  0.1978 -1.0312 -0.9370
 8401TIP3    H246619   5.954   3.863   4.215 -0.4884  1.3295  1.8923
 8402TIP3   OH246620   4.584   6.087  12.418 -0.2425 -0.0467  0.0878
 8402TIP3    H146621   4.623   6.022  12.476  0.7644  0.1083 -0.3912
 8402TIP3    H246622   4.653   6.106  12.354 -0.3182  1.8643  0.5182
 8403TIP3   OH246623   1.803   0.170  16.579  0.4933  0.2890 -0.2956
 8403TIP3    H146624   1.815   0.255  16.620 -0.1058  0.2705 -0.0651
 8403TIP3    H246625   1.886   0.151  16.537  0.1159  1.7464 -1.7682
 8404TIP3   OH246626   2.871   6.610  14.592  0.5565  0.5236 -0.4814
 8404TIP3    H146627   2.886   6.519  14.616  0.3451  0.7526  0.5494
 8404TIP3    H246628   2.785   6.631  14.629  1.1146  1.4707  0.3229
 8405TIP3   OH246629   3.272   6.269   5.386  0.1899  0.3449  0.0021
 8405TIP3    H146630   3.180   6.296   5.394  0.7480  2.5030 -0.3998
 8405TIP3    H246631   3.320   6.350   5.371  2.1740 -0.7580  0.0732
 8406TIP3   OH246632   0.841   2.753   6.328  0.1087  0.0559  0.3836
 8406TIP3    H146633   0.933   2.728   6.337 -0.4435 -2.1340  0.4389
 8406TIP3    H246634   0.793   2.670   6.333 -1.8419  1.1018 -0.1414
 8407TIP3   OH246635   6.119   0.392   4.703 -0.2261  1.1508 -0.6333
 8407TIP3    H146636   6.028   0.421   4.705 -1.5184 -2.3170  2.4924
 8407TIP3    H246637   6.158   0.435   4.779 -0.5551 -0.5788  0.5734
 8408TIP3   OH246638   3.353   3.985  15.549 -0.5347 -0.3820  0.4086
 8408TIP3    H146639   3.419   3.957  15.486  1.6643  2.9970  0.9692
 8408TIP3    H246640   3.269   3.969  15.505  0.7364 -1.8968 -1.6364
 8409TIP3   OH246641   4.532   6.749  17.258 -0.0650  0.0789  0.0635
 8409TIP3    H146642   4.614   6.791  17.232  0.1456 -1.6253 -2.3959
 8409TIP3    H246643   4.464   6.806  17.221  0.1517 -0.4870 -1.2518
 8410TIP3   OH246644   0.549   3.960  15.543  0.2601  0.1226 -0.1517
 8410TIP3    H146645   0.578   4.052  15.548 -0.9911  0.5263  0.1192
 8410TIP3    H246646   0.598   3.916  15.613 -0.7535  1.0689  1.2063
 8411TIP3   OH246647   4.050   1.718   3.116 -0.1694 -0.7879 -0.1570
 8411TIP3    H146648   4.033   1.812   3.112 -0.9087 -0.8986  0.1775
 8411TIP3    H246649   3.987   1.679   3.055  0.7161 -1.0003 -0.9409
 8412TIP3   OH246650   1.349   1.042   5.351  0.6663 -0.1120 -0.3130
 8412TIP3    H146651   1.411   1.013   5.418  0.4217  0.3195  0.1097
 8412TIP3    H246652   1.325   1.130   5.378  0.2755 -0.0774 -0.7672
 8413TIP3   OH246653   4.678   3.209   4.727 -0.3328 -0.6534 -0.2211
 8413TIP3    H146654   4.635   3.211   4.813 -0.6602  0.8124 -0.3979
 8413TIP3    H246655   4.606   3.200   4.664 -0.5047  2.1476 -0.5404
 8414TIP3   OH246656   6.345   0.255  12.331  0.3781 -1.1348 -0.3070
 8414TIP3    H146657   6.428   0.236  12.288  0.2484 -2.0830 -0.1572
 8414TIP3    H246658   6.349   0.206  12.413  0.2465 -0.0628  0.3580
 8415TIP3   OH246659   4.617   6.494  13.255 -0.4794  0.4246 -0.3881
 8415TIP3    H146660   4.620   6.512  13.162  0.5284 -0.0972 -0.4605
 8415TIP3    H246661   4.707   6.478  13.281 -0.7379  0.5688  0.6829
 8416TIP3   OH246662   2.813   6.243  13.626 -0.2993 -0.1125 -0.2694
 8416TIP3    H146663   2.775   6.229  13.713 -0.2313  0.2558 -0.1822
 8416TIP3    H246664   2.759   6.312  13.588  1.6068  2.0215  0.6831
 8417TIP3   OH246665   3.147   1.965  14.279 -0.4712 -0.0658 -0.3852
 8417TIP3    H146666   3.219   1.909  14.251 -0.3675  0.0590 -0.3734
 8417TIP3    H246667   3.070   1.910  14.275 -0.4000 -0.1538 -0.5611
 8418TIP3   OH246668   0.727   1.279   4.039 -0.0130  0.2182  0.2205
 8418TIP3    H146669   0.753   1.254   3.950 -1.1498  1.1231 -0.3864
 8418TIP3    H246670   0.796   1.340   4.067 -0.9357  1.9122 -1.0408
 8419TIP3   OH246671   2.792   1.265   2.237  0.2516 -0.4700  0.7676
 8419TIP3    H146672   2.878   1.301   2.216  0.5109 -1.7862 -0.5762
 8419TIP3    H246673   2.804   1.170   2.231 -1.1453 -0.6998  1.2315
 8420TIP3   OH246674   2.277   2.562   3.007  0.5482  0.2614  0.2853
 8420TIP3    H146675   2.212   2.497   2.982 -0.1718  1.0416  0.1028
 8420TIP3    H246676   2.233   2.618   3.071  0.9270  0.9902 -0.0787
 8421TIP3   OH246677   2.247   4.108   4.526  0.2202 -0.4981 -0.0230
 8421TIP3    H146678   2.175   4.047   4.508  1.2556 -1.9233  0.4409
 8421TIP3    H246679   2.205   4.192   4.542 -1.3379 -1.3219  0.3440
 8422TIP3   OH246680   3.295   4.589  11.910  1.0127  0.0503  0.1628
 8422TIP3    H146681   3.235   4.606  11.983  1.1265  0.8443  0.0820
 8422TIP3    H246682   3.379   4.569  11.952  0.6667 -1.2756  0.2847
 8423TIP3   OH246683   5.329   3.838  16.116  0.0468 -0.0480 -0.3496
 8423TIP3    H146684   5.244   3.856  16.076 -0.1940  0.7600  0.5071
 8423TIP3    H246685   5.379   3.919  16.103  0.3911 -0.2155 -0.0824
 8424TIP3   OH246686   2.092   1.380  15.387 -0.6945  0.3599  1.0423
 8424TIP3    H146687   2.056   1.419  15.307  3.5197 -0.6041 -1.6483
 8424TIP3    H246688   2.168   1.434  15.408 -0.9824 -0.1695  3.7438
 8425TIP3   OH246689   0.413   0.483   0.920  0.0830 -0.1626 -0.7308
 8425TIP3    H146690   0.475   0.553   0.942  0.5226 -0.9201  0.4777
 8425TIP3    H246691   0.434   0.460   0.830  1.1806 -0.0093 -0.5237
 8426TIP3   OH246692   3.000   6.117  12.187  0.1195 -0.3391 -0.2059
 8426TIP3    H146693   3.004   6.070  12.103  0.3350  0.1631 -0.4814
 8426TIP3    H246694   3.061   6.190  12.176  0.9787 -0.8802  0.7771
 8427TIP3   OH246695   5.593   4.716  12.015  0.2658  0.4403  0.7553
 8427TIP3    H146696   5.615   4.624  12.022  2.2783  0.7799 -0.3234
 8427TIP3    H246697   5.499   4.720  12.031  0.3860 -1.5731  2.4021
 8428TIP3   OH246698   1.289   4.054   4.971  0.0626  0.1290  0.1197
 8428TIP3    H146699   1.316   4.125   4.913  2.9449 -1.5401 -0.7486
 8428TIP3    H246700   1.213   4.015   4.928 -0.8937  1.8990  0.0685
 8429TIP3   OH246701   0.323   1.825  11.204 -0.2436  0.4509  0.2621
 8429TIP3    H146702   0.416   1.817  11.181 -0.5823  0.5654 -1.2870
 8429TIP3    H246703   0.288   1.737  11.190 -0.5835  0.6635 -0.2513
 8430TIP3   OH246704   1.442   0.327  10.914 -0.4199  0.0430  0.6759
 8430TIP3    H146705   1.530   0.293  10.934 -0.1691 -0.7370 -1.4242
 8430TIP3    H246706   1.457   0.392  10.845 -1.4645 -0.0008  0.3962
 8431TIP3   OH246707   2.038   2.998   4.588  0.2133  0.4751  0.3737
 8431TIP3    H146708   2.120   3.020   4.543 -0.2698  1.5451 -0.0052
 8431TIP3    H246709   2.058   3.006   4.681  1.6084 -3.0243  0.5435
 8432TIP3   OH246710   5.187   6.458   7.052  0.2806 -0.0341 -0.6212
 8432TIP3    H146711   5.095   6.434   7.057  0.3563 -1.5271 -3.8398
 8432TIP3    H246712   5.187   6.549   7.022 -0.1167  0.1353 -0.1129
 8433TIP3   OH246713   1.292   4.314   3.404 -0.3212 -0.3408 -0.3177
 8433TIP3    H146714   1.272   4.401   3.371  0.8645 -0.4156 -1.3078
 8433TIP3    H246715   1.228   4.257   3.363  0.0424 -0.1834 -1.1140
 8434TIP3   OH246716   5.850   5.496  16.966  0.0225 -0.2635 -0.2493
 8434TIP3    H146717   5.814   5.584  16.975  0.4454 -0.0830 -0.2956
 8434TIP3    H246718   5.906   5.485  17.043 -0.2813 -0.6150 -0.0742
 8435TIP3   OH246719   4.359   6.294   1.300 -0.1841  0.1311  0.0400
 8435TIP3    H146720   4.447   6.280   1.267 -0.5902 -1.4694 -0.4397
 8435TIP3    H246721   4.308   6.320   1.224 -0.2816  0.3927  0.1906
 8436TIP3   OH246722   3.162   2.049  12.892 -0.1007 -0.5625  0.6688
 8436TIP3    H146723   3.163   2.140  12.922  0.6301 -0.5870  0.7556
 8436TIP3    H246724   3.070   2.030  12.875 -0.0094  1.1780 -2.3760
 8437TIP3   OH246725   0.722   6.242  13.113 -0.2142  0.8923  0.1568
 8437TIP3    H146726   0.653   6.308  13.116 -1.5717 -0.4137 -0.7465
 8437TIP3    H246727   0.758   6.249  13.024  0.0260  0.7770  0.2420
 8438TIP3   OH246728   0.587   3.651   5.968  0.5197 -0.0728  0.0324
 8438TIP3    H146729   0.672   3.667   5.927  0.1239 -2.1099 -1.7145
 8438TIP3    H246730   0.607   3.597   6.044  0.7934 -0.6858 -0.4661
 8439TIP3   OH246731   2.591   2.645  15.141 -0.1256 -0.1684 -0.7233
 8439TIP3    H146732   2.607   2.737  15.161  0.9292 -0.7637  1.4910
 8439TIP3    H246733   2.664   2.599  15.182  0.3913 -1.8955 -3.3348
 8440TIP3   OH246734   6.478   0.744   0.577  0.0395 -0.0058 -0.1910
 8440TIP3    H146735   6.481   0.649   0.588  1.2909 -0.0766 -1.0379
 8440TIP3    H246736   6.519   0.779   0.656  0.0181 -0.1771 -0.1040
 8441TIP3   OH246737   1.811   0.125  14.319 -0.4325  0.0079 -0.0267
 8441TIP3    H146738   1.721   0.157  14.319 -0.5778 -0.3832 -0.6158
 8441TIP3    H246739   1.810   0.049  14.378 -0.4291  0.1745  0.1849
 8442TIP3   OH246740   4.663   3.188   5.273  0.1957  0.1986 -0.0019
 8442TIP3    H146741   4.742   3.186   5.218 -0.9689 -1.9828 -1.7290
 8442TIP3    H246742   4.650   3.281   5.292  2.0602  0.7979 -1.3419
 8443TIP3   OH246743   4.206   4.610  13.054 -0.5549 -0.1140 -0.0145
 8443TIP3    H146744   4.283   4.556  13.071 -1.1983 -0.3280  2.8637
 8443TIP3    H246745   4.161   4.567  12.982  2.8872  1.1080 -3.1868
 8444TIP3   OH246746   3.046   3.060   5.464 -0.3646  0.2065  0.0105
 8444TIP3    H146747   3.035   3.007   5.543 -0.5101 -0.6372 -0.5568
 8444TIP3    H246748   2.963   3.106   5.454 -0.4002  0.1988  0.2717
 8445TIP3   OH246749   6.042   1.194  11.300 -0.1968 -0.2806 -0.3165
 8445TIP3    H146750   6.052   1.122  11.363 -0.8825 -0.1140 -0.0097
 8445TIP3    H246751   6.034   1.272  11.354 -2.4014 -0.3023 -0.4966
 8446TIP3   OH246752   5.574   4.470  12.722 -0.3569 -0.3957  0.8450
 8446TIP3    H146753   5.659   4.427  12.711 -0.8222 -1.6786  1.9090
 8446TIP3    H246754   5.587   4.532  12.793  0.2626  1.1470 -0.5526
 8447TIP3   OH246755   0.548   2.898  13.911  0.3749  0.2867 -0.3475
 8447TIP3    H146756   0.501   2.935  13.836 -1.6945 -0.0317  0.7093
 8447TIP3    H246757   0.544   2.967  13.978  3.0652  0.9651 -0.7623
 8448TIP3   OH246758   4.374   1.743  16.907 -0.3894  0.4250 -0.6053
 8448TIP3    H146759   4.293   1.776  16.870 -0.7020 -0.5426 -0.7933
 8448TIP3    H246760   4.358   1.739  17.001 -1.3515 -1.7733 -0.7917
 8449TIP3   OH246761   2.018   0.305   0.322  0.3717  0.2567 -0.4032
 8449TIP3    H146762   1.930   0.288   0.356  0.1443  0.7851 -0.7152
 8449TIP3    H246763   2.046   0.222   0.285  0.6224 -0.3400  1.0400
 8450TIP3   OH246764   5.726   5.223  12.747  0.2331 -0.6523 -0.3886
 8450TIP3    H146765   5.725   5.154  12.813  0.9778 -0.9527 -0.6933
 8450TIP3    H246766   5.639   5.264  12.755  0.0208 -1.2021  0.2219
 8451TIP3   OH246767   5.002   0.881   4.362  0.1293  0.3064  0.3701
 8451TIP3    H146768   4.945   0.955   4.344 -1.0113 -0.6685 -0.2020
 8451TIP3    H246769   5.054   0.871   4.282  0.8357  0.9458  0.7385
 8452TIP3   OH246770   4.906   1.357  15.380  0.1758 -0.4951  0.6346
 8452TIP3    H146771   4.896   1.378  15.473 -0.2357  0.4701  0.3789
 8452TIP3    H246772   4.905   1.441  15.335  2.4235 -0.7821 -0.0856
 8453TIP3   OH246773   5.849   2.280  12.411 -0.1283 -0.4970  0.1801
 8453TIP3    H146774   5.842   2.339  12.336  1.4714 -0.5461 -0.0445
 8453TIP3    H246775   5.898   2.205  12.377 -1.5954 -1.7030  0.6214
 8454TIP3   OH246776   6.191   0.830   0.566  0.0505 -0.5160  0.1552
 8454TIP3    H146777   6.169   0.911   0.611  0.9039  1.2417 -2.4006
 8454TIP3    H246778   6.286   0.823   0.573 -0.0053 -1.2980  0.2956
 8455TIP3   OH246779   5.603   0.467   1.676 -0.4974  0.3599  0.0305
 8455TIP3    H146780   5.698   0.456   1.687 -0.0797  0.3273 -2.8308
 8455TIP3    H246781   5.567   0.450   1.763  2.0054 -0.9461  0.9331
 8456TIP3   OH246782   1.206   5.241  17.419  0.0968  0.0914 -0.5428
 8456TIP3    H146783   1.253   5.245  17.502 -0.0137  0.2413 -0.4872
 8456TIP3    H246784   1.199   5.147  17.400 -0.6156  0.0204  0.0375
 8457TIP3   OH246785   0.791   0.274   1.197 -0.2728 -0.1688 -0.2223
 8457TIP3    H146786   0.793   0.361   1.157 -4.4904 -0.4721 -1.6125
 8457TIP3    H246787   0.763   0.290   1.287 -1.8363 -0.0275 -0.6974
 8458TIP3   OH246788   4.470   1.491  13.763  0.1636  0.3449  0.5012
 8458TIP3    H146789   4.551   1.443  13.744 -0.8341 -0.7526 -1.2231
 8458TIP3    H246790   4.445   1.530  13.679  0.4449  3.2036  1.6473
 8459TIP3   OH246791   3.921   2.035   2.402 -0.4663 -0.1650 -0.1296
 8459TIP3    H146792   3.846   2.079   2.361 -0.7848  0.5519  1.1538
 8459TIP3    H246793   3.886   2.002   2.485 -0.1819 -2.7494 -0.9535
 8460TIP3   OH246794   5.666   4.624  15.109  0.6592 -0.1968  0.1185
 8460TIP3    H146795   5.739   4.605  15.050 -0.3122 -0.8292 -0.9274
 8460TIP3    H246796   5.708   4.651  15.191  2.0584  0.6912 -0.8271
 8461TIP3   OH246797   6.468   0.336  16.914 -0.6949 -0.3305  0.1392
 8461TIP3    H146798   6.486   0.313  16.823 -0.3797 -0.2387  0.1763
 8461TIP3    H246799   6.373   0.326  16.923 -0.8602  0.5813 -0.4579
 8462TIP3   OH246800   3.482   1.453   5.257  0.2513  0.3082 -0.0443
 8462TIP3    H146801   3.561   1.406   5.282  0.0455 -0.7287 -1.2328
 8462TIP3    H246802   3.411   1.409   5.303  0.1371 -0.1212 -0.6200
 8463TIP3   OH246803   6.269   5.275   0.330 -0.0577 -0.2095  0.0171
 8463TIP3    H146804   6.205   5.250   0.397  0.1810  0.2999  0.4452
 8463TIP3    H246805   6.218   5.324   0.265 -0.2022 -0.2887  0.0699
 8464TIP3   OH246806   0.457   1.937  15.896  0.3380  0.2533 -0.5341
 8464TIP3    H146807   0.362   1.937  15.905  0.3594 -0.3976 -0.2372
 8464TIP3    H246808   0.474   1.983  15.815 -0.2405  0.2828 -0.6403
 8465TIP3   OH246809   5.908   3.622  13.273  0.4223  0.1419 -0.2167
 8465TIP3    H146810   5.909   3.692  13.208  0.9245  0.9220  0.6035
 8465TIP3    H246811   5.912   3.541  13.222 -2.6059  0.5756 -1.3176
 8466TIP3   OH246812   4.690   4.420   1.739  0.0074 -0.1726  0.3008
 8466TIP3    H146813   4.692   4.477   1.816  2.4337  2.0331 -1.2308
 8466TIP3    H246814   4.774   4.376   1.740  0.5007  0.6330 -1.5398
 8467TIP3   OH246815   0.473   3.297  13.792  0.4651 -0.2503  0.3994
 8467TIP3    H146816   0.410   3.305  13.863 -1.0529 -0.3511 -0.8717
 8467TIP3    H246817   0.451   3.369  13.733  2.9146  1.0133  0.8791
 8468TIP3   OH246818   3.259   3.717   0.550 -0.0470  0.2500 -0.1494
 8468TIP3    H146819   3.237   3.699   0.458  0.2660 -0.9437 -0.0047
 8468TIP3    H246820   3.338   3.666   0.566  0.4941  1.2563  0.5109
 8469TIP3   OH246821   0.526   4.968   1.914 -0.1255  0.1127 -0.1489
 8469TIP3    H146822   0.445   4.960   1.863 -0.8811 -0.1228  1.0397
 8469TIP3    H246823   0.556   4.878   1.925 -0.6641  0.0453  0.8759
 8470TIP3   OH246824   0.950   4.365   6.028 -0.5241 -0.3103 -0.3102
 8470TIP3    H146825   0.915   4.315   6.101  0.6057 -2.0171 -0.8759
 8470TIP3    H246826   0.937   4.457   6.053 -1.2911 -0.8587  1.4460
 8471TIP3   OH246827   3.561   0.112   3.829 -0.1141  0.2966 -0.2399
 8471TIP3    H146828   3.555   0.200   3.791 -0.9735 -0.3567 -1.6683
 8471TIP3    H246829   3.471   0.090   3.854  0.2900  0.3369  1.4011
 8472TIP3   OH246830   0.732   5.804  16.454  1.2046  0.2485 -0.0054
 8472TIP3    H146831   0.681   5.883  16.469  0.4822 -0.7123  3.4086
 8472TIP3    H246832   0.747   5.803  16.360 -4.7591  0.8396 -1.3713
 8473TIP3   OH246833   1.280   1.165  17.232  0.5189 -0.5550  0.1798
 8473TIP3    H146834   1.198   1.167  17.184  0.2082  2.8814  0.6069
 8473TIP3    H246835   1.345   1.138  17.167 -0.4356  0.2896 -1.1835
 8474TIP3   OH246836   1.386   3.436   3.921  0.0670  0.0472 -0.5332
 8474TIP3    H146837   1.439   3.515   3.917 -1.0015  0.8406  0.3667
 8474TIP3    H246838   1.345   3.438   4.007 -0.8507 -0.8996 -0.9192
 8475TIP3   OH246839   0.753   5.359  17.187 -0.0807 -0.1850 -0.0246
 8475TIP3    H146840   0.720   5.397  17.106 -0.4203  0.2929  0.3334
 8475TIP3    H246841   0.675   5.337  17.238  0.1313 -0.2461  0.2825
 8476TIP3   OH246842   3.684   3.601   2.921 -0.0579 -0.7255  0.2643
 8476TIP3    H146843   3.668   3.696   2.916 -0.4393 -0.7132  1.4380
 8476TIP3    H246844   3.641   3.566   2.843  0.6719  0.1314 -0.5580
 8477TIP3   OH246845   2.239   2.742   5.356  0.1208  0.0286 -0.2245
 8477TIP3    H146846   2.300   2.686   5.307  1.4849 -0.7194  2.1757
 8477TIP3    H246847   2.295   2.800   5.407 -1.2276  0.7187  0.5284
 8478TIP3   OH246848   1.785   3.501   0.421 -0.5598 -0.1985  0.5849
 8478TIP3    H146849   1.858   3.441   0.403  0.2631  1.0416 -0.3597
 8478TIP3    H246850   1.826   3.587   0.429 -1.8438  0.4147  0.8354
 8479TIP3   OH246851   1.103   3.858   0.366 -0.1994  0.3839 -0.2520
 8479TIP3    H146852   1.089   3.798   0.293 -0.8452 -0.0059  0.1771
 8479TIP3    H246853   1.033   3.922   0.358 -0.3201  0.2924  0.0707
 8480TIP3   OH246854   2.748   3.188  13.591 -0.0834 -1.0203 -0.3194
 8480TIP3    H146855   2.748   3.283  13.601 -0.5084 -1.1304  0.9835
 8480TIP3    H246856   2.838   3.165  13.568  0.7587 -0.5276  2.1878
 8481TIP3   OH246857   1.719   5.563   5.747  0.2152 -0.5099  0.0443
 8481TIP3    H146858   1.749   5.513   5.822  0.2234  0.6665  0.8460
 8481TIP3    H246859   1.628   5.585   5.767 -0.7142 -2.5328 -1.5661
 8482TIP3   OH246860   3.639   2.244   3.880 -0.4494  0.5981  0.4098
 8482TIP3    H146861   3.613   2.208   3.795  0.7638  0.8488 -0.0950
 8482TIP3    H246862   3.631   2.338   3.869 -1.0494  0.5964  0.8396
 8483TIP3   OH246863   4.217   1.063   3.401  0.1532  0.1512  0.3322
 8483TIP3    H146864   4.290   1.094   3.456  0.4378  0.5373 -0.2479
 8483TIP3    H246865   4.260   1.032   3.321 -0.2959  0.0507  0.1302
 8484TIP3   OH246866   6.121   1.504  12.426 -0.2978  0.0180  0.1402
 8484TIP3    H146867   6.165   1.501  12.511 -0.1080 -1.6014  0.0253
 8484TIP3    H246868   6.029   1.521  12.446  0.0987  1.9586  0.4841
 8485TIP3   OH246869   5.692   0.809  11.990 -0.1799  0.0925 -0.4567
 8485TIP3    H146870   5.722   0.829  12.079  0.0724 -0.9408 -0.2920
 8485TIP3    H246871   5.765   0.763  11.950 -0.0325  1.1600 -1.4485
 8486TIP3   OH246872   1.730   2.405  14.583  0.8290  0.0551  0.0120
 8486TIP3    H146873   1.714   2.499  14.581 -1.0990 -0.2017  1.2180
 8486TIP3    H246874   1.823   2.397  14.600  0.9535  1.7464  0.3074
 8487TIP3   OH246875   4.427   2.015  16.390  0.1466 -0.5835  0.3846
 8487TIP3    H146876   4.333   2.032  16.392  0.2025  0.0121  3.6340
 8487TIP3    H246877   4.445   1.992  16.299 -2.8405  0.8000 -0.7027
 8488TIP3   OH246878   1.897   4.647  10.678 -0.9387 -0.2263  0.2682
 8488TIP3    H146879   1.933   4.685  10.598 -1.7351 -0.9861 -0.4777
 8488TIP3    H246880   1.973   4.630  10.734 -0.2663 -0.5784 -0.7281
 8489TIP3   OH246881   4.634   0.998  12.307 -0.0996  0.1307 -0.2030
 8489TIP3    H146882   4.567   1.065  12.321 -0.1689 -0.3929  2.4993
 8489TIP3    H246883   4.602   0.921  12.354  0.7766 -1.3210 -1.8205
 8490TIP3   OH246884   2.093   5.500  13.619  0.3131 -0.5193  0.6156
 8490TIP3    H146885   2.085   5.585  13.661  0.3389 -0.7048  1.0028
 8490TIP3    H246886   2.035   5.505  13.542  2.7426  0.9895 -1.2771
 8491TIP3   OH246887   6.619   4.449  17.416  0.3456 -0.1906  0.5740
 8491TIP3    H146888   6.672   4.369  17.420  0.3815 -0.2268 -0.3321
 8491TIP3    H246889   6.566   4.438  17.337 -0.5811  0.1177  1.1405
 8492TIP3   OH246890   3.680   1.906  16.743  0.0755 -0.2717  0.4590
 8492TIP3    H146891   3.641   1.844  16.682 -0.7259 -0.5244  1.2082
 8492TIP3    H246892   3.676   1.863  16.828  4.8219 -1.6676  0.2625
 8493TIP3   OH246893   1.030   0.687   3.717 -0.6183  0.1010 -0.6836
 8493TIP3    H146894   1.082   0.688   3.797 -2.5082 -1.4477  0.6698
 8493TIP3    H246895   1.072   0.751   3.660  1.9414 -0.1412  0.7852
 8494TIP3   OH246896   0.841   0.906  10.805  0.0211  0.1180  0.0747
 8494TIP3    H146897   0.921   0.854  10.814 -0.2715 -0.4744 -0.6384
 8494TIP3    H246898   0.870   0.985  10.759  0.2508  0.0321  0.0681
 8495TIP3   OH246899   0.773   5.666   5.250 -0.2969 -0.4388 -0.1789
 8495TIP3    H146900   0.707   5.598   5.262 -0.1860 -0.7650 -1.3151
 8495TIP3    H246901   0.771   5.717   5.331  0.1475 -2.2561  1.0228
 8496TIP3   OH246902   1.704   1.191  12.462  0.0398 -0.5295 -0.3446
 8496TIP3    H146903   1.710   1.153  12.375  0.3924 -1.7709  0.2063
 8496TIP3    H246904   1.624   1.244  12.460 -1.0654 -2.1397 -0.8157
 8497TIP3   OH246905   3.921   2.796   4.968 -0.3587  0.4650  0.4562
 8497TIP3    H146906   3.833   2.804   5.003 -1.1985 -1.2313 -1.0805
 8497TIP3    H246907   3.946   2.706   4.986 -0.3482 -0.1260 -2.0412
 8498TIP3   OH246908   5.324   5.937  12.259 -0.2847  0.3367  0.0344
 8498TIP3    H146909   5.327   5.957  12.353  2.2061  0.3836 -0.0014
 8498TIP3    H246910   5.268   6.005  12.222 -2.1653 -0.2733  1.5792
 8499TIP3   OH246911   0.249   2.322  15.775  0.3611  0.0239  0.6060
 8499TIP3    H146912   0.254   2.304  15.681  0.4026 -1.2245  0.8283
 8499TIP3    H246913   0.194   2.252  15.810  0.4841  0.3738  1.5403
 8500TIP3   OH246914   2.472   4.369  12.782  0.0128 -0.4817 -1.0346
 8500TIP3    H146915   2.476   4.405  12.871 -0.1188 -3.0424  0.0818
 8500TIP3    H246916   2.402   4.305  12.785  0.5588 -1.2135 -2.7752
 8501TIP3   OH246917   5.519   1.424  14.864 -0.0420  0.0108 -0.2368
 8501TIP3    H146918   5.530   1.497  14.804  2.0341  0.1441  0.2297
 8501TIP3    H246919   5.582   1.358  14.833 -1.0858 -1.1391  0.0164
 8502TIP3   OH246920   4.471   5.034  10.998  0.2428 -0.6962  0.0780
 8502TIP3    H146921   4.513   5.041  11.084  0.1965 -1.1362  0.1391
 8502TIP3    H246922   4.440   4.944  10.994  0.9526 -0.9139 -0.7262
 8503TIP3   OH246923   2.200   1.575   5.176  0.0258 -0.5978  0.0413
 8503TIP3    H146924   2.250   1.602   5.253 -0.8577 -1.7814  1.0651
 8503TIP3    H246925   2.185   1.656   5.128  0.7171  0.1415  1.0313
 8504TIP3   OH246926   0.290   5.288  13.336 -0.1244 -0.0626 -0.5123
 8504TIP3    H146927   0.249   5.278  13.422 -2.2417  2.5865 -1.0669
 8504TIP3    H246928   0.369   5.339  13.353 -0.3596  0.1703 -0.0854
 8505TIP3   OH246929   1.489   0.851  12.538  0.4343 -0.2431 -0.4215
 8505TIP3    H146930   1.549   0.915  12.576 -1.2250  0.9044  0.4501
 8505TIP3    H246931   1.477   0.880  12.447 -0.6703  1.0548  0.0931
 8506TIP3   OH246932   0.506   1.034  11.834  0.3348  0.1344  0.1512
 8506TIP3    H146933   0.564   1.041  11.909  0.2255 -1.0158  0.3688
 8506TIP3    H246934   0.525   1.111  11.781  0.2815  1.0544  1.4401
 8507TIP3   OH246935   4.995   0.871   3.860  0.5307 -0.5048 -0.3074
 8507TIP3    H146936   4.917   0.831   3.821  0.7080 -1.3287  0.1564
 8507TIP3    H246937   5.060   0.870   3.789  0.6014 -1.2592 -0.2423
 8508TIP3   OH246938   0.789   1.214   5.325 -0.5264 -0.6857  0.0941
 8508TIP3    H146939   0.780   1.306   5.303  0.2006 -0.4846  0.6016
 8508TIP3    H246940   0.856   1.181   5.266  0.0923 -0.5896  0.7379
 8509TIP3   OH246941   3.374   5.601  17.331  0.0180  0.9401 -0.1705
 8509TIP3    H146942   3.289   5.583  17.292  0.5800 -0.6977 -0.6866
 8509TIP3    H246943   3.385   5.534  17.398  1.4388  0.2977 -0.9928
 8510TIP3   OH246944   1.964   0.594   1.671  0.1498  0.3648 -0.2121
 8510TIP3    H146945   1.939   0.627   1.585 -0.0118 -0.0706 -0.3372
 8510TIP3    H246946   1.899   0.526   1.690  0.0921  0.5606  0.3226
 8511TIP3   OH246947   0.751   0.391  11.694  0.0271  0.4887  0.6015
 8511TIP3    H146948   0.669   0.356  11.658  0.8966 -0.3173 -0.6917
 8511TIP3    H246949   0.818   0.328  11.667  1.1190  1.2439  1.4375
 8512TIP3   OH246950   3.920   6.242   2.486 -0.5254 -0.1019  0.3963
 8512TIP3    H146951   3.878   6.157   2.501 -0.6748 -0.0843  0.0842
 8512TIP3    H246952   3.990   6.246   2.551 -1.6245  0.2877  1.5900
 8513TIP3   OH246953   1.768   3.843  12.624  0.3809 -0.5703  0.2633
 8513TIP3    H146954   1.851   3.808  12.591  0.8202 -0.5007  1.2542
 8513TIP3    H246955   1.783   3.854  12.718 -0.3313  0.6338  0.2509
 8514TIP3   OH246956   1.904   6.547  16.152 -0.4854 -0.0998  0.0092
 8514TIP3    H146957   1.919   6.570  16.244  0.1199 -0.4800  0.0076
 8514TIP3    H246958   1.929   6.455  16.146 -0.5280 -0.0780 -0.5384
 8515TIP3   OH246959   6.114   5.468   5.357 -0.2136  0.3839  0.0886
 8515TIP3    H146960   6.022   5.442   5.364 -0.3465  1.1866  2.4534
 8515TIP3    H246961   6.148   5.419   5.283 -2.4750 -0.1492 -0.6582
 8516TIP3   OH246962   1.292   2.310   1.901  0.2263 -0.3016  0.0019
 8516TIP3    H146963   1.322   2.399   1.918 -0.9606  0.0225  0.5524
 8516TIP3    H246964   1.322   2.291   1.812  2.0012 -0.0356  0.5071
 8517TIP3   OH246965   0.291   5.378   5.593  0.2770 -0.7499  0.1175
 8517TIP3    H146966   0.321   5.446   5.533  1.8631 -0.5930  1.0310
 8517TIP3    H246967   0.312   5.295   5.549 -2.3235 -0.7291 -1.3240
 8518TIP3   OH246968   6.312   4.169   3.577 -0.0442  0.1233 -0.0130
 8518TIP3    H146969   6.306   4.092   3.522 -0.4859 -0.7644  1.2393
 8518TIP3    H246970   6.362   4.232   3.525 -0.0833 -0.8218 -1.2359
 8519TIP3   OH246971   6.222   4.167   5.011 -0.3362 -0.3118 -0.3314
 8519TIP3    H146972   6.294   4.150   4.951 -1.3504  2.5711 -2.6671
 8519TIP3    H246973   6.256   4.234   5.071 -0.2489 -0.9569  0.3416
 8520TIP3   OH246974   3.148   5.621  14.019 -0.1499 -0.1243 -0.1655
 8520TIP3    H146975   3.198   5.574  14.086 -0.4623  0.0366  0.1821
 8520TIP3    H246976   3.057   5.602  14.040 -0.3081  1.0309  0.2704
 8521TIP3   OH246977   1.221   1.715   2.129  0.5767  0.3413  0.2000
 8521TIP3    H146978   1.308   1.754   2.132  0.7774 -0.1643  1.2136
 8521TIP3    H246979   1.232   1.634   2.080  0.7755  0.0139  0.7949
 8522TIP3   OH246980   2.506   5.063  13.854  0.5281 -0.9317  0.2129
 8522TIP3    H146981   2.570   5.043  13.922  1.0670  0.8924  0.2984
 8522TIP3    H246982   2.531   5.151  13.823 -0.0371 -1.4721 -1.9327
 8523TIP3   OH246983   2.417   5.808  12.201  0.3598 -0.5207 -0.4302
 8523TIP3    H146984   2.444   5.760  12.123  1.0893  0.7817 -1.0185
 8523TIP3    H246985   2.454   5.758  12.274  2.0192 -0.2904 -1.0773
 8524TIP3   OH246986   5.974   2.980   4.692 -0.2734 -0.3805  0.2537
 8524TIP3    H146987   6.053   2.928   4.677  0.2819  0.2576  0.8724
 8524TIP3    H246988   5.903   2.925   4.660  0.3479 -1.2947  0.3976
 8525TIP3   OH246989   6.314   5.130  13.435 -0.8592  0.6378  0.5052
 8525TIP3    H146990   6.401   5.171  13.443  0.2523 -1.1234 -1.4663
 8525TIP3    H246991   6.257   5.201  13.406  0.6647  1.2230 -1.2805
 8526TIP3   OH246992   0.698   5.136   3.737  0.3009 -0.6878  0.0965
 8526TIP3    H146993   0.612   5.113   3.701 -0.3366 -0.1288  1.2153
 8526TIP3    H246994   0.695   5.105   3.827  1.0050 -0.0131  0.3534
 8527TIP3   OH246995   4.605   5.328  14.836  0.5696 -0.2275  0.0359
 8527TIP3    H146996   4.617   5.420  14.863  0.0395 -0.0586 -0.2958
 8527TIP3    H246997   4.523   5.328  14.786  0.2002 -1.0100  0.6231
 8528TIP3   OH246998   4.753   3.237  12.796  0.0388  0.4376  0.6261
 8528TIP3    H146999   4.703   3.302  12.747  0.8189  1.9138  1.7236
 8528TIP3    H247000   4.833   3.282  12.822  0.5403 -0.9142  1.5632
 8529TIP3   OH247001   3.686   4.391  17.054 -0.9687  0.4029 -0.1732
 8529TIP3    H147002   3.730   4.456  16.999 -2.2124  2.3483  1.0185
 8529TIP3    H247003   3.752   4.366  17.119  0.2959 -1.4249 -2.0312
 8530TIP3   OH247004   5.827   3.295   2.472  0.3390  0.0955 -0.1086
 8530TIP3    H147005   5.753   3.238   2.451 -0.7940  1.1873  0.7645
 8530TIP3    H247006   5.868   3.313   2.388 -1.6202  1.0904 -0.9137
 8531TIP3   OH247007   4.533   1.140   1.147 -0.7058 -0.2952  0.9907
 8531TIP3    H147008   4.622   1.147   1.181 -0.0825 -0.7011 -0.4539
 8531TIP3    H247009   4.509   1.049   1.161 -0.2762 -0.5771  0.0157
 8532TIP3   OH247010   2.289   4.077   3.290  0.3828  0.5863 -0.3319
 8532TIP3    H147011   2.252   4.138   3.227  1.0355  0.6887 -0.6321
 8532TIP3    H247012   2.381   4.104   3.298  1.2602 -1.5578 -2.0048
 8533TIP3   OH247013   1.387   0.689  14.915 -0.1450 -0.0863 -0.0103
 8533TIP3    H147014   1.371   0.689  14.821 -1.3268 -4.4221 -0.0595
 8533TIP3    H247015   1.306   0.723  14.954  0.5470  2.2374 -0.4504
 8534TIP3   OH247016   3.658   3.140   1.484  0.2204  0.1563  0.2543
 8534TIP3    H147017   3.738   3.129   1.535 -0.5164  1.5299  1.8052
 8534TIP3    H247018   3.680   3.207   1.419  0.2527  0.8004  0.9136
 8535TIP3   OH247019   6.593   0.813  11.053  0.1852 -0.4742  0.0664
 8535TIP3    H147020   6.674   0.773  11.084  1.6221  1.4286 -0.9409
 8535TIP3    H247021   6.603   0.816  10.957 -0.2974  1.2371  0.0282
 8536TIP3   OH247022   1.230   3.210  14.993  0.3700 -0.1818 -0.1554
 8536TIP3    H147023   1.262   3.231  15.081  1.2003  2.5860 -1.0393
 8536TIP3    H247024   1.180   3.287  14.966 -0.8108 -1.4246 -1.7133
 8537TIP3   OH247025   0.569   4.453   0.782 -0.0806 -0.4161 -0.1162
 8537TIP3    H147026   0.491   4.416   0.824  0.2705 -1.7101 -0.5586
 8537TIP3    H247027   0.552   4.547   0.777 -1.4012 -0.6266  0.2152
 8538TIP3   OH247028   4.188   6.142   2.048  0.1637 -0.2259 -0.2506
 8538TIP3    H147029   4.259   6.196   2.013  0.1427 -0.8211 -1.2676
 8538TIP3    H247030   4.223   6.107   2.130  1.1694 -0.7350 -0.8721
 8539TIP3   OH247031   5.464   2.651   2.707 -0.4429 -0.1139  0.5582
 8539TIP3    H147032   5.461   2.611   2.794 -0.4565 -3.4503 -0.8211
 8539TIP3    H247033   5.372   2.656   2.681 -0.3766 -0.1796  0.3111
 8540TIP3   OH247034   1.451   1.688  15.003  0.0580  0.1619 -0.2121
 8540TIP3    H147035   1.503   1.615  14.969  0.5371  0.4337 -0.0790
 8540TIP3    H247036   1.490   1.766  14.963 -0.7496  0.3126 -0.7207
 8541TIP3   OH247037   3.685   3.338   1.238  0.0660 -0.0906 -0.4175
 8541TIP3    H147038   3.755   3.338   1.172  0.1912  0.2709 -0.2881
 8541TIP3    H247039   3.612   3.384   1.195  0.8630  2.1083  0.4175
 8542TIP3   OH247040   1.292   5.270   1.716 -0.1056  0.3287 -0.4982
 8542TIP3    H147041   1.204   5.233   1.722 -0.5861  1.4245 -0.4767
 8542TIP3    H247042   1.283   5.344   1.655  0.7262  0.6502 -0.2507
 8543TIP3   OH247043   4.374   6.200   0.436 -0.0871 -0.2013 -0.2437
 8543TIP3    H147044   4.446   6.249   0.395  1.4910 -1.1407  1.2875
 8543TIP3    H247045   4.347   6.138   0.369  0.2517  0.4177 -0.9792
 8544TIP3   OH247046   0.578   3.503   4.837  0.3284  0.4010 -0.3954
 8544TIP3    H147047   0.602   3.464   4.921 -0.8973  0.6541  0.1001
 8544TIP3    H247048   0.512   3.569   4.860  1.1454  1.6083 -1.3862
 8545TIP3   OH247049   6.405   6.316   6.640  0.4240  0.1716  0.0173
 8545TIP3    H147050   6.323   6.327   6.686 -0.0093  1.0146 -0.9154
 8545TIP3    H247051   6.472   6.343   6.702  0.0386 -0.8734  0.9110
 8546TIP3   OH247052   1.819   6.556  11.904 -0.1014  0.0187  0.6255
 8546TIP3    H147053   1.820   6.553  11.808 -1.2143  0.0455  0.5915
 8546TIP3    H247054   1.820   6.650  11.924  0.5148  0.0079  0.6547
 8547TIP3   OH247055   5.442   5.598  14.576 -0.2736 -0.1590 -0.0338
 8547TIP3    H147056   5.356   5.596  14.617 -1.2813  1.0461 -1.9146
 8547TIP3    H247057   5.437   5.671  14.514  2.4552  0.5804  0.5040
 8548TIP3   OH247058   0.196   4.824   2.165 -0.5568  0.2815  0.2089
 8548TIP3    H147059   0.290   4.808   2.155 -0.3690  1.3752  0.0138
 8548TIP3    H247060   0.177   4.895   2.103 -1.4173  0.3935  0.5820
 8549TIP3   OH247061   4.609   2.052  10.627 -0.2818 -0.3306  0.3887
 8549TIP3    H147062   4.662   2.027  10.552  0.4212 -1.0609  1.1105
 8549TIP3    H247063   4.527   2.003  10.616 -1.0386  1.1379 -0.9629
 8550TIP3   OH247064   5.231   5.720  16.284  0.1151 -0.2440 -0.1621
 8550TIP3    H147065   5.204   5.798  16.236 -1.4415  0.0690  1.1251
 8550TIP3    H247066   5.245   5.653  16.217 -3.5585 -0.2977 -1.0672
 8551TIP3   OH247067   1.576   5.653   6.237  0.0796  0.0303  0.2027
 8551TIP3    H147068   1.493   5.641   6.284 -1.2556  0.8155 -1.8339
 8551TIP3    H247069   1.609   5.737   6.268 -1.6657  1.3879 -1.3865
 8552TIP3   OH247070   5.850   1.478   3.616  0.9463 -0.4573 -0.6720
 8552TIP3    H147071   5.767   1.433   3.632  0.2118  0.8142 -0.7517
 8552TIP3    H247072   5.846   1.503   3.524  1.0666  0.2902 -0.4796
 8553TIP3   OH247073   3.778   5.766   3.421 -0.3317 -0.4914 -1.1858
 8553TIP3    H147074   3.741   5.853   3.409  0.2254 -0.2960 -1.5648
 8553TIP3    H247075   3.711   5.706   3.388 -1.5205 -0.3439  0.8409
 8554TIP3   OH247076   2.489   2.871  16.184 -0.3621 -0.1529 -0.3880
 8554TIP3    H147077   2.494   2.786  16.142 -1.0893 -0.6765  0.5532
 8554TIP3    H247078   2.395   2.889  16.191 -0.2265  1.2898 -1.6476
 8555TIP3   OH247079   4.797   1.366   5.147  0.3183  0.3136  0.1682
 8555TIP3    H147080   4.761   1.449   5.179  1.0489  0.7467 -0.1022
 8555TIP3    H247081   4.883   1.360   5.188 -0.0374 -0.7014  0.8005
 8556TIP3   OH247082   4.607   0.819  15.915  0.4038 -0.2783 -0.3532
 8556TIP3    H147083   4.513   0.805  15.917 -0.2308  3.0748  0.1310
 8556TIP3    H247084   4.631   0.810  15.822 -0.8308  0.8833 -0.8132
 8557TIP3   OH247085   2.791   0.121   4.630  0.0414  0.4049  1.0953
 8557TIP3    H147086   2.831   0.081   4.553 -1.7883 -0.7625  0.6871
 8557TIP3    H247087   2.795   0.053   4.697 -3.0348 -0.6492  0.4148
 8558TIP3   OH247088   4.246   0.575  14.074 -0.2725  0.2383  0.1532
 8558TIP3    H147089   4.229   0.538  14.161  0.3586 -0.0191  0.1725
 8558TIP3    H247090   4.312   0.642  14.090 -0.4162  0.4323 -0.0776
 8559TIP3   OH247091   2.979   2.677   3.959 -0.2976  0.3561 -0.1391
 8559TIP3    H147092   2.903   2.728   3.984 -0.3494  1.7680 -2.8778
 8559TIP3    H247093   3.052   2.738   3.964  0.2166 -0.2389 -0.1687
 8560TIP3   OH247094   2.061   0.902  14.965 -0.6918 -0.1776  0.3799
 8560TIP3    H147095   2.010   0.848  15.025 -1.8293  0.3278 -0.1147
 8560TIP3    H247096   2.058   0.990  15.004 -1.1253  0.0776 -0.2203
 8561TIP3   OH247097   6.442   0.719  16.789 -0.0253  0.4090 -0.0285
 8561TIP3    H147098   6.350   0.694  16.794 -0.0223  0.4454  0.2005
 8561TIP3    H247099   6.487   0.639  16.762 -0.1969  0.5458 -0.7348
 8562TIP3   OH247100   5.389   6.037  15.289  0.9059 -0.0113  0.2648
 8562TIP3    H147101   5.343   5.958  15.318  0.3571  1.1892  2.9441
 8562TIP3    H247102   5.472   6.036  15.338  1.2421  0.6747 -0.2764
 8563TIP3   OH247103   5.529   4.664  10.726  0.4912 -0.0853 -0.3876
 8563TIP3    H147104   5.462   4.712  10.676  0.2645  0.6378  0.5917
 8563TIP3    H247105   5.600   4.726  10.737  0.6941 -0.3633 -0.1255
 8564TIP3   OH247106   0.839   2.032  13.398  0.3418  0.2653 -0.2469
 8564TIP3    H147107   0.841   2.118  13.439  0.0747 -0.1340  0.6257
 8564TIP3    H247108   0.891   1.976  13.457 -0.7807 -0.5183  0.0477
 8565TIP3   OH247109   0.679   2.862  17.440  0.4694 -0.0213 -0.2482
 8565TIP3    H147110   0.642   2.937  17.394  0.4212  0.1874  0.1256
 8565TIP3    H247111   0.620   2.848  17.514 -0.0028 -0.9512 -0.7753
 8566TIP3   OH247112   0.527   0.091   4.639 -0.2142  0.5104 -0.1693
 8566TIP3    H147113   0.473   0.017   4.610  0.7935 -0.1128 -0.4810
 8566TIP3    H247114   0.469   0.142   4.695 -0.8811 -0.5959  0.1764
 8567TIP3   OH247115   1.530   2.741  13.131 -0.4989  0.3058 -0.3134
 8567TIP3    H147116   1.519   2.833  13.107 -0.3569 -0.0286 -1.7750
 8567TIP3    H247117   1.625   2.727  13.125 -0.6936 -0.4420 -2.2238
 8568TIP3   OH247118   0.499   2.480   3.739  0.8855  0.2874 -0.2307
 8568TIP3    H147119   0.474   2.552   3.796 -0.8126 -0.5446  0.1437
 8568TIP3    H247120   0.518   2.407   3.799  0.1343 -0.2846 -0.6760
 8569TIP3   OH247121   3.552   2.195   4.633  0.1495  0.1392  0.4396
 8569TIP3    H147122   3.501   2.122   4.670  0.1441  0.4008  0.9528
 8569TIP3    H247123   3.497   2.272   4.646  0.0809  0.2157 -0.2618
 8570TIP3   OH247124   5.210   6.259   6.636 -0.3454  0.3347  0.3098
 8570TIP3    H147125   5.224   6.291   6.547 -0.3257  1.1846  0.6170
 8570TIP3    H247126   5.126   6.297   6.663 -0.7262 -0.5271  0.3876
 8571TIP3   OH247127   2.661   5.053   0.909  0.0350  0.2420  0.1994
 8571TIP3    H147128   2.693   5.136   0.874 -0.4466 -0.1110 -1.1188
 8571TIP3    H247129   2.667   5.064   1.004  3.5027  0.4399  0.1168
 8572TIP3   OH247130   4.074   2.473  15.458  0.2007 -0.0984  0.2850
 8572TIP3    H147131   3.997   2.420  15.437 -0.0784  0.9932 -1.6836
 8572TIP3    H247132   4.091   2.524  15.379  0.5831  2.6191  1.9745
 8573TIP3   OH247133   1.411   2.622  14.423 -0.0806  0.2576  0.3090
 8573TIP3    H147134   1.461   2.694  14.384 -0.9546  1.1014  0.6706
 8573TIP3    H247135   1.417   2.637  14.517  2.2363 -1.9192  0.5816
 8574TIP3   OH247136   6.575   2.224  12.402  0.7222 -0.3853 -0.5660
 8574TIP3    H147137   6.528   2.238  12.483  3.7568 -0.7560  1.4241
 8574TIP3    H247138   6.600   2.131  12.404  1.9697 -0.0940 -1.1971
 8575TIP3   OH247139   0.076   3.250   4.728  0.3229 -0.0913  0.2882
 8575TIP3    H147140   0.072   3.299   4.810  2.6179 -0.3164  0.5983
 8575TIP3    H247141   0.052   3.314   4.661 -1.0051  0.2497  1.0511
 8576TIP3   OH247142   3.869   5.618   2.343  0.1697 -0.0441  0.2598
 8576TIP3    H147143   3.946   5.582   2.388  2.8460  0.4245 -3.4511
 8576TIP3    H247144   3.889   5.711   2.334 -0.6022  0.0054 -1.1207
 8577TIP3   OH247145   5.909   2.490  16.544  0.1793  0.1022 -0.3513
 8577TIP3    H147146   5.937   2.580  16.527  1.1532 -0.3719 -1.4126
 8577TIP3    H247147   5.814   2.497  16.557  0.0608  1.1523 -1.5440
 8578TIP3   OH247148   4.205   3.219  13.648  0.0007  0.3931  0.1632
 8578TIP3    H147149   4.211   3.140  13.702 -1.2332 -0.5530 -1.0328
 8578TIP3    H247150   4.256   3.200  13.570 -1.4475  0.1920 -0.7746
 8579TIP3   OH247151   3.872   5.296   3.317 -0.2112  0.2755 -0.2268
 8579TIP3    H147152   3.913   5.301   3.403  0.2018 -0.4960 -0.3693
 8579TIP3    H247153   3.778   5.301   3.335 -0.1500 -0.4020  0.3178
 8580TIP3   OH247154   6.488   2.199   0.001  0.1355 -0.0091 -0.5486
 8580TIP3    H147155   6.487   2.128  -0.063  1.5660 -1.6707  1.1585
 8580TIP3    H247156   6.486   2.155   0.086 -0.7161  2.0808  0.6008
 8581TIP3   OH247157   0.975   0.759  15.739  0.3096  0.1547  0.1250
 8581TIP3    H147158   1.028   0.720  15.808 -0.3587 -1.7735 -0.3660
 8581TIP3    H247159   1.039   0.788  15.673  0.8510  0.0838  0.6104
 8582TIP3   OH247160   1.322   5.553  13.293 -0.7229 -0.2891 -0.1723
 8582TIP3    H147161   1.405   5.588  13.325  0.4369 -0.1759 -3.0666
 8582TIP3    H247162   1.336   5.458  13.292 -1.3595 -0.4193  1.1022
 8583TIP3   OH247163   6.034   5.983   5.083  0.2472 -0.2073  0.0332
 8583TIP3    H147164   5.956   6.036   5.068  0.2803 -0.0203  0.5112
 8583TIP3    H247165   6.004   5.912   5.139  0.5806  0.2824  0.8401
 8584TIP3   OH247166   0.906   2.670   1.349 -0.6634  0.2671 -0.1057
 8584TIP3    H147167   0.915   2.744   1.408  0.8191 -0.8102  1.1108
 8584TIP3    H247168   0.883   2.708   1.264  1.3398  2.2333  0.1594
 8585TIP3   OH247169   0.826   5.965   6.101  0.2637  0.5073  0.1483
 8585TIP3    H147170   0.873   5.908   6.040  0.3826  0.4458  0.2937
 8585TIP3    H247171   0.777   6.025   6.046  1.7963  1.6473 -0.0377
 8586TIP3   OH247172   5.345   2.244   0.390  0.2198  0.1702  0.0872
 8586TIP3    H147173   5.404   2.193   0.335  0.2001  1.5533 -1.2945
 8586TIP3    H247174   5.259   2.231   0.351  0.1510  0.8996 -0.0124
 8587TIP3   OH247175   0.043   6.596  15.600  0.5618  0.3805  0.5824
 8587TIP3    H147176   0.038   6.680  15.556 -0.8177  0.2786  0.4980
 8587TIP3    H247177   0.033   6.531  15.530  2.5513  0.1053  0.5213
 8588TIP3   OH247178   0.421   5.773   3.704  0.0442 -0.2201  0.0129
 8588TIP3    H147179   0.395   5.822   3.782 -0.7582  0.2723 -0.5543
 8588TIP3    H247180   0.506   5.810   3.680  0.1078 -0.0954  0.4096
 8589TIP3   OH247181   5.331   0.188   2.137  0.6778 -0.4451  0.3680
 8589TIP3    H147182   5.337   0.228   2.224  0.3464 -1.0243  0.6583
 8589TIP3    H247183   5.355   0.259   2.077 -3.0484  1.2598  0.5999
 8590TIP3   OH247184   0.558   0.456   2.281 -0.0355 -0.0014  0.0559
 8590TIP3    H147185   0.525   0.472   2.193  0.0428  1.6036  0.2933
 8590TIP3    H247186   0.499   0.504   2.339  0.5748 -0.1016  0.7863
 8591TIP3   OH247187   3.365   2.324  16.642 -0.0784 -0.8670 -0.0031
 8591TIP3    H147188   3.449   2.367  16.657 -0.6092  0.8236 -1.4981
 8591TIP3    H247189   3.301   2.382  16.682 -0.7729 -0.3543 -1.7366
 8592TIP3   OH247190   3.334   4.349  17.131  0.5499 -0.2292 -0.4578
 8592TIP3    H147191   3.376   4.272  17.168  0.5525  0.3267  0.7401
 8592TIP3    H247192   3.266   4.372  17.194 -1.5518 -1.0553 -2.2989
 8593TIP3   OH247193   1.972   5.367   5.925 -0.5128 -0.1906  0.4415
 8593TIP3    H147194   1.980   5.274   5.906 -1.4149 -0.1578 -0.1872
 8593TIP3    H247195   1.984   5.374   6.019  0.0200 -0.8862  0.4293
 8594TIP3   OH247196   3.694   3.011  13.183  0.2722 -0.8060 -0.0364
 8594TIP3    H147197   3.718   3.050  13.267 -0.3725  0.2057 -0.3120
 8594TIP3    H247198   3.776   3.008  13.133  0.4821 -0.5530  0.2905
 8595TIP3   OH247199   4.547   4.841  15.208 -0.5531 -0.4730  0.6228
 8595TIP3    H147200   4.638   4.831  15.180 -0.1171  1.1068  1.3499
 8595TIP3    H247201   4.550   4.911  15.274 -2.4894  0.6803 -0.4227
 8596TIP3   OH247202   3.264   3.099  13.630  0.3712  0.2294 -0.0045
 8596TIP3    H147203   3.338   3.045  13.603 -0.9194 -1.7382  0.1705
 8596TIP3    H247204   3.240   3.065  13.716 -0.8267  0.7050 -0.1287
 8597TIP3   OH247205   6.655   3.492   3.187 -0.4151 -0.0964 -0.4322
 8597TIP3    H147206   6.683   3.499   3.096  0.7795 -1.4240 -0.1916
 8597TIP3    H247207   6.711   3.553   3.235  0.3521 -0.8850 -0.3116
 8598TIP3   OH247208   5.407   3.470  16.948 -0.0487  0.0747 -0.1530
 8598TIP3    H147209   5.413   3.394  16.891 -0.4785 -0.0679 -0.0182
 8598TIP3    H247210   5.498   3.490  16.972  0.0418 -0.6833  0.1799
 8599TIP3   OH247211   6.140   5.723  16.441 -0.0313 -0.1953  0.4127
 8599TIP3    H147212   6.074   5.663  16.407 -0.1922 -0.3486  0.9911
 8599TIP3    H247213   6.134   5.714  16.536  0.4033  0.2413  0.4835
 8600TIP3   OH247214   0.999   6.475  12.466 -0.1513 -0.1812 -0.1583
 8600TIP3    H147215   0.935   6.543  12.449  0.7361  0.4838 -0.9104
 8600TIP3    H247216   0.950   6.393  12.462 -1.1091  0.3733  0.1568
 8601TIP3   OH247217   4.899   3.032   5.492 -0.7728 -0.1530  0.0231
 8601TIP3    H147218   4.861   3.115   5.463 -1.8467 -0.9483 -0.9038
 8601TIP3    H247219   4.985   3.056   5.526 -2.0633  1.7295  2.2683
 8602TIP3   OH247220   4.360   4.112  12.006  0.3078  0.2363 -0.5784
 8602TIP3    H147221   4.382   4.020  12.020 -0.7814  0.1106  0.4338
 8602TIP3    H247222   4.443   4.152  11.980  0.9350 -0.9055 -0.4203
 8603TIP3   OH247223   2.270   1.821   1.382 -0.0960  0.0105  0.0540
 8603TIP3    H147224   2.335   1.842   1.315  0.5606  0.0499  0.6958
 8603TIP3    H247225   2.276   1.726   1.392 -0.8217 -0.1113 -0.5682
 8604TIP3   OH247226   2.452   6.581  14.901 -0.0420  0.1825  0.0737
 8604TIP3    H147227   2.518   6.588  14.970 -0.3193  0.6982  0.2902
 8604TIP3    H247228   2.371   6.614  14.941  0.0502  1.6038 -0.8340
 8605TIP3   OH247229   5.148   2.060   0.200  0.0304  0.7107  0.4545
 8605TIP3    H147230   5.203   1.984   0.219  1.6116  2.1274  1.9327
 8605TIP3    H247231   5.090   2.068   0.276 -2.4799 -0.8475 -1.1409
 8606TIP3   OH247232   2.845   3.409  15.343 -0.2536  0.2123 -0.5565
 8606TIP3    H147233   2.775   3.362  15.388 -0.9622  0.9193 -0.8976
 8606TIP3    H247234   2.923   3.393  15.396 -1.0840  1.1181  0.9981
 8607TIP3   OH247235   0.529   5.632   0.830 -0.0507 -0.3960 -0.4506
 8607TIP3    H147236   0.585   5.670   0.898  1.6225 -1.5230 -1.1205
 8607TIP3    H247237   0.504   5.707   0.776 -1.4345  0.5245  1.3613
 8608TIP3   OH247238   4.716   5.992   2.217  0.4240  0.0257  0.6094
 8608TIP3    H147239   4.760   5.920   2.173  1.3048  1.2429 -0.5875
 8608TIP3    H247240   4.710   5.965   2.309  0.7733 -1.5173  0.2038
 8609TIP3   OH247241   1.339   0.511   3.528  0.2100  0.3532 -0.5178
 8609TIP3    H147242   1.341   0.419   3.554 -0.4707  1.1907  3.0478
 8609TIP3    H247243   1.256   0.521   3.482  1.7780 -1.3813 -4.0976
 8610TIP3   OH247244   0.509   4.054  13.849 -0.0962 -0.6972  0.1563
 8610TIP3    H147245   0.552   4.077  13.767  0.8486 -1.9053  0.2867
 8610TIP3    H247246   0.415   4.064  13.831  0.1545  0.1910 -0.6946
 8611TIP3   OH247247   0.474   1.646   2.856  0.1140 -0.5800  0.2080
 8611TIP3    H147248   0.435   1.642   2.769  3.0444 -2.4057 -1.1868
 8611TIP3    H247249   0.547   1.707   2.847  0.5930 -0.9544  1.3280
 8612TIP3   OH247250   1.508   1.967  16.500 -0.0991  0.0948  0.8708
 8612TIP3    H147251   1.580   1.931  16.553  2.4303  0.9212 -1.7579
 8612TIP3    H247252   1.523   2.061  16.500 -0.6401  0.1987 -0.4725
 8613TIP3   OH247253   4.965   5.233   4.072  0.3725  0.2178 -0.2856
 8613TIP3    H147254   5.006   5.214   3.988 -0.3427 -0.1895 -0.5460
 8613TIP3    H247255   4.873   5.210   4.060  0.7393 -2.6080  1.4551
 8614TIP3   OH247256   5.068   1.144   0.153 -0.1020 -0.0236 -0.1038
 8614TIP3    H147257   5.038   1.068   0.204  0.9707 -2.1295 -2.3882
 8614TIP3    H247258   5.143   1.177   0.202  0.4531 -1.5165  0.1202
 8615TIP3   OH247259   1.607   2.626  11.604 -0.2963 -0.3729 -0.3987
 8615TIP3    H147260   1.581   2.707  11.560 -0.1941 -0.8591 -1.3823
 8615TIP3    H247261   1.702   2.620  11.591  0.1369  0.5867  1.8166
 8616TIP3   OH247262   6.257   0.165  14.428 -0.2525 -0.2398 -0.1245
 8616TIP3    H147263   6.259   0.260  14.440 -0.5427 -0.0963 -1.1702
 8616TIP3    H247264   6.164   0.144  14.419 -0.2923 -0.7868  1.1958
 8617TIP3   OH247265   4.946   2.528   2.492  0.2176 -0.1043  0.1078
 8617TIP3    H147266   4.950   2.526   2.397  1.8123 -0.6617  0.1675
 8617TIP3    H247267   4.886   2.601   2.512 -0.8431 -0.5548 -1.3049
 8618TIP3   OH247268   4.529   3.339   4.348 -0.4040 -0.3671  0.5245
 8618TIP3    H147269   4.437   3.364   4.355  0.3521  2.6364  1.2700
 8618TIP3    H247270   4.550   3.352   4.256 -1.1480 -3.2078 -0.1588
 8619TIP3   OH247271   0.454   3.498   1.236 -0.2061  0.2730  0.1145
 8619TIP3    H147272   0.496   3.432   1.290  1.6115  1.8739  0.7658
 8619TIP3    H247273   0.525   3.557   1.210 -1.4102  0.8565 -2.1103
 8620TIP3   OH247274   6.564   1.004  15.982  0.3571 -0.3550 -0.0881
 8620TIP3    H147275   6.598   0.919  16.012  1.9667  0.6526  1.1525
 8620TIP3    H247276   6.637   1.064  15.998 -0.1842  0.9943 -2.4106
 8621TIP3   OH247277   5.981   4.509   2.754  0.7959 -0.2080  0.1300
 8621TIP3    H147278   5.897   4.514   2.800  0.7831 -3.5514  0.7272
 8621TIP3    H247279   5.971   4.568   2.680 -0.9461  1.7455  1.7890
 8622TIP3   OH247280   0.118   4.069  17.130 -0.0013  0.3130  0.0303
 8622TIP3    H147281   0.071   3.993  17.163  0.5363 -1.2606 -2.5379
 8622TIP3    H247282   0.049   4.134  17.112 -1.1315 -1.3420 -2.1095
 8623TIP3   OH247283   0.650   5.627  14.326  0.3024 -1.0912 -0.2386
 8623TIP3    H147284   0.632   5.589  14.412 -1.9620  0.6245  0.1362
 8623TIP3    H247285   0.599   5.573  14.265 -1.8210  0.4123  0.1262
 8624TIP3   OH247286   3.220   1.966  11.837  0.6407 -0.1355  0.0611
 8624TIP3    H147287   3.241   2.053  11.872 -0.8580  1.2170 -2.1557
 8624TIP3    H247288   3.223   1.977  11.742 -2.6763 -1.6629 -0.3564
 8625TIP3   OH247289   2.162   1.115   4.039 -0.7834  0.7134  0.7029
 8625TIP3    H147290   2.239   1.151   4.083  0.1363  1.2845 -1.2729
 8625TIP3    H247291   2.089   1.164   4.077 -0.5039 -1.1806  4.0531
 8626TIP3   OH247292   4.103   2.065   5.824 -0.7520  0.5650 -0.3426
 8626TIP3    H147293   4.170   2.100   5.765  0.1354 -0.5710 -0.0278
 8626TIP3    H247294   4.058   2.143   5.856 -0.6082  1.2668 -1.7450
 8627TIP3   OH247295   4.372   6.217  13.430  0.9296  0.1048  0.6366
 8627TIP3    H147296   4.327   6.276  13.370 -0.9490 -1.4581  0.3869
 8627TIP3    H247297   4.318   6.216  13.508  1.8209 -0.0557  1.2639
 8628TIP3   OH247298   4.198   1.476  16.563  0.0709  0.2565  0.4014
 8628TIP3    H147299   4.287   1.511  16.560  0.6646 -1.2377 -1.7544
 8628TIP3    H247300   4.149   1.528  16.499 -0.3746  0.4657  0.9047
 8629TIP3   OH247301   3.937   6.712  14.014 -0.3844  1.1617  0.0854
 8629TIP3    H147302   4.027   6.718  13.984  0.1655  0.0324  1.4246
 8629TIP3    H247303   3.940   6.738  14.106 -1.0676 -0.7756  0.6934
 8630TIP3   OH247304   3.928   2.561   6.531  0.1226 -0.2612 -0.3386
 8630TIP3    H147305   3.987   2.580   6.604 -0.6967  0.7566  0.0656
 8630TIP3    H247306   3.899   2.471   6.547  0.9246 -0.4842 -0.0997
 8631TIP3   OH247307   2.174   4.688   1.185  0.5484 -0.4712  0.2422
 8631TIP3    H147308   2.084   4.674   1.214  0.5015 -1.0537 -0.1605
 8631TIP3    H247309   2.166   4.735   1.101  0.6645  0.6095  0.8168
 8632TIP3   OH247310   5.477   0.659  11.882  0.4236 -0.8363  0.6992
 8632TIP3    H147311   5.555   0.703  11.916  0.3993 -0.7804  0.6821
 8632TIP3    H247312   5.497   0.565  11.890 -0.3585 -0.8749  2.6952
 8633TIP3   OH247313   1.727   2.249   5.546  0.2773 -0.1407  0.2276
 8633TIP3    H147314   1.781   2.328   5.554  1.1877 -0.7286  0.1436
 8633TIP3    H247315   1.776   2.183   5.595  1.3109 -1.5017 -2.4277
 8634TIP3   OH247316   5.128   2.020  16.462  0.1869 -0.2916 -0.6035
 8634TIP3    H147317   5.148   2.029  16.369 -0.7220  1.8245 -0.6596
 8634TIP3    H247318   5.033   2.027  16.467  0.1520 -1.1913  0.4376
 8635TIP3   OH247319   2.732   5.809  12.242  0.0663 -0.3667  0.0996
 8635TIP3    H147320   2.691   5.734  12.284  0.4301 -0.1523  0.8438
 8635TIP3    H247321   2.754   5.869  12.313  1.5536 -0.4165 -0.2907
 8636TIP3   OH247322   1.676   6.589  17.053  0.0555  0.1641  0.1486
 8636TIP3    H147323   1.596   6.640  17.070 -0.6151 -1.2007  1.3375
 8636TIP3    H247324   1.712   6.627  16.973 -2.2049  0.3595 -0.8735
 8637TIP3   OH247325   0.246   0.068  15.794 -0.0756  0.5120  0.0026
 8637TIP3    H147326   0.240   0.017  15.713 -3.0168  0.5447  0.1145
 8637TIP3    H247327   0.300   0.144  15.771  2.2089 -1.2446 -0.8659
 8638TIP3   OH247328   5.751   2.874  17.185 -0.1848  0.3791 -0.3733
 8638TIP3    H147329   5.772   2.831  17.102  0.5201  1.3240 -0.6962
 8638TIP3    H247330   5.781   2.813  17.252 -1.3691 -0.7022 -0.7762
 8639TIP3   OH247331   5.031   2.168  15.905 -0.3886  0.5792 -0.1954
 8639TIP3    H147332   5.103   2.198  15.850 -0.1605 -1.4923 -1.1156
 8639TIP3    H247333   4.954   2.213  15.871  0.3528  2.5786  0.6035
 8640TIP3   OH247334   1.933   4.127  14.982  0.0978  0.3359 -0.0220
 8640TIP3    H147335   1.850   4.112  15.027 -0.1500  0.1296 -0.5382
 8640TIP3    H247336   1.992   4.158  15.051  0.0205 -0.9693  0.6756
 8641TIP3   OH247337   6.687   5.732  15.912 -1.3286 -0.0098  0.2784
 8641TIP3    H147338   6.724   5.729  16.000 -1.5790  2.0466  0.5120
 8641TIP3    H247339   6.608   5.678  15.917  0.2513 -2.4736  0.4101
 8642TIP3   OH247340   4.617   4.811  13.346  0.1098 -0.0764  0.4831
 8642TIP3    H147341   4.580   4.786  13.431  1.8044 -1.6048  0.8245
 8642TIP3    H247342   4.542   4.811  13.286 -0.8765 -0.3872  1.6816
 8643TIP3   OH247343   3.543   4.844   6.282 -0.3211 -0.1292  0.0772
 8643TIP3    H147344   3.547   4.752   6.310 -0.1177 -0.5908 -1.3502
 8643TIP3    H247345   3.512   4.891   6.358 -0.3922 -1.3879  0.8607
 8644TIP3   OH247346   1.863   3.671   1.578 -0.3001 -0.3856 -0.4837
 8644TIP3    H147347   1.931   3.609   1.554 -0.7259 -0.0880 -2.6066
 8644TIP3    H247348   1.876   3.686   1.672  1.2856 -1.8394 -0.4352
 8645TIP3   OH247349   1.900   5.687  16.151  0.0971 -0.2083  0.5365
 8645TIP3    H147350   1.958   5.612  16.167  0.7419  0.0003 -0.6461
 8645TIP3    H247351   1.869   5.674  16.061  1.0345  1.4454 -0.0682
 8646TIP3   OH247352   5.983   4.654   0.644 -0.2479  0.3897  0.3007
 8646TIP3    H147353   5.952   4.639   0.733 -1.7961 -0.9792 -0.4088
 8646TIP3    H247354   6.024   4.740   0.647 -0.9610  0.7154  2.1494
 8647TIP3   OH247355   4.390   4.147   4.655 -0.1279 -0.0537  0.1297
 8647TIP3    H147356   4.341   4.212   4.605 -1.0335 -0.8772 -0.0799
 8647TIP3    H247357   4.370   4.064   4.612  0.7565 -0.5166  0.5914
 8648TIP3   OH247358   6.093   0.634  14.214  0.0366 -0.5849  0.0064
 8648TIP3    H147359   6.022   0.576  14.186 -0.0835 -0.1641 -0.6011
 8648TIP3    H247360   6.079   0.646  14.308 -1.0888 -0.0015 -0.2071
 8649TIP3   OH247361   3.695   2.318   0.123 -0.2071 -0.2692 -0.6926
 8649TIP3    H147362   3.691   2.224   0.104 -0.3945 -0.3081 -0.4661
 8649TIP3    H247363   3.787   2.340   0.115 -0.1651 -0.4684 -0.7679
 8650TIP3   OH247364   0.114   2.017  14.619 -0.4870  0.4939 -0.4704
 8650TIP3    H147365   0.030   1.974  14.605  0.1455 -0.4742 -1.4128
 8650TIP3    H247366   0.158   2.012  14.534  1.6597 -1.5590  0.6543
 8651TIP3   OH247367   6.454   0.548  17.346  0.1458 -0.0955 -0.1228
 8651TIP3    H147368   6.453   0.452  17.347 -3.4729 -0.1670  1.1838
 8651TIP3    H247369   6.393   0.574  17.415 -0.8056  3.1260 -1.9571
 8652TIP3   OH247370   3.508   3.495  14.483 -0.2037 -0.0106 -0.8212
 8652TIP3    H147371   3.512   3.402  14.508  1.7976 -0.0110 -0.9210
 8652TIP3    H247372   3.529   3.542  14.564  0.1569  0.2763 -1.0771
 8653TIP3   OH247373   3.419   3.520   4.662 -0.3845 -0.0460 -0.2950
 8653TIP3    H147374   3.442   3.433   4.695 -2.5141 -0.0532  1.4705
 8653TIP3    H247375   3.486   3.578   4.698 -0.1474 -0.6870  0.3167
 8654TIP3   OH247376   2.442   6.687   4.973 -0.0997 -0.0710  0.5292
 8654TIP3    H147377   2.451   6.759   4.911 -0.7658 -1.5779 -1.4052
 8654TIP3    H247378   2.351   6.691   5.002 -0.6746 -1.1923 -1.0128
 8655TIP3   OH247379   3.529   4.820   2.028 -0.1466  0.0708 -0.4899
 8655TIP3    H147380   3.449   4.871   2.016  1.0073  2.3214  0.5449
 8655TIP3    H247381   3.559   4.801   1.939  0.1271  2.6348 -1.0481
 8656TIP3   OH247382   3.173   0.396   0.657 -0.1954  0.4104 -0.0716
 8656TIP3    H147383   3.192   0.474   0.709  0.5594 -0.2872  0.7459
 8656TIP3    H247384   3.206   0.416   0.569  2.1041  0.2053  0.6705
 8657TIP3   OH247385   0.996   6.696  14.722  0.0705 -0.0442  0.8191
 8657TIP3    H147386   0.964   6.615  14.680  1.2585  0.4484 -1.1790
 8657TIP3    H247387   0.920   6.754  14.722  0.2441  0.3159 -1.7737
 8658TIP3   OH247388   2.580   3.217  12.248 -0.1738 -0.0136  0.9173
 8658TIP3    H147389   2.554   3.126  12.241  0.7974 -0.2129 -0.7374
 8658TIP3    H247390   2.673   3.217  12.223 -0.4143  1.5314 -0.1109
 8659TIP3   OH247391   4.340   1.132  10.639  0.0692 -0.0810  0.1647
 8659TIP3    H147392   4.256   1.086  10.642  0.4374 -0.8310 -0.5715
 8659TIP3    H247393   4.317   1.224  10.626 -0.7230  0.1497  2.6102
 8660TIP3   OH247394   3.905   6.337   5.217  0.7770 -0.5615 -0.3347
 8660TIP3    H147395   3.999   6.329   5.232  0.5702 -1.1024  0.7339
 8660TIP3    H247396   3.881   6.422   5.256  0.6277 -0.9513  0.4352
 8661TIP3   OH247397   3.029   3.372  13.923  0.3590  0.0937 -0.1430
 8661TIP3    H147398   3.023   3.280  13.899  1.2523  0.5442 -2.2967
 8661TIP3    H247399   2.939   3.404  13.920 -0.0212 -0.7969  1.1328
 8662TIP3   OH247400   3.718   1.761  17.416  0.1703 -0.1821  0.4645
 8662TIP3    H147401   3.649   1.696  17.406 -1.4939  1.5788 -0.0844
 8662TIP3    H247402   3.799   1.710  17.421 -1.0627 -2.2645  0.1143
 8663TIP3   OH247403   1.174   2.579  12.039 -0.0544  0.1375 -0.7111
 8663TIP3    H147404   1.143   2.521  12.109 -0.1580 -0.3343 -1.1425
 8663TIP3    H247405   1.115   2.655  12.043 -0.1321  0.0596 -0.3621
 8664TIP3   OH247406   1.378   1.647  12.411 -0.2539 -0.3012 -0.4801
 8664TIP3    H147407   1.424   1.564  12.398  1.2681  0.0113  2.1492
 8664TIP3    H247408   1.350   1.673  12.324  2.6180 -1.6806 -1.9578
 8665TIP3   OH247409   4.540   6.135   1.588  0.2274  0.2766 -0.1703
 8665TIP3    H147410   4.625   6.175   1.566 -0.1522  0.2676 -1.8331
 8665TIP3    H247411   4.479   6.209   1.592  0.1469  0.1949  0.0846
 8666TIP3   OH247412   1.355   6.304   3.871 -0.7532  0.5464 -0.0844
 8666TIP3    H147413   1.401   6.221   3.859 -1.4838  0.1651 -0.3144
 8666TIP3    H247414   1.286   6.284   3.935 -1.3810  0.8012 -0.6751
 8667TIP3   OH247415   3.691   2.857  13.992  0.7321  0.3307 -0.6251
 8667TIP3    H147416   3.716   2.801  14.066 -1.8761 -0.8131 -0.5251
 8667TIP3    H247417   3.741   2.822  13.918  1.5097 -0.0849  0.0671
 8668TIP3   OH247418   4.724   4.689  13.732 -0.3528  0.5833 -0.8123
 8668TIP3    H147419   4.775   4.714  13.809 -0.2472  0.6504 -0.9025
 8668TIP3    H247420   4.788   4.690  13.660 -1.1421  4.3091 -1.6653
 8669TIP3   OH247421   2.757   6.250  11.336  0.7353  0.1060 -0.1396
 8669TIP3    H147422   2.692   6.311  11.302 -0.3445  0.6155  2.5430
 8669TIP3    H247423   2.778   6.193  11.262 -2.4155  0.2184 -1.2686
 8670TIP3   OH247424   2.563   4.386   4.579  0.4783 -0.2907  0.1718
 8670TIP3    H147425   2.484   4.389   4.525  0.7718 -1.1584 -0.3143
 8670TIP3    H247426   2.562   4.299   4.619  1.3131 -0.4008 -0.0319
 8671TIP3   OH247427   6.527   0.833   0.302  0.2798 -0.0676  0.2465
 8671TIP3    H147428   6.472   0.824   0.380 -1.1908 -1.1802 -0.8673
 8671TIP3    H247429   6.605   0.782   0.323  0.7431  1.1416  1.6729
 8672TIP3   OH247430   3.851   5.598   4.151 -0.2204 -0.6689 -0.0628
 8672TIP3    H147431   3.798   5.543   4.093 -0.7624  1.6401 -1.8688
 8672TIP3    H247432   3.938   5.599   4.111 -0.4024  0.3413 -0.4601
 8673TIP3   OH247433   3.740   5.567  15.614 -0.4798 -0.1485 -0.0556
 8673TIP3    H147434   3.704   5.484  15.583  1.2443  0.0401 -2.9077
 8673TIP3    H247435   3.733   5.561  15.709 -3.6282 -2.0095 -0.2416
 8674TIP3   OH247436   1.857   6.349   6.104 -0.5447  0.1166 -0.3222
 8674TIP3    H147437   1.846   6.384   6.193  2.3732  0.7985 -0.1324
 8674TIP3    H247438   1.845   6.425   6.047  1.5036  0.5867 -0.1925
 8675TIP3   OH247439   3.136   1.297   4.241 -0.3720 -0.5161 -0.1117
 8675TIP3    H147440   3.135   1.202   4.231 -0.4211 -0.4878 -0.3822
 8675TIP3    H247441   3.228   1.320   4.255 -0.2958 -0.5496 -0.5614
 8676TIP3   OH247442   4.724   3.957   3.753 -0.2906  0.9015  0.1924
 8676TIP3    H147443   4.678   3.948   3.836 -0.9937  1.5826 -0.1100
 8676TIP3    H247444   4.693   4.040   3.717 -0.8110  0.1134 -1.2468
 8677TIP3   OH247445   0.149   3.509  15.361 -0.0304 -0.2903  0.6469
 8677TIP3    H147446   0.156   3.500  15.456 -0.1765  1.2801  0.8384
 8677TIP3    H247447   0.071   3.459  15.338 -0.9115  0.5835  1.5985
 8678TIP3   OH247448   3.854   6.278   3.592  0.1842  0.3092  0.0299
 8678TIP3    H147449   3.838   6.372   3.598  0.5511  0.3510  0.4233
 8678TIP3    H247450   3.909   6.267   3.515  2.8970  0.8126  1.7660
 8679TIP3   OH247451   2.593   5.755  16.005  0.1463  1.0304 -0.0471
 8679TIP3    H147452   2.604   5.832  15.951  0.9879  0.9738  0.0375
 8679TIP3    H247453   2.681   5.733  16.036 -0.1541  0.3693  0.3831
 8680TIP3   OH247454   1.039   5.591   5.337  0.0295  0.6120 -0.7015
 8680TIP3    H147455   0.962   5.537   5.318  0.6446 -0.3783 -0.4627
 8680TIP3    H247456   1.074   5.616   5.252  0.0723  0.1336 -0.8258
 8681TIP3   OH247457   1.486   4.415   2.793 -0.3012 -0.1679  0.6276
 8681TIP3    H147458   1.443   4.329   2.794 -0.2273 -0.2078  0.3509
 8681TIP3    H247459   1.415   4.478   2.804 -0.4149 -0.2408  0.3143
 8682TIP3   OH247460   4.668   6.216  16.901  0.2690  0.0771  0.1658
 8682TIP3    H147461   4.677   6.194  16.994  0.2695  0.4285  0.2520
 8682TIP3    H247462   4.574   6.230  16.888 -0.1942 -3.1132 -0.6258
 8683TIP3   OH247463   5.292   6.165  13.905  0.0144 -0.0573 -0.4245
 8683TIP3    H147464   5.284   6.240  13.847  1.3856  0.0390 -0.5202
 8683TIP3    H247465   5.217   6.172  13.965  0.3625  1.6393 -0.1475
 8684TIP3   OH247466   0.047   1.025   2.465 -0.3766 -0.3023  0.0812
 8684TIP3    H147467   0.011   1.015   2.553  0.7478 -0.9449  0.4892
 8684TIP3    H247468   0.054   0.936   2.431  0.9463 -0.2171  0.0769
 8685TIP3   OH247469   0.144   1.059  11.642  0.0162  0.9168  0.1154
 8685TIP3    H147470   0.081   1.090  11.706  0.1636  0.3781  0.5286
 8685TIP3    H247471   0.094   1.051  11.561 -1.0298 -1.6504  0.9274
 8686TIP3   OH247472   1.670   3.765  16.503  0.3911 -0.4397  0.0355
 8686TIP3    H147473   1.633   3.837  16.554 -0.8990 -1.1446  0.1324
 8686TIP3    H247474   1.632   3.775  16.416 -1.4453 -2.1683  0.5905
 8687TIP3   OH247475   3.153   5.163  15.906  0.1519 -0.4858  0.3406
 8687TIP3    H147476   3.225   5.170  15.969  0.4615  1.6701 -0.1879
 8687TIP3    H247477   3.162   5.075  15.870  1.5995 -0.8113  1.3732
 8688TIP3   OH247478   1.862   4.300   1.798  0.0658 -0.2696 -0.4167
 8688TIP3    H147479   1.809   4.282   1.721 -0.7905 -1.1497  0.3419
 8688TIP3    H247480   1.889   4.213   1.829 -0.5616 -0.0305  0.9060
 8689TIP3   OH247481   0.368   6.696  13.879  0.2500  0.5830  0.2621
 8689TIP3    H147482   0.452   6.719  13.839  0.2232  2.4232  1.1165
 8689TIP3    H247483   0.385   6.617  13.929  1.5939  1.1323  0.7090
 8690TIP3   OH247484   2.313   4.106   2.523 -0.5850  0.4692  0.5435
 8690TIP3    H147485   2.268   4.191   2.521  2.5005  2.2464 -1.2767
 8690TIP3    H247486   2.405   4.129   2.535  0.3683 -2.6646 -0.0341
 8691TIP3   OH247487   1.438   2.232  16.765  0.0949  0.0031  0.1022
 8691TIP3    H147488   1.520   2.251  16.719  0.8703 -1.7890  0.6275
 8691TIP3    H247489   1.375   2.214  16.696  0.2599  0.9363 -0.3016
 8692TIP3   OH247490   3.675   1.970  14.136 -0.5803  0.1094 -0.0317
 8692TIP3    H147491   3.632   2.009  14.212 -1.6622  1.0060 -1.0564
 8692TIP3    H247492   3.626   1.888  14.121  1.3257 -1.4765  1.7733
 8693TIP3   OH247493   5.958   2.047   3.102  0.0929 -0.0978 -0.0606
 8693TIP3    H147494   5.943   1.994   3.023  0.5509  0.5919 -0.6301
 8693TIP3    H247495   5.883   2.107   3.103 -0.0287 -0.2551  0.1524
 8694TIP3   OH247496   0.105   1.284   2.546  0.4471 -1.1627 -0.5821
 8694TIP3    H147497   0.089   1.205   2.495  1.5654 -1.0374 -1.1501
 8694TIP3    H247498   0.198   1.303   2.532  0.0926  0.4965 -0.7961
 8695TIP3   OH247499   5.869   3.970  17.056 -0.3748 -0.3809  0.3534
 8695TIP3    H147500   5.861   3.986  17.150 -0.5872 -0.1313  0.2951
 8695TIP3    H247501   5.907   4.050  17.020  1.9115 -1.3023  0.5269
 8696TIP3   OH247502   3.273   5.800   0.592 -0.4694  0.3893 -0.0349
 8696TIP3    H147503   3.244   5.810   0.682 -0.5173  0.1259 -0.0201
 8696TIP3    H247504   3.196   5.768   0.545 -0.0592 -0.8558  0.1149
 8697TIP3   OH247505   5.049   1.802  11.467 -0.3930 -0.1473  0.9616
 8697TIP3    H147506   4.980   1.803  11.400  0.0834  1.0039  0.4622
 8697TIP3    H247507   5.127   1.771  11.421 -0.2066  0.0801  1.1206
 8698TIP3   OH247508   5.310   6.528  17.083  0.0667 -0.8456 -0.0766
 8698TIP3    H147509   5.351   6.558  17.001  0.4700 -0.5613  0.2219
 8698TIP3    H247510   5.308   6.433  17.075  0.2623 -0.8282 -0.3475
 8699TIP3   OH247511   4.060   3.127   5.350  0.1727  0.1345  0.3038
 8699TIP3    H147512   4.085   3.040   5.382 -0.1361  0.3577  1.1908
 8699TIP3    H247513   4.142   3.165   5.318  0.1385 -0.8465 -1.0391
 8700TIP3   OH247514   3.547   0.779  12.427 -0.0364 -0.2823 -0.3714
 8700TIP3    H147515   3.585   0.865  12.411 -2.1290  0.2694 -3.2489
 8700TIP3    H247516   3.569   0.728  12.349  0.7775 -2.3011  1.0718
 8701TIP3   OH247517   3.722   2.700  14.743 -0.1464 -0.2720 -0.2380
 8701TIP3    H147518   3.663   2.726  14.673 -0.2286 -2.2859 -0.9864
 8701TIP3    H247519   3.671   2.638  14.796  0.6426 -0.4910  0.2909
 8702TIP3   OH247520   0.866   6.056   3.498  0.0673 -0.0974  0.3883
 8702TIP3    H147521   0.922   6.033   3.572 -0.5357 -1.0246  0.5742
 8702TIP3    H247522   0.910   6.131   3.457  1.0317 -0.3240  0.9741
 8703TIP3   OH247523   2.671   0.504  17.356  0.1383  0.1839  0.0972
 8703TIP3    H147524   2.681   0.526  17.264 -1.5355  0.5670 -0.0342
 8703TIP3    H247525   2.662   0.588  17.400 -0.5206 -0.0380  0.4003
 8704TIP3   OH247526   5.983   5.639   2.051  0.3394 -0.3205 -0.5063
 8704TIP3    H147527   5.953   5.562   2.101 -0.4429  0.2632 -0.0396
 8704TIP3    H247528   6.055   5.674   2.103 -0.1032 -0.0411 -0.0713
 8705TIP3   OH247529   1.435   3.421  13.108  0.1268  0.3885  0.1690
 8705TIP3    H147530   1.518   3.447  13.068  0.6834  1.5644  1.9715
 8705TIP3    H247531   1.425   3.480  13.182 -2.0911 -0.0759  0.2959
 8706TIP3   OH247532   5.417   4.037  15.648  0.4650 -0.1487  0.4716
 8706TIP3    H147533   5.333   4.053  15.690  0.9999 -0.2950  1.6344
 8706TIP3    H247534   5.475   4.012  15.719  1.5423  0.1128 -0.2886
 8707TIP3   OH247535   6.385   3.037  17.049  0.0856  0.3746 -0.1442
 8707TIP3    H147536   6.390   3.099  17.122 -0.9013  1.2979 -0.8453
 8707TIP3    H247537   6.297   2.999  17.057  1.0277 -1.7599  0.9030
 8708TIP3   OH247538   0.687   6.721   2.148  0.4780  0.1032 -0.0680
 8708TIP3    H147539   0.748   6.757   2.212  1.1992 -0.7835 -0.2459
 8708TIP3    H247540   0.660   6.797   2.096  1.3378  0.5302  0.0860
 8709TIP3   OH247541   6.289   1.579   1.426  0.0752  0.2284  0.6401
 8709TIP3    H147542   6.260   1.590   1.336  0.6973  2.8858  0.6921
 8709TIP3    H247543   6.224   1.520   1.465  0.0182 -1.2990 -1.6014
 8710TIP3   OH247544   2.384   5.364   5.775  0.1556 -0.1382 -0.0265
 8710TIP3    H147545   2.442   5.361   5.851 -1.0747 -1.2690  0.9107
 8710TIP3    H247546   2.435   5.325   5.704  1.4770  1.3271  0.0715
 8711TIP3   OH247547   0.045   4.324  13.791 -0.0852  0.5742  0.4258
 8711TIP3    H147548   0.130   4.323  13.835 -0.3815 -0.9096  1.0138
 8711TIP3    H247549  -0.019   4.326  13.862 -0.5508 -0.2166  0.0433
 8712TIP3   OH247550   3.196   2.500  15.472 -0.1938 -0.2460 -0.3700
 8712TIP3    H147551   3.111   2.457  15.486 -1.0291  1.4262 -0.0012
 8712TIP3    H247552   3.193   2.530  15.381  0.0542 -0.2989 -0.3948
 8713TIP3   OH247553   2.585   6.471   0.081  0.1000  0.2484 -0.3173
 8713TIP3    H147554   2.518   6.420   0.126  1.0455  0.8573  1.9201
 8713TIP3    H247555   2.548   6.559   0.073  0.4786  0.5079  0.6433
 8714TIP3   OH247556   3.100   3.345   2.607  0.0663  0.3414  0.4084
 8714TIP3    H147557   3.193   3.337   2.627 -0.0186 -1.5814  0.2322
 8714TIP3    H247558   3.056   3.326   2.690 -0.1790  0.2347  0.2551
 8715TIP3   OH247559   6.141   4.891  12.823  0.2554  0.5727 -0.2968
 8715TIP3    H147560   6.047   4.886  12.842  0.3942  1.2593  0.6297
 8715TIP3    H247561   6.182   4.834  12.888  0.4967  0.3420 -0.6463
 8716TIP3   OH247562   3.456   4.645   3.169  0.5215 -0.0625  0.1186
 8716TIP3    H147563   3.492   4.706   3.233 -1.3773  0.6063  0.6123
 8716TIP3    H247564   3.396   4.699   3.117 -2.7270 -1.7708  1.8027
 8717TIP3   OH247565   0.964   5.194  17.241  0.6270 -0.1768 -0.7116
 8717TIP3    H147566   1.040   5.250  17.225  0.4790  0.5204  0.8656
 8717TIP3    H247567   0.889   5.249  17.223  0.4708 -0.5274 -1.1720
 8718TIP3   OH247568   1.413   2.772  12.512 -0.1234 -0.0564 -0.2141
 8718TIP3    H147569   1.438   2.853  12.555  1.5890  0.0015 -1.2550
 8718TIP3    H247570   1.487   2.713  12.525 -0.6781 -0.9243 -0.8288
 8719TIP3   OH247571   0.787   0.266  10.804  0.1263 -1.0218  0.0213
 8719TIP3    H147572   0.850   0.242  10.872 -0.5126 -0.3863  0.8654
 8719TIP3    H247573   0.831   0.245  10.722  1.6637 -0.1076  0.5675
 8720TIP3   OH247574   4.327   0.790  15.487  0.1759 -0.2930  0.0253
 8720TIP3    H147575   4.383   0.732  15.539 -1.7062 -1.7503  0.5843
 8720TIP3    H247576   4.281   0.843  15.552 -0.4752 -0.4693 -0.2809
 8721TIP3   OH247577   3.707   4.801   1.253 -0.1144 -0.0608 -0.1448
 8721TIP3    H147578   3.674   4.751   1.178  1.3709  1.8078 -2.1761
 8721TIP3    H247579   3.791   4.836   1.223 -0.8986  3.4079  1.1906
 8722TIP3   OH247580   2.041   5.956  11.605 -0.0634  0.1189 -0.0235
 8722TIP3    H147581   2.097   5.890  11.563 -0.8221  0.7486 -2.1635
 8722TIP3    H247582   1.953   5.921  11.596 -0.3027  0.5693  0.5357
 8723TIP3   OH247583   3.702   4.665  13.538 -0.0687 -0.0706 -0.4353
 8723TIP3    H147584   3.630   4.630  13.591  0.0721 -0.2327 -0.3531
 8723TIP3    H247585   3.773   4.680  13.600  0.7469 -2.0043 -0.8488
 8724TIP3   OH247586   6.357   5.415  16.654 -0.3755  0.0045 -0.1937
 8724TIP3    H147587   6.374   5.333  16.699 -0.2345  0.2052  0.1222
 8724TIP3    H247588   6.427   5.423  16.589 -1.4968 -1.1046 -1.6259
 8725TIP3   OH247589   5.831   0.763   6.186 -0.7558  0.3300  0.0408
 8725TIP3    H147590   5.916   0.732   6.153 -0.2692 -0.9168  2.2234
 8725TIP3    H247591   5.850   0.848   6.225 -0.1875 -0.4484  1.5564
 8726TIP3   OH247592   6.737   0.399  17.280  0.1380 -0.4772 -0.2832
 8726TIP3    H147593   6.761   0.490  17.298 -1.3101  0.0853 -1.0436
 8726TIP3    H247594   6.763   0.352  17.359  1.9990  0.3568 -0.3303
 8727TIP3   OH247595   2.421   3.009  13.467 -0.5345 -0.0547 -0.3855
 8727TIP3    H147596   2.364   2.937  13.440 -1.3633  0.5480 -0.2749
 8727TIP3    H247597   2.361   3.078  13.493  0.2101  1.2487 -1.9346
 8728TIP3   OH247598   3.074   0.716   4.644 -0.0501  0.4255  0.0127
 8728TIP3    H147599   3.126   0.695   4.722  0.1866  0.5458 -0.1136
 8728TIP3    H247600   3.139   0.733   4.576 -0.2467 -1.4224 -0.6982
 8729TIP3   OH247601   2.516   0.525   1.194 -0.1187  0.2831 -0.0492
 8729TIP3    H147602   2.519   0.514   1.099 -0.0422 -0.1740  0.0072
 8729TIP3    H247603   2.502   0.437   1.229 -1.8668  0.6595  0.2916
 8730TIP3   OH247604   5.663   2.930   1.011 -0.0313 -0.2144 -0.0173
 8730TIP3    H147605   5.758   2.943   1.005 -0.1630  0.1296 -1.8067
 8730TIP3    H247606   5.625   3.016   0.996 -0.6552 -0.5694 -0.5493
 8731TIP3   OH247607   2.967   3.266   0.834 -0.2620  0.0208 -0.3296
 8731TIP3    H147608   2.953   3.336   0.898  1.3556  0.6009 -0.5654
 8731TIP3    H247609   3.051   3.288   0.792 -0.8006 -0.8732 -1.9639
 8732TIP3   OH247610   4.545   1.835   5.928 -0.0739  0.0508 -0.0469
 8732TIP3    H147611   4.624   1.790   5.899  0.2846  1.4565 -1.3789
 8732TIP3    H247612   4.577   1.917   5.966 -0.8194  0.0698  0.5681
 8733TIP3   OH247613   5.919   4.974  15.001  0.0962 -0.3717 -0.1991
 8733TIP3    H147614   5.846   4.989  15.061  0.6198  0.8816  0.1624
 8733TIP3    H247615   5.889   5.008  14.917  0.2758  0.2098 -0.0334
 8734TIP3   OH247616   2.737   6.091  16.253 -0.0813 -0.2223 -0.5180
 8734TIP3    H147617   2.659   6.039  16.232 -0.1307 -0.7386  0.8453
 8734TIP3    H247618   2.810   6.032  16.236 -0.0896 -0.4117  0.0948
 8735TIP3   OH247619   3.760   0.748  12.226 -0.2238  0.2692 -0.6325
 8735TIP3    H147620   3.819   0.694  12.279 -0.2446 -0.2694 -1.1448
 8735TIP3    H247621   3.749   0.699  12.145  1.2226  1.8722 -1.8854
 8736TIP3   OH247622   3.353   5.800  10.730 -0.6110 -0.3131  0.2372
 8736TIP3    H147623   3.370   5.713  10.694  0.3773 -0.0317 -0.0119
 8736TIP3    H247624   3.260   5.800  10.751 -1.0877 -0.7345 -1.6662
 8737TIP3   OH247625   1.528   0.499   5.736  0.2304 -0.1635 -0.3158
 8737TIP3    H147626   1.484   0.465   5.659  0.1445 -0.1390 -0.2774
 8737TIP3    H247627   1.506   0.592   5.738  2.9242  0.6302 -2.1367
 8738TIP3   OH247628   4.262   5.978  13.672 -0.3228  0.0595  0.1322
 8738TIP3    H147629   4.313   5.909  13.629  0.7006  0.1861  1.1076
 8738TIP3    H247630   4.202   5.931  13.730 -1.1494 -0.0765 -0.7994
 8739TIP3   OH247631   5.001   0.413   6.709  0.2504 -0.4537 -0.2094
 8739TIP3    H147632   4.923   0.468   6.720 -0.3913 -1.0484 -1.6019
 8739TIP3    H247633   5.056   0.462   6.648  0.2102 -0.8134 -0.5344
 8740TIP3   OH247634   2.786   6.222   1.111 -0.4213 -0.1123 -0.1558
 8740TIP3    H147635   2.722   6.193   1.047 -0.0861  0.2911 -0.6824
 8740TIP3    H247636   2.770   6.167   1.188 -0.8735 -0.5502 -0.5580
 8741TIP3   OH247637   1.685   3.156   2.880  0.1192 -0.6091 -0.4383
 8741TIP3    H147638   1.615   3.137   2.943  1.5621 -3.4595  0.4907
 8741TIP3    H247639   1.744   3.214   2.928  0.1915 -1.1382  0.1338
 8742TIP3   OH247640   1.812   3.159   5.842 -0.3933 -0.0248  0.0201
 8742TIP3    H147641   1.844   3.170   5.752 -0.9598 -1.4966 -0.4019
 8742TIP3    H247642   1.718   3.178   5.836 -0.4049  0.0231  0.3339
 8743TIP3   OH247643   6.193   5.565   0.924  0.4683  0.0806  0.5020
 8743TIP3    H147644   6.175   5.655   0.895  0.1290 -0.0191  0.4073
 8743TIP3    H247645   6.226   5.521   0.846  3.0899  0.7836  1.0898
 8744TIP3   OH247646   5.633   1.131   5.105  0.0039 -0.0680 -0.1903
 8744TIP3    H147647   5.697   1.163   5.042  0.1352  0.6288  0.2862
 8744TIP3    H247648   5.625   1.038   5.086  1.1215 -0.1585 -0.2832
 8745TIP3   OH247649   4.702   4.548  13.333  0.1169 -0.4645  0.0220
 8745TIP3    H147650   4.611   4.550  13.303  0.3626  1.2227 -0.7623
 8745TIP3    H247651   4.708   4.620  13.396  0.6475 -1.2923  0.9383
 8746TIP3   OH247652   3.120   4.564   1.579  0.0967 -0.3870 -0.5164
 8746TIP3    H147653   3.040   4.558   1.631 -0.6988  0.3492 -1.5979
 8746TIP3    H247654   3.090   4.553   1.489  1.2218 -0.1189 -0.9375
 8747TIP3   OH247655   0.420   3.133   1.931  0.3834 -0.6350 -0.1660
 8747TIP3    H147656   0.439   3.217   1.970  1.3953 -0.8517 -0.1779
 8747TIP3    H247657   0.358   3.091   1.991  1.5599 -0.7788  0.9687
 8748TIP3   OH247658   4.151   2.099  17.331 -0.4517  0.1823 -0.2157
 8748TIP3    H147659   4.105   2.040  17.270  0.2203 -0.7096  0.1344
 8748TIP3    H247660   4.240   2.065  17.336 -0.6925 -0.2612  1.9072
 8749TIP3   OH247661   0.761   0.714  14.113 -0.4181  0.1223  0.1197
 8749TIP3    H147662   0.682   0.696  14.164 -0.3966  2.4348  1.0992
 8749TIP3    H247663   0.831   0.718  14.178 -0.5061  3.8278  0.2098
 8750TIP3   OH247664   2.754   5.521   2.966 -0.3751  0.6312  0.3555
 8750TIP3    H147665   2.666   5.488   2.987 -0.5813  1.4857  0.8927
 8750TIP3    H247666   2.782   5.565   3.046 -0.3130  2.1666 -0.4728
 8751TIP3   OH247667   3.684   3.252   2.892 -0.1924 -0.4229  0.0096
 8751TIP3    H147668   3.721   3.219   2.974  0.2584  0.3660  0.1313
 8751TIP3    H247669   3.591   3.232   2.898 -0.3959  0.7592  1.2993
 8752TIP3   OH247670   0.407   5.687   6.302  0.1764  0.0426  0.0843
 8752TIP3    H147671   0.311   5.684   6.298  0.1860  0.5890 -0.9386
 8752TIP3    H247672   0.434   5.679   6.210  1.2151 -3.0672  0.5349
 8753TIP3   OH247673   6.435   1.521  16.861  0.9432  0.3906  0.0801
 8753TIP3    H147674   6.531   1.512  16.859  0.9808  0.5295  0.8968
 8753TIP3    H247675   6.403   1.440  16.822  1.3972  1.1826 -2.1142
 8754TIP3   OH247676   0.863   1.699  13.901  0.0353 -0.0089  0.2012
 8754TIP3    H147677   0.867   1.613  13.944  0.3991 -0.2172 -0.2462
 8754TIP3    H247678   0.894   1.760  13.967  1.8155 -0.4739 -0.1565
 8755TIP3   OH247679   6.422   3.361   0.095  0.5421 -0.4896 -1.0752
 8755TIP3    H147680   6.429   3.443   0.144 -0.3380 -1.1379  0.1666
 8755TIP3    H247681   6.447   3.293   0.157 -2.0382 -1.4693 -0.9913
 8756TIP3   OH247682   0.845   3.841   0.771 -0.1487  0.2914 -0.1019
 8756TIP3    H147683   0.822   3.756   0.734  3.1038 -0.0690 -1.6111
 8756TIP3    H247684   0.891   3.820   0.852 -1.3754  0.7811  0.7509
 8757TIP3   OH247685   4.261   1.472  12.117 -0.1433 -0.8254  0.7156
 8757TIP3    H147686   4.219   1.525  12.185 -1.1659  0.0390 -0.5593
 8757TIP3    H247687   4.190   1.427  12.073  0.3595 -0.3551 -0.6306
 8758TIP3   OH247688   1.040   2.558   1.054 -0.2225 -0.0039 -0.3649
 8758TIP3    H147689   1.110   2.588   0.996 -0.9810  2.3007 -0.1952
 8758TIP3    H247690   1.085   2.518   1.128  0.8464 -0.2058 -1.0980
 8759TIP3   OH247691   1.401   6.294   4.557 -0.2660  0.0226  0.2025
 8759TIP3    H147692   1.320   6.344   4.561 -1.3413 -1.3883 -2.0504
 8759TIP3    H247693   1.374   6.204   4.575  1.1102 -0.2256  1.1379
 8760TIP3   OH247694   5.433   6.099  11.700  0.0245 -0.6322  0.0819
 8760TIP3    H147695   5.427   6.072  11.609 -1.2989 -0.2947  0.0415
 8760TIP3    H247696   5.526   6.110  11.717  0.2091  2.6413 -2.2417
 8761TIP3   OH247697   5.446   2.094   5.032 -0.4389 -0.2831  0.1443
 8761TIP3    H147698   5.526   2.120   5.078 -0.7011 -2.6230  2.1069
 8761TIP3    H247699   5.375   2.128   5.087 -0.7613 -1.4929  0.5009
 8762TIP3   OH247700   3.608   0.829   2.425  0.8346  0.5115 -0.0289
 8762TIP3    H147701   3.554   0.907   2.437  1.1974  0.7080  0.3633
 8762TIP3    H247702   3.607   0.813   2.331 -0.0981  0.3733 -0.0041
 8763TIP3   OH247703   4.381   4.129  17.001 -0.2352 -1.1042 -0.4665
 8763TIP3    H147704   4.424   4.087  16.927 -0.0316 -1.0724 -0.3683
 8763TIP3    H247705   4.300   4.165  16.965 -0.0344 -0.9022 -0.7227
 8764TIP3   OH247706   5.794   4.416   3.621  0.4741  0.5218 -0.3668
 8764TIP3    H147707   5.864   4.443   3.681 -1.4914  1.5713  1.6327
 8764TIP3    H247708   5.805   4.322   3.611  0.6759  0.2384  2.0189
 8765TIP3   OH247709   6.506   5.608   5.818  0.7013  0.0778 -0.0931
 8765TIP3    H147710   6.418   5.643   5.801  0.1151 -0.8630  0.8497
 8765TIP3    H247711   6.535   5.575   5.733  0.0369  0.1832 -0.3735
 8766TIP3   OH247712   0.599   6.602   1.110  0.7748  0.1396  0.7908
 8766TIP3    H147713   0.527   6.539   1.112  0.2972  0.6286 -0.4011
 8766TIP3    H247714   0.557   6.687   1.101  1.4418  0.5993  1.8271
 8767TIP3   OH247715   3.519   2.334  13.557 -0.1757  0.2651 -0.4859
 8767TIP3    H147716   3.574   2.312  13.481  0.8696  0.2037  0.2796
 8767TIP3    H247717   3.434   2.356  13.518  0.1585 -0.3554 -1.6360
 8768TIP3   OH247718   3.347   1.553   4.772  0.1317  0.3616 -0.2038
 8768TIP3    H147719   3.399   1.588   4.844  0.3776  2.6861 -1.4083
 8768TIP3    H247720   3.410   1.506   4.717  0.2997  0.2325  0.0992
 8769TIP3   OH247721   3.774   1.521  14.949  0.2827 -0.3007  0.4816
 8769TIP3    H147722   3.817   1.525  14.864  0.4652  1.1812  0.6138
 8769TIP3    H247723   3.680   1.524  14.928  0.3141 -0.4612  0.3165
 8770TIP3   OH247724   5.054   0.512  17.009 -0.1868 -0.8813  0.2900
 8770TIP3    H147725   5.060   0.569  17.086 -0.7085 -0.1062 -0.2259
 8770TIP3    H247726   5.056   0.572  16.934 -0.1547 -1.5877 -0.2935
 8771TIP3   OH247727   1.253   2.200   4.273  0.2234 -0.2720 -0.3109
 8771TIP3    H147728   1.260   2.286   4.231 -0.8225 -0.4230 -0.8325
 8771TIP3    H247729   1.159   2.189   4.289  0.5118 -0.5522  1.4051
 8772TIP3   OH247730   4.371   1.206   4.142 -0.2058 -0.0630 -0.2788
 8772TIP3    H147731   4.403   1.224   4.053  0.3717  0.6739  0.0655
 8772TIP3    H247732   4.282   1.172   4.129 -1.1530  2.4631 -1.0462
 8773TIP3   OH247733   1.370   5.409  16.839  0.7749 -0.0498 -0.6189
 8773TIP3    H147734   1.436   5.370  16.895  0.4419 -0.0874 -0.2513
 8773TIP3    H247735   1.314   5.336  16.811  0.8764 -0.0167 -0.9134
 8774TIP3   OH247736   1.964   4.371   0.772  0.7438  0.4604  0.8339
 8774TIP3    H147737   1.870   4.385   0.761  0.8812  2.6705  1.9549
 8774TIP3    H247738   1.970   4.308   0.844  0.1636 -0.7412 -0.1091
 8775TIP3   OH247739   4.083   3.161  15.078  0.1232  0.1222  0.8480
 8775TIP3    H147740   4.081   3.208  14.995 -0.4032  0.3656  0.9922
 8775TIP3    H247741   4.006   3.194  15.126  0.4430  0.0167  1.4419
 8776TIP3   OH247742   2.648   3.631   0.431 -0.3923  0.5080 -0.2162
 8776TIP3    H147743   2.669   3.571   0.503  0.0776  1.0369  0.0972
 8776TIP3    H247744   2.566   3.673   0.458 -1.8110 -1.3926 -1.3341
 8777TIP3   OH247745   0.676   0.244   4.397  0.6858 -0.1182 -0.1477
 8777TIP3    H147746   0.601   0.274   4.449 -0.0533  0.4597 -1.5152
 8777TIP3    H247747   0.722   0.324   4.373 -1.2700  0.1356 -3.7857
 8778TIP3   OH247748   5.589   0.974  12.441 -0.1370 -0.5716 -0.2705
 8778TIP3    H147749   5.544   0.968  12.525 -0.8154  0.8338 -0.5196
 8778TIP3    H247750   5.532   1.027  12.386  0.1669 -1.6914 -1.7309
 8779TIP3   OH247751   1.782   4.826  15.942 -0.1218 -0.1218  0.3700
 8779TIP3    H147752   1.833   4.847  16.020 -0.2857  0.2877  0.3690
 8779TIP3    H247753   1.731   4.905  15.925  0.6922  0.1809 -0.7628
 8780TIP3   OH247754   4.721   5.492  14.219 -0.1508 -0.7121 -0.2120
 8780TIP3    H147755   4.626   5.495  14.209  0.0540 -0.2889 -2.6629
 8780TIP3    H247756   4.752   5.566  14.167  1.5448 -0.6759  0.7705
 8781TIP3   OH247757   1.511   3.402   0.364  0.0754 -0.1094 -0.6802
 8781TIP3    H147758   1.524   3.333   0.299  0.2810 -1.4474  0.7156
 8781TIP3    H247759   1.599   3.437   0.379 -0.2072  1.5533 -2.4575
 8782TIP3   OH247760   4.605   5.164  15.059 -0.1639  0.0471  0.6336
 8782TIP3    H147761   4.606   5.208  14.974 -2.2125  0.2662  0.6801
 8782TIP3    H247762   4.697   5.162  15.086  0.3180  1.6195 -0.7394
 8783TIP3   OH247763   1.643   6.036   1.011 -0.1701 -0.3052 -0.2729
 8783TIP3    H147764   1.562   6.047   0.962  0.5109 -0.5697 -1.5281
 8783TIP3    H247765   1.706   6.093   0.966 -0.1668  1.6907  2.0528
 8784TIP3   OH247766   5.242   6.523   3.437 -0.3750 -0.4680 -0.5183
 8784TIP3    H147767   5.289   6.488   3.512 -0.9263  0.8236  0.4839
 8784TIP3    H247768   5.246   6.454   3.371  0.4259 -1.4993  0.5693
 8785TIP3   OH247769   1.978   3.858  14.936  0.5629  0.0522 -0.2086
 8785TIP3    H147770   1.907   3.813  14.982  1.7992 -0.4724  1.3235
 8785TIP3    H247771   1.949   3.949  14.928 -0.8874 -0.4460 -0.9973
 8786TIP3   OH247772   0.450   2.179  14.922 -0.3151  0.4458  0.0187
 8786TIP3    H147773   0.506   2.224  14.859 -1.5733  2.7012  0.4365
 8786TIP3    H247774   0.502   2.175  15.002  0.8834 -1.5034 -0.7723
 8787TIP3   OH247775   0.207   0.608   0.241  0.4495 -0.2817 -0.1633
 8787TIP3    H147776   0.173   0.526   0.276  1.8343 -0.0701  1.8114
 8787TIP3    H247777   0.155   0.676   0.284  0.6542 -0.0735 -0.2432
 8788TIP3   OH247778   3.851   0.881   4.270  0.5100 -0.0179 -0.2399
 8788TIP3    H147779   3.827   0.804   4.323  1.0457 -1.2525 -1.7074
 8788TIP3    H247780   3.897   0.938   4.331 -1.9915  0.3071  1.5135
 8789TIP3   OH247781   1.243   1.283  13.905  0.8766  0.4948 -0.3302
 8789TIP3    H147782   1.211   1.228  13.833  0.9470 -0.2016  0.1627
 8789TIP3    H247783   1.320   1.237  13.938  2.5846  2.2615 -1.6470
 8790TIP3   OH247784   1.396   0.464   2.955  0.1935  0.2169  0.2501
 8790TIP3    H147785   1.319   0.433   3.003 -0.1195  0.8998  0.2161
 8790TIP3    H247786   1.455   0.498   3.022 -0.6290  2.0024  0.1441
 8791TIP3   OH247787   5.847   5.138  11.344  0.0484 -0.3799  0.0121
 8791TIP3    H147788   5.879   5.155  11.432  0.6280  1.4797 -0.4996
 8791TIP3    H247789   5.764   5.185  11.339 -1.3099 -2.6437  0.3535
 8792TIP3   OH247790   0.969   5.399   3.345  0.3790 -0.5036  0.0391
 8792TIP3    H147791   0.899   5.410   3.281  1.4344  1.5942 -0.8586
 8792TIP3    H247792   0.924   5.371   3.425 -1.6095  1.4444 -0.3134
 8793TIP3   OH247793   1.856   2.132   5.753 -0.1472 -0.3730 -0.1556
 8793TIP3    H147794   1.824   2.185   5.827  1.9463  0.7921 -0.0078
 8793TIP3    H247795   1.902   2.059   5.794 -0.1293 -0.4593 -0.3299
 8794TIP3   OH247796   3.675   3.163  12.601  0.2229  0.5236  0.2843
 8794TIP3    H147797   3.715   3.189  12.684 -0.7112 -0.1191  0.9618
 8794TIP3    H247798   3.744   3.173  12.536  1.4366 -0.4013  1.3862
 8795TIP3   OH247799   6.191   0.437   3.130 -0.3915  0.5049 -0.6156
 8795TIP3    H147800   6.159   0.508   3.075 -0.6471  1.4330  0.6709
 8795TIP3    H247801   6.143   0.446   3.212 -1.3758 -1.9639 -0.8155
 8796TIP3   OH247802   0.723   3.882   4.655 -0.2389 -0.1205  0.0833
 8796TIP3    H147803   0.712   3.929   4.738  1.8961  1.1507 -0.2873
 8796TIP3    H247804   0.758   3.796   4.680  0.8912  0.4426  0.5006
 8797TIP3   OH247805   6.039   0.716   2.351  0.5626  0.2974 -0.1657
 8797TIP3    H147806   6.030   0.670   2.268 -0.7291  2.3011 -1.2138
 8797TIP3    H247807   5.983   0.667   2.412 -0.6473  0.3524 -1.1980
 8798TIP3   OH247808   1.907   4.723  16.265 -0.1969  0.5312  0.4318
 8798TIP3    H147809   1.943   4.651  16.214  1.2559  1.7468 -0.3420
 8798TIP3    H247810   1.979   4.749  16.323 -0.1651  2.2503 -0.3075
 8799TIP3   OH247811   3.384   2.410   1.371 -0.5354 -0.0283  0.1772
 8799TIP3    H147812   3.345   2.384   1.288 -1.0759 -2.0907  1.0180
 8799TIP3    H247813   3.425   2.495   1.353 -0.7864 -0.3382 -2.1252
 8800TIP3   OH247814   5.847   3.827  16.600 -0.6094 -0.6852 -0.1256
 8800TIP3    H147815   5.779   3.785  16.652  0.3571  0.2677  2.0094
 8800TIP3    H247816   5.906   3.756  16.575 -1.2639 -1.2015 -0.2292
 8801TIP3   OH247817   3.847   1.952   4.993  0.2156  0.4823 -0.0789
 8801TIP3    H147818   3.887   2.017   5.051  2.7948  2.6817 -3.9515
 8801TIP3    H247819   3.780   2.000   4.945 -0.8650 -0.9175 -0.0624
 8802TIP3   OH247820   0.834   1.514   0.941  0.4332 -0.6785 -0.3607
 8802TIP3    H147821   0.776   1.571   0.991 -0.0148 -0.3214 -1.2661
 8802TIP3    H247822   0.881   1.573   0.883 -0.1149 -1.2358 -1.3914
 8803TIP3   OH247823   1.684   5.825   0.747  0.6479 -0.2678  0.0702
 8803TIP3    H147824   1.628   5.892   0.708 -0.6826 -1.8126 -0.7853
 8803TIP3    H247825   1.757   5.817   0.686 -0.1020 -0.8373 -0.7720
 8804TIP3   OH247826   0.544   0.091  14.908 -0.1353 -0.5027 -0.0990
 8804TIP3    H147827   0.530   0.171  14.858  0.3968 -0.3992 -0.0855
 8804TIP3    H247828   0.596   0.036  14.850  1.2082 -0.0597  0.6425
 8805TIP3   OH247829   6.208   5.124   3.751 -0.5179 -0.8450 -0.3315
 8805TIP3    H147830   6.289   5.078   3.727 -1.0231 -1.0050 -1.8648
 8805TIP3    H247831   6.151   5.056   3.786 -0.3729 -0.9329 -0.2636
 8806TIP3   OH247832   1.072   0.626   5.221  0.3271 -0.8154 -0.1805
 8806TIP3    H147833   1.150   0.673   5.250 -0.9482  1.3487 -0.0635
 8806TIP3    H247834   1.084   0.613   5.127  0.1802  0.9309 -0.4707
 8807TIP3   OH247835   5.465   1.399   4.925 -0.1967 -0.1891 -0.5713
 8807TIP3    H147836   5.425   1.313   4.941 -1.2245  0.2202 -0.8719
 8807TIP3    H247837   5.547   1.378   4.879 -0.6755 -0.9900 -1.0965
 8808TIP3   OH247838   4.703   6.708   3.695  0.6318  0.0560 -0.0364
 8808TIP3    H147839   4.636   6.777   3.695  0.6450  0.0805  0.9698
 8808TIP3    H247840   4.766   6.736   3.761  2.3185  0.6509 -1.8020
 8809TIP3   OH247841   0.221   1.582   1.656 -0.3126 -0.3324  0.2673
 8809TIP3    H147842   0.226   1.580   1.752 -0.6959 -1.2388  0.2836
 8809TIP3    H247843   0.179   1.499   1.633  1.9485 -1.2506 -0.8233
 8810TIP3   OH247844   1.536   3.861  11.531 -0.8948 -0.6206  0.0738
 8810TIP3    H147845   1.542   3.927  11.462 -1.6499  0.6077  1.1305
 8810TIP3    H247846   1.606   3.884  11.592 -2.7039  0.8726  1.7491
 8811TIP3   OH247847   0.670   1.687   1.512 -0.6405 -0.3720  1.1495
 8811TIP3    H147848   0.587   1.639   1.509  0.1814 -1.8688  1.2059
 8811TIP3    H247849   0.734   1.622   1.543  1.2382 -0.3411 -2.1844
 8812TIP3   OH247850   0.754   6.502  15.444  0.0690  1.1398 -0.0410
 8812TIP3    H147851   0.677   6.530  15.494  2.0110  3.8485  1.7190
 8812TIP3    H247852   0.747   6.548  15.361 -0.3007  1.2487  0.0507
 8813TIP3   OH247853   2.335   5.551   3.523  0.1464 -0.0740 -0.0731
 8813TIP3    H147854   2.415   5.585   3.484 -0.6566  1.4603 -0.4545
 8813TIP3    H247855   2.285   5.515   3.449 -0.4845  0.9968 -0.1816
 8814TIP3   OH247856   3.033   1.548  16.410 -0.2896  0.7963  0.1854
 8814TIP3    H147857   2.985   1.619  16.452  0.3111  1.3528 -0.0607
 8814TIP3    H247858   2.966   1.496  16.365 -1.0487 -0.1750  2.2990
 8815TIP3   OH247859   2.878   2.246   5.658 -0.5977  0.0608 -0.1479
 8815TIP3    H147860   2.859   2.231   5.751 -0.3263 -1.0303 -0.2571
 8815TIP3    H247861   2.815   2.313   5.631 -0.4202  0.6898  0.9108
 8816TIP3   OH247862   3.657   0.132  11.147 -0.2646 -0.6933  0.2449
 8816TIP3    H147863   3.750   0.154  11.142 -0.6861  1.1012 -0.6482
 8816TIP3    H247864   3.615   0.212  11.181 -1.4030 -1.7181  1.3457
 8817TIP3   OH247865   0.003   0.732   0.438  0.3895 -0.6071  0.5794
 8817TIP3    H147866  -0.027   0.641   0.434 -1.0171 -0.1486  0.0815
 8817TIP3    H247867  -0.043   0.768   0.514  1.1341 -0.3611  0.9222
 8818TIP3   OH247868   1.904   1.202  16.188 -0.4516 -0.0512 -0.0806
 8818TIP3    H147869   1.989   1.245  16.186  0.0347 -0.9892 -0.3798
 8818TIP3    H247870   1.888   1.177  16.097 -2.0767  2.0239 -0.4324
 8819TIP3   OH247871   6.053   2.045   2.700 -0.1115 -0.4944  0.1655
 8819TIP3    H147872   6.038   2.101   2.776 -0.6485 -0.8959  0.3596
 8819TIP3    H247873   6.117   2.093   2.647  0.9413 -0.5980  1.2926
 8820TIP3   OH247874   6.375   1.072   4.459  0.0418 -0.4281  0.2906
 8820TIP3    H147875   6.307   1.042   4.519  0.0697  1.3931  1.3000
 8820TIP3    H247876   6.457   1.056   4.506  0.3281 -2.0233 -0.6619
 8821TIP3   OH247877   6.470   5.730   3.020  0.6959  0.3302  0.0219
 8821TIP3    H147878   6.506   5.641   3.021  2.5084  1.0250  0.1950
 8821TIP3    H247879   6.502   5.770   3.100 -3.1970  0.0764  1.9812
 8822TIP3   OH247880   0.357   3.904   4.750 -0.5902  0.7483  0.0542
 8822TIP3    H147881   0.313   3.972   4.801 -0.6150  0.9115 -0.1837
 8822TIP3    H247882   0.399   3.952   4.678 -0.7420  0.4949 -0.2038
 8823TIP3   OH247883   5.923   1.181  14.263  0.1557  0.0500 -0.0826
 8823TIP3    H147884   5.946   1.105  14.317 -0.8850 -0.2270  0.0101
 8823TIP3    H247885   5.830   1.197  14.284  0.4450  1.5540  0.1460
 8824TIP3   OH247886   5.171   4.077  11.162 -0.7890 -0.3604  0.3168
 8824TIP3    H147887   5.243   4.044  11.108 -0.8806 -0.4184  0.2288
 8824TIP3    H247888   5.106   4.109  11.099 -1.0990 -0.8567  0.3771
 8825TIP3   OH247889   6.071   2.361   0.829 -0.0768  0.0974 -0.5299
 8825TIP3    H147890   6.101   2.299   0.763 -2.1772  0.0251 -1.4903
 8825TIP3    H247891   6.017   2.309   0.889 -0.1591  0.6010 -0.1607
 8826TIP3   OH247892   2.081   2.482   4.500 -0.3889 -0.2540 -0.2138
 8826TIP3    H147893   2.097   2.406   4.556  0.8505  0.8371  0.9899
 8826TIP3    H247894   1.986   2.494   4.503 -0.3125  0.3985  2.6085
 8827TIP3   OH247895   2.939   1.334  11.296 -0.1172 -0.4376  0.0305
 8827TIP3    H147896   2.990   1.406  11.333  0.7063  0.1538 -2.1344
 8827TIP3    H247897   2.999   1.288  11.237 -0.8203 -2.5277  0.8144
 8828TIP3   OH247898   3.285   3.549   0.290  0.1562  0.2647  0.1128
 8828TIP3    H147899   3.283   3.569   0.197  0.5515 -1.6816 -0.3516
 8828TIP3    H247900   3.297   3.454   0.295  0.6152  0.3674  2.1449
 8829TIP3   OH247901   4.681   3.923  16.587 -0.7711  0.0819  0.5332
 8829TIP3    H147902   4.699   3.829  16.591 -0.8337  0.0610  0.3109
 8829TIP3    H247903   4.701   3.948  16.497 -1.6524  0.1018  0.3352
 8830TIP3   OH247904   5.228   0.227  15.824  0.6661 -0.1022 -0.2440
 8830TIP3    H147905   5.138   0.198  15.836  0.4287  0.6636 -0.1628
 8830TIP3    H247906   5.239   0.233  15.729 -0.2409  2.4218 -0.2638
 8831TIP3   OH247907   1.421   4.084   3.001 -0.5988 -0.2930  0.5079
 8831TIP3    H147908   1.497   4.040   2.962 -1.4046 -2.6006  1.4084
 8831TIP3    H247909   1.454   4.119   3.083 -0.3931 -0.8857  0.6804
 8832TIP3   OH247910   4.313   4.389   3.231 -0.0948  0.5648  0.5560
 8832TIP3    H147911   4.257   4.333   3.178  0.3015  0.0928  0.6382
 8832TIP3    H247912   4.253   4.454   3.269 -0.1204  2.3762 -2.2866
 8833TIP3   OH247913   2.629   6.660   6.748  0.4872  0.1778  0.5954
 8833TIP3    H147914   2.541   6.655   6.784  0.8573 -0.3093  1.4666
 8833TIP3    H247915   2.619   6.635   6.656 -0.1171 -1.0116  0.9648
 8834TIP3   OH247916   1.529   1.169  14.997 -0.2378  0.0046 -0.2436
 8834TIP3    H147917   1.535   1.082  14.958  1.9869 -0.2637  0.5205
 8834TIP3    H247918   1.505   1.152  15.088  1.1441  0.0539  0.1623
 8835TIP3   OH247919   6.391   2.748  15.416  0.4161  0.2105  0.0340
 8835TIP3    H147920   6.445   2.804  15.472  0.8897  0.8866 -1.0628
 8835TIP3    H247921   6.449   2.720  15.346 -0.2617 -0.3240 -0.3358
 8836TIP3   OH247922   0.397   3.271  15.486 -0.4426 -0.0918 -0.1586
 8836TIP3    H147923   0.463   3.225  15.537  2.8114  1.0137 -2.9923
 8836TIP3    H247924   0.394   3.359  15.523 -2.4395 -0.7885  1.5956
 8837TIP3   OH247925   6.644   3.800  15.916  0.0937 -0.6200  0.9866
 8837TIP3    H147926   6.551   3.790  15.895 -0.1992 -0.9091  2.3572
 8837TIP3    H247927   6.664   3.890  15.890  0.0189 -1.2117 -1.3635
 8838TIP3   OH247928   2.146   2.946   1.231  0.5575  0.2911 -0.1246
 8838TIP3    H147929   2.092   2.901   1.297 -1.6758  0.2500 -1.8611
 8838TIP3    H247930   2.119   3.037   1.236 -1.4426 -0.0601 -2.4636
 8839TIP3   OH247931   1.084   3.406   5.295  0.0438  0.1908  0.6886
 8839TIP3    H147932   1.173   3.429   5.268  0.4064 -0.1423  1.5478
 8839TIP3    H247933   1.031   3.414   5.216  0.8741  0.2206  0.1321
 8840TIP3   OH247934   3.544   5.590   5.033  0.3807  0.0191  0.2234
 8840TIP3    H147935   3.477   5.612   5.097  0.0265  0.7330 -0.3728
 8840TIP3    H247936   3.511   5.626   4.950  1.5195  0.4525 -0.0656
 8841TIP3   OH247937   4.775   2.919  12.338  0.2747 -0.0414 -0.4308
 8841TIP3    H147938   4.867   2.941  12.329  0.2890  0.5658  0.9705
 8841TIP3    H247939   4.774   2.830  12.372  0.4725  0.9437  2.3906
 8842TIP3   OH247940   6.693   4.325   3.885  0.3039 -0.4889  0.2062
 8842TIP3    H147941   6.695   4.251   3.946 -0.9802 -1.9724 -1.4386
 8842TIP3    H247942   6.601   4.333   3.860  0.3584  1.8979  0.5371
 8843TIP3   OH247943   6.591   0.435  16.166 -0.1560 -0.5080 -0.7343
 8843TIP3    H147944   6.582   0.340  16.171  1.5999 -0.7004 -0.4371
 8843TIP3    H247945   6.602   0.454  16.073  2.1711 -0.9485 -0.6132
 8844TIP3   OH247946   5.835   1.483  12.514  0.1412 -0.1823  0.5767
 8844TIP3    H147947   5.759   1.475  12.573 -0.7655 -2.7359 -0.7782
 8844TIP3    H247948   5.824   1.411  12.451  3.1059  0.0915 -0.3903
 8845TIP3   OH247949   1.853   4.618   4.235 -0.0343  1.0622 -0.1430
 8845TIP3    H147950   1.827   4.546   4.178  1.0225 -1.3689  2.2163
 8845TIP3    H247951   1.946   4.631   4.216  0.0791  0.9343  0.3168
 8846TIP3   OH247952   2.978   3.775   2.781 -0.6226  0.8179  0.0717
 8846TIP3    H147953   3.060   3.758   2.828 -1.7053  1.7631  2.4276
 8846TIP3    H247954   2.910   3.772   2.848 -2.8124 -1.5345 -2.0664
 8847TIP3   OH247955   3.653   6.287  12.635  0.4037  0.0499  0.6836
 8847TIP3    H147956   3.565   6.258  12.657  0.4828 -0.7695 -0.0249
 8847TIP3    H247957   3.673   6.243  12.553  0.5418  2.1031 -0.4711
 8848TIP3   OH247958   2.670   2.050   6.139 -0.7713 -0.3146 -0.5993
 8848TIP3    H147959   2.587   2.023   6.178 -0.5542 -0.8809 -0.5198
 8848TIP3    H247960   2.708   1.969   6.103 -0.1155 -0.1203 -0.3667
 8849TIP3   OH247961   4.359   1.948  10.615  0.1292  0.1254 -0.3482
 8849TIP3    H147962   4.319   2.000  10.546  3.1449  3.6863  0.2413
 8849TIP3    H247963   4.311   1.973  10.694 -1.1266 -1.3610 -0.5910
 8850TIP3   OH247964   2.880   0.064   2.694 -0.7943  0.0991 -0.1693
 8850TIP3    H147965   2.920   0.125   2.633 -4.1979  1.3873 -1.3472
 8850TIP3    H247966   2.844  -0.005   2.639  3.3382 -3.5459  1.1378
 8851TIP3   OH247967   6.184   4.196   4.564 -0.2432 -0.4162  0.0115
 8851TIP3    H147968   6.207   4.271   4.618 -0.6151 -0.8974  0.8440
 8851TIP3    H247969   6.264   4.144   4.560 -0.2416 -0.4252  0.1692
 8852TIP3   OH247970   4.816   2.749   2.588  0.0773 -0.2589  0.6551
 8852TIP3    H147971   4.836   2.803   2.512  2.9778  0.2582  1.6516
 8852TIP3    H247972   4.795   2.812   2.657 -1.7565 -0.6888  0.5369
 8853TIP3   OH247973   4.499   6.231  11.953 -0.0975 -0.0904  0.0456
 8853TIP3    H147974   4.545   6.148  11.939 -0.5653 -0.5120  0.9375
 8853TIP3    H247975   4.410   6.206  11.976  0.0646  0.5878  1.5629
 8854TIP3   OH247976   0.504   5.838  12.117  0.7177  0.0354 -0.2039
 8854TIP3    H147977   0.523   5.747  12.095  0.3651 -0.0097 -0.3201
 8854TIP3    H247978   0.444   5.867  12.049 -0.0707  0.0123  0.4715
 8855TIP3   OH247979   3.281   2.033  13.871  0.0512 -0.5493  0.2716
 8855TIP3    H147980   3.330   2.050  13.790 -1.9978 -2.9522 -1.6503
 8855TIP3    H247981   3.346   1.999  13.932  1.9756  2.8440  0.3701
 8856TIP3   OH247982   5.171   5.597   4.687 -0.0870 -1.0311 -0.1229
 8856TIP3    H147983   5.190   5.690   4.703 -0.2450 -0.9912 -0.1661
 8856TIP3    H247984   5.256   5.559   4.663 -0.1504 -0.7445 -0.8320
 8857TIP3   OH247985   0.142   4.197   2.244 -0.0200 -0.4514 -0.2308
 8857TIP3    H147986   0.198   4.177   2.169  0.7563 -0.5255  0.3553
 8857TIP3    H247987   0.081   4.263   2.212 -1.2358 -2.1738 -1.6027
 8858TIP3   OH247988   4.800   1.575  16.726 -0.0975  0.3886 -0.0203
 8858TIP3    H147989   4.738   1.504  16.712 -2.3092  2.1634  0.2811
 8858TIP3    H247990   4.807   1.619  16.641  1.3964 -0.2260 -0.2536
 8859TIP3   OH247991   0.604   6.663   1.463  1.0288 -0.0594 -0.1469
 8859TIP3    H147992   0.592   6.569   1.451  1.3139  0.0422 -1.3314
 8859TIP3    H247993   0.517   6.700   1.447  0.9772 -0.0982  0.0437
 8860TIP3   OH247994   3.685   6.235  13.502  0.1362  0.2465 -0.1454
 8860TIP3    H147995   3.710   6.161  13.447 -1.5478  0.3137 -1.0565
 8860TIP3    H247996   3.767   6.261  13.546  1.0291 -1.2716 -0.8368
 8861TIP3   OH247997   6.381   1.407   6.355 -0.3394  0.0650  0.0401
 8861TIP3    H147998   6.432   1.448   6.425  0.0344  0.5268 -0.4863
 8861TIP3    H247999   6.296   1.387   6.394  0.2610 -0.7983  0.9669
 8862TIP3   OH248000   1.770   0.078  15.013 -0.1434 -0.0111 -0.0959
 8862TIP3    H148001   1.696   0.102  15.069 -1.8957 -2.2077 -1.2741
 8862TIP3    H248002   1.817   0.012  15.063 -0.1272 -0.0227 -0.1270
 8863TIP3   OH248003   3.267   0.396   4.763  0.5313  0.6854  0.0656
 8863TIP3    H148004   3.199   0.427   4.703  0.0419  0.5633  0.5501
 8863TIP3    H248005   3.219   0.367   4.841  1.2236  1.8999  0.9850
 8864TIP3   OH248006   4.190   3.038   4.213  0.3187  0.1336  0.1661
 8864TIP3    H148007   4.103   3.051   4.176  0.4048 -1.0681 -0.5159
 8864TIP3    H248008   4.178   3.043   4.308 -0.3761  0.5518  0.0591
 8865TIP3   OH248009   2.435   0.058  16.143  0.4430  0.3576 -0.1265
 8865TIP3    H148010   2.518   0.087  16.105  1.4237 -1.2523  0.6879
 8865TIP3    H248011   2.431  -0.036  16.123 -2.0312  0.6921 -1.6590
 8866TIP3   OH248012   0.518   1.923   4.991  0.4030 -0.3081 -0.3686
 8866TIP3    H148013   0.524   2.017   5.008 -0.4778 -0.3343  0.1307
 8866TIP3    H248014   0.609   1.894   4.985  0.6966  0.4355  0.2881
 8867TIP3   OH248015   3.684   1.073  15.715 -0.4196 -0.3682  0.7680
 8867TIP3    H148016   3.655   1.104  15.629  0.4700  3.7558  1.7261
 8867TIP3    H248017   3.749   1.006  15.695 -2.5467 -1.9078 -1.6036
 8868TIP3   OH248018   3.907   0.128   1.137  0.5128 -0.0398  0.6861
 8868TIP3    H148019   3.830   0.121   1.080  0.8318  0.0597  0.2376
 8868TIP3    H248020   3.906   0.046   1.187  0.5559 -0.3981  0.1153
 8869TIP3   OH248021   5.796   2.010   4.484 -0.2204  0.4457 -0.4190
 8869TIP3    H148022   5.777   1.945   4.416  0.7085 -2.8312  2.1684
 8869TIP3    H248023   5.892   2.017   4.484  0.0337 -1.6566  2.0947
 8870TIP3   OH248024   0.718   0.153  15.096 -0.0701 -0.2259 -0.2844
 8870TIP3    H148025   0.795   0.192  15.054 -0.2074  2.1234  1.4068
 8870TIP3    H248026   0.659   0.132  15.024 -0.1407  3.2591 -1.4106
 8871TIP3   OH248027   3.608   0.888   6.130  0.3658 -0.6706  0.0071
 8871TIP3    H148028   3.665   0.825   6.173 -1.0645 -0.3643  2.5262
 8871TIP3    H248029   3.566   0.935   6.201 -1.2457  0.7300 -1.7707
 8872TIP3   OH248030   1.251   3.762   2.740  0.6157 -0.3275 -0.3842
 8872TIP3    H148031   1.336   3.785   2.703  1.4247 -1.3797  0.7403
 8872TIP3    H248032   1.249   3.666   2.737 -1.1796 -0.3129 -1.7545
 8873TIP3   OH248033   6.299   0.091  16.060  0.4125  0.2780  0.3592
 8873TIP3    H148034   6.374   0.043  16.094  2.5236  2.5845 -0.7437
 8873TIP3    H248035   6.335   0.175  16.033 -1.7262  0.0500 -4.0971
 8874TIP3   OH248036   6.476   1.603   2.775  0.5735  0.2227  0.6645
 8874TIP3    H148037   6.391   1.576   2.740 -0.2169 -0.4056  2.9079
 8874TIP3    H248038   6.483   1.696   2.753  0.2579 -0.1626 -1.2691
 8875TIP3   OH248039   1.986   3.360  15.474  0.1897 -0.0463 -0.1182
 8875TIP3    H148040   1.953   3.450  15.471 -1.7218 -0.7088 -3.2137
 8875TIP3    H248041   2.040   3.358  15.552 -0.8874  3.3693  0.9224
 8876TIP3   OH248042   5.110   1.533   4.257  0.4630 -0.1311  0.0078
 8876TIP3    H148043   5.180   1.567   4.313  0.4259  0.7965 -0.4939
 8876TIP3    H248044   5.068   1.611   4.221 -0.4868 -0.6863 -0.1275
 8877TIP3   OH248045   3.096   1.860  13.719 -0.4190 -0.0793 -0.7930
 8877TIP3    H148046   3.119   1.781  13.769 -1.5724  0.5874  0.8719
 8877TIP3    H248047   3.168   1.921  13.735 -0.5460 -0.0464 -0.3431
 8878TIP3   OH248048   0.835   0.185  11.532 -0.2238 -0.6235  0.0349
 8878TIP3    H148049   0.896   0.229  11.473 -0.2948  1.2057  1.2626
 8878TIP3    H248050   0.847   0.092  11.513 -0.7161 -0.1266 -3.2989
 8879TIP3   OH248051   0.965   1.345  17.419  0.2318 -0.1751 -0.0053
 8879TIP3    H148052   0.956   1.427  17.371  1.0320 -0.6220 -0.9517
 8879TIP3    H248053   0.917   1.359  17.501  0.2136  1.1594 -0.2337
 8880TIP3   OH248054   2.458   3.796   6.763 -0.2061 -0.1753  0.7443
 8880TIP3    H148055   2.393   3.751   6.710 -0.8983 -0.9726  2.1902
 8880TIP3    H248056   2.542   3.763   6.732 -0.6015 -0.7050  0.2194
 8881TIP3   OH248057   0.683   0.335  13.998  0.6404 -0.2545  0.6541
 8881TIP3    H148058   0.713   0.245  14.008  0.2536 -0.4024  0.5210
 8881TIP3    H248059   0.737   0.372  13.928  0.4686 -0.5367  0.3693
 8882TIP3   OH248060   5.845   1.153  14.011  0.1142 -0.3310  0.5770
 8882TIP3    H148061   5.892   1.166  14.094 -0.8079  1.9960  0.8307
 8882TIP3    H248062   5.758   1.125  14.038  0.3163 -1.2589  0.2841
 8883TIP3   OH248063   2.282   3.630   4.539  0.0370 -0.5396 -0.1241
 8883TIP3    H148064   2.242   3.687   4.473  0.7432  2.3498  1.7345
 8883TIP3    H248065   2.353   3.587   4.493 -0.6699 -0.1019 -1.7033
 8884TIP3   OH248066   5.091   3.509   2.797  0.1510  0.2761 -0.4135
 8884TIP3    H148067   5.136   3.590   2.773 -0.1312  0.1059 -1.5350
 8884TIP3    H248068   5.144   3.473   2.868  0.3284  1.3925  0.0415
 8885TIP3   OH248069   6.092   0.643   3.763  0.0626  0.3649  0.2499
 8885TIP3    H148070   6.123   0.564   3.719 -0.9585  0.1348 -0.0766
 8885TIP3    H248071   6.113   0.714   3.703 -0.0714  0.2056  0.0128
 8886TIP3   OH248072   5.051   3.802  16.643 -0.0190 -0.4318  0.0560
 8886TIP3    H148073   4.975   3.816  16.699  2.6195  1.6177  3.5219
 8886TIP3    H248074   5.031   3.849  16.562 -2.7476 -0.8469  0.4203
 8887TIP3   OH248075   1.568   1.965  16.092  0.1745 -0.2963 -0.3320
 8887TIP3    H148076   1.487   1.970  16.042 -1.4864 -0.0469  2.1996
 8887TIP3    H248077   1.596   2.056  16.103 -0.4082 -0.2156  0.5768
 8888TIP3   OH248078   5.316   4.688  12.075  0.0944  0.2100  0.2106
 8888TIP3    H148079   5.224   4.712  12.088 -0.1717 -1.1545  1.1365
 8888TIP3    H248080   5.320   4.595  12.099  1.8013  0.3371  0.5646
 8889TIP3   OH248081   5.497   4.105  17.278  0.3156  0.0481 -0.7207
 8889TIP3    H148082   5.499   4.019  17.319  0.1013  0.9711  1.3419
 8889TIP3    H248083   5.406   4.133  17.287  0.3833  0.4992 -1.3749
 8890TIP3   OH248084   5.470   6.468   6.619 -0.1880 -0.3490  0.8849
 8890TIP3    H148085   5.525   6.428   6.687 -1.9283 -1.0601  1.9302
 8890TIP3    H248086   5.442   6.395   6.564  0.5762  0.1236 -0.1643
 8891TIP3   OH248087   5.053   1.315  12.261 -0.5678 -0.2075  1.1754
 8891TIP3    H148088   4.991   1.347  12.195 -0.8028 -2.9144 -0.0667
 8891TIP3    H248089   4.999   1.299  12.338 -1.4336 -2.0061  0.2754
 8892TIP3   OH248090   3.272   0.420   5.763  0.0515 -0.5700  0.0593
 8892TIP3    H148091   3.211   0.352   5.793 -0.5227  0.5347  1.5073
 8892TIP3    H248092   3.236   0.448   5.678 -0.8078 -0.7674  0.3405
 8893TIP3   OH248093   2.093   2.013   0.258  0.0976 -0.3577  0.2678
 8893TIP3    H148094   2.003   2.045   0.257 -0.6743 -2.3873  0.1698
 8893TIP3    H248095   2.136   2.059   0.186 -0.9568  0.3931  0.0991
 8894TIP3   OH248096   1.764   4.589   5.993 -0.1008 -0.5124  0.6448
 8894TIP3    H148097   1.842   4.577   5.939 -0.7763 -1.1758 -0.2213
 8894TIP3    H248098   1.703   4.521   5.963 -0.8188 -0.3483  1.6622
 8895TIP3   OH248099   3.413   5.047  11.439 -0.1984 -0.2615 -0.2894
 8895TIP3    H148100   3.413   5.052  11.344 -2.2262  1.2493 -0.2712
 8895TIP3    H248101   3.493   5.093  11.465 -0.7232  1.3149 -1.2598
 8896TIP3   OH248102   5.469   5.603   4.639  0.2709 -0.3424 -0.3471
 8896TIP3    H148103   5.451   5.642   4.554  0.9325 -2.9086 -1.7682
 8896TIP3    H248104   5.457   5.509   4.625 -0.0463 -0.8297  2.5314
 8897TIP3   OH248105   3.441   3.254   4.785 -0.0551 -0.0487 -0.4047
 8897TIP3    H148106   3.370   3.245   4.848  0.6018 -0.6358  0.2694
 8897TIP3    H248107   3.472   3.165   4.771 -1.4928 -0.2288 -3.1414
 8898TIP3   OH248108   6.329   1.556   5.203 -0.0428  0.4134 -0.6033
 8898TIP3    H148109   6.371   1.605   5.274  0.1005 -0.2901 -0.1883
 8898TIP3    H248110   6.382   1.574   5.126 -1.3791  2.8575 -1.0416
 8899TIP3   OH248111   1.228   3.718  13.133  0.2872 -0.1890  0.2874
 8899TIP3    H148112   1.163   3.779  13.168  0.8563  0.1581  0.7488
 8899TIP3    H248113   1.273   3.685  13.210  0.4210 -0.7052 -0.0090
 8900TIP3   OH248114   3.673   2.158  15.457  0.4306  0.1161 -0.2856
 8900TIP3    H148115   3.643   2.176  15.546  0.3424 -0.6598 -0.1493
 8900TIP3    H248116   3.667   2.062  15.449 -0.8335  0.2620 -1.5633
 8901TIP3   OH248117   4.969   5.122  16.877  0.0702  0.0922  0.5585
 8901TIP3    H148118   4.977   5.192  16.811 -0.0358  1.8839  2.3490
 8901TIP3    H248119   4.978   5.041  16.827  1.8236  1.3900 -1.4057
 8902TIP3   OH248120   4.342   3.752  17.046 -0.0882  0.3613 -0.5088
 8902TIP3    H148121   4.281   3.739  17.119  0.6050 -1.2841 -0.1752
 8902TIP3    H248122   4.300   3.817  16.991 -2.2489 -0.8283 -0.3779
 8903TIP3   OH248123   5.592   5.337   4.613 -0.2860 -0.4127  0.1021
 8903TIP3    H148124   5.647   5.305   4.541 -0.3379 -0.6511  0.1680
 8903TIP3    H248125   5.515   5.280   4.611 -1.1412  0.7379 -0.8177
 8904TIP3   OH248126   1.554   5.640   2.644  0.2441 -0.2327 -0.0882
 8904TIP3    H148127   1.518   5.558   2.679 -0.2322 -0.3005 -0.7054
 8904TIP3    H248128   1.551   5.628   2.549 -0.6533  0.8403 -0.2090
 8905TIP3   OH248129   0.487   5.886  13.091  0.2718 -0.1827  0.0693
 8905TIP3    H148130   0.405   5.849  13.058  0.1216  0.2951 -0.1071
 8905TIP3    H248131   0.487   5.976  13.058  2.1689 -0.9411 -2.3404
 8906TIP3   OH248132   0.441   0.193   3.259 -0.4180  0.4237  0.0882
 8906TIP3    H148133   0.445   0.248   3.181 -2.7947 -0.1866 -0.5533
 8906TIP3    H248134   0.498   0.118   3.239  0.3093  1.0820 -0.3381
 8907TIP3   OH248135   1.106   1.569  11.721  0.3548  0.2908  0.6639
 8907TIP3    H148136   1.157   1.606  11.793 -0.5202 -0.0613  1.4850
 8907TIP3    H248137   1.069   1.488  11.757 -0.0218  0.0575 -0.2167
 8908TIP3   OH248138   3.900   3.537  12.713 -0.0685  0.2745  0.3276
 8908TIP3    H148139   3.858   3.589  12.644  0.4768  1.1485  0.6371
 8908TIP3    H248140   3.968   3.489  12.667  1.3208  2.0197  0.4485
 8909TIP3   OH248141   1.998   0.417  10.926  0.3059  0.2027  0.3027
 8909TIP3    H148142   1.994   0.358  10.851  2.2519  0.9213 -0.4303
 8909TIP3    H248143   2.091   0.438  10.935 -0.2119  2.3694  1.1463
 8910TIP3   OH248144   5.155   1.553   2.377  0.4994  0.4048  0.1699
 8910TIP3    H148145   5.091   1.540   2.447  1.6093 -0.0134  1.1452
 8910TIP3    H248146   5.144   1.477   2.320  0.9066 -0.2817  0.9807
 8911TIP3   OH248147   2.348   3.305   4.602 -0.4531 -0.1326  0.0944
 8911TIP3    H148148   2.387   3.233   4.652 -1.1321 -0.0424  0.7712
 8911TIP3    H248149   2.257   3.279   4.590 -0.6528  0.5215  0.1604
 8912TIP3   OH248150   5.286   2.048   1.438 -0.4449 -0.1374  0.4924
 8912TIP3    H148151   5.249   2.126   1.480 -1.2855 -0.6258  0.6700
 8912TIP3    H248152   5.378   2.049   1.464 -0.6507  0.3066  1.2397
 8913TIP3   OH248153   3.566   6.270   3.586  0.1691 -0.5740  0.0478
 8913TIP3    H148154   3.525   6.320   3.656  0.4834  0.6996 -0.6552
 8913TIP3    H248155   3.660   6.275   3.604  0.4126  1.4200 -1.4862
 8914TIP3   OH248156   6.395   2.536   5.138  0.1653  0.4829 -0.2854
 8914TIP3    H148157   6.473   2.509   5.187 -0.5360  0.4809  0.8853
 8914TIP3    H248158   6.420   2.531   5.046  0.6020 -2.6284 -0.1025
 8915TIP3   OH248159   6.626   6.652  14.514  0.1332 -1.1301 -0.0007
 8915TIP3    H148160   6.617   6.720  14.580  0.0469 -2.2992  1.2518
 8915TIP3    H248161   6.720   6.644  14.500  0.1724 -1.1211  0.2569
 8916TIP3   OH248162   2.450   2.117  12.465  0.3641  0.6894  0.1304
 8916TIP3    H148163   2.516   2.162  12.518 -1.1822  1.6244  1.3506
 8916TIP3    H248164   2.431   2.178  12.394 -0.0690  0.9615  0.4780
 8917TIP3   OH248165   6.380   5.698   5.143  0.1900 -0.0188  0.1162
 8917TIP3    H148166   6.291   5.698   5.108 -0.4841  2.5962  1.5955
 8917TIP3    H248167   6.375   5.641   5.220  0.4205 -1.6943 -1.0600
 8918TIP3   OH248168   1.354   2.859  14.202  0.4034 -0.4033  0.0452
 8918TIP3    H148169   1.286   2.885  14.140  0.1357 -2.5772 -0.6447
 8918TIP3    H248170   1.433   2.851  14.149  0.5119 -0.8094  0.2630
 8919TIP3   OH248171   4.199   3.904  13.720 -0.0589  0.3614 -0.2643
 8919TIP3    H148172   4.213   3.972  13.655  0.5275  0.1178 -0.4025
 8919TIP3    H248173   4.135   3.845  13.680  1.6134 -0.7733 -1.4226
 8920TIP3   OH248174   5.182   1.295  15.398  0.1323 -0.0830  0.4677
 8920TIP3    H148175   5.251   1.334  15.344  0.6884 -1.8927 -0.1956
 8920TIP3    H248176   5.131   1.370  15.429  0.3418  1.0954 -1.8152
 8921TIP3   OH248177   4.454   3.490  16.113 -0.5373  0.3563  0.1739
 8921TIP3    H148178   4.491   3.508  16.199 -1.9006  1.2300  0.6149
 8921TIP3    H248179   4.493   3.556  16.055  1.3501 -1.0175 -0.1920
 8922TIP3   OH248180   5.217   2.149  15.122 -0.5316  0.1541 -0.3739
 8922TIP3    H148181   5.311   2.161  15.116 -0.3193 -1.1409  0.0455
 8922TIP3    H248182   5.180   2.235  15.101  0.7857  1.3157  1.6689
 8923TIP3   OH248183   5.786   0.717   0.342  0.0085 -0.0103  0.8669
 8923TIP3    H148184   5.745   0.803   0.328  0.2119  0.0271  0.4913
 8923TIP3    H248185   5.807   0.686   0.254 -0.2493 -0.5416  0.9892
 8924TIP3   OH248186   1.404   0.477  14.524 -0.2084  0.2231 -0.1795
 8924TIP3    H148187   1.482   0.530  14.541 -0.3552  0.0183  1.2444
 8924TIP3    H248188   1.416   0.399  14.579 -1.7623  0.5422  0.6685
 8925TIP3   OH248189   4.122   1.446  14.305  0.5818 -0.1147  0.7889
 8925TIP3    H148190   4.083   1.368  14.267 -0.9109 -0.2426  2.4686
 8925TIP3    H248191   4.062   1.517  14.282  0.5345  0.0763  1.4711
 8926TIP3   OH248192   6.682   0.677   0.904  0.2082 -0.4440  0.3489
 8926TIP3    H148193   6.597   0.715   0.926  1.0148  0.7354  1.5903
 8926TIP3    H248194   6.671   0.583   0.921 -0.7000 -0.2363  1.0161
 8927TIP3   OH248195   0.843   0.589   3.438  0.3807 -0.3959 -0.0648
 8927TIP3    H148196   0.937   0.572   3.445  0.4774 -0.8746 -1.9705
 8927TIP3    H248197   0.838   0.683   3.420  0.4864 -0.3589  0.0944
 8928TIP3   OH248198   2.524   4.504  16.258  0.4039 -0.1936 -0.2466
 8928TIP3    H148199   2.517   4.569  16.188  0.4048 -1.4443 -1.4448
 8928TIP3    H248200   2.498   4.421  16.217  0.1226 -0.9074  1.3164
 8929TIP3   OH248201   0.993   6.078   3.812  0.4214 -0.2611 -0.0557
 8929TIP3    H148202   1.045   6.109   3.886 -0.8129 -2.5500  1.9169
 8929TIP3    H248203   0.909   6.123   3.822  1.0978  1.4693 -1.7206
 8930TIP3   OH248204   2.728   3.749  13.668  0.7552  0.0011  0.7105
 8930TIP3    H148205   2.686   3.835  13.662  0.3759 -0.1400  1.3386
 8930TIP3    H248206   2.655   3.687  13.667  1.0744 -0.4318 -1.5954
 8931TIP3   OH248207   5.195   2.179  16.757  0.0813 -0.0387 -0.3797
 8931TIP3    H148208   5.139   2.140  16.823 -0.2498 -0.1918 -0.7440
 8931TIP3    H248209   5.136   2.229  16.701 -0.5023 -3.5641 -3.3416
 8932TIP3   OH248210   4.551   4.050   4.306 -0.0202 -0.2140 -0.7318
 8932TIP3    H148211   4.460   4.059   4.278  0.0267  0.1879 -0.7690
 8932TIP3    H248212   4.550   3.979   4.370 -0.3431 -0.2809 -0.8081
 8933TIP3   OH248213   4.517   4.430  13.549 -0.0927  0.3572  0.2352
 8933TIP3    H148214   4.452   4.411  13.482  0.0840 -0.9550  0.4116
 8933TIP3    H248215   4.589   4.370  13.530  0.6345  1.0722  0.6646
 8934TIP3   OH248216   3.557   2.894  16.132  0.1787  0.2670 -0.4227
 8934TIP3    H148217   3.482   2.859  16.180  1.3704 -1.9829 -0.0700
 8934TIP3    H248218   3.518   2.946  16.062 -1.6770  0.1078  0.4245
 8935TIP3   OH248219   0.632   3.917   5.378  0.0489  0.2962 -0.3462
 8935TIP3    H148220   0.575   3.864   5.433 -1.0691 -1.1288 -2.7387
 8935TIP3    H248221   0.669   3.855   5.315  1.3354  1.8410 -1.1881
 8936TIP3   OH248222   3.794   4.441   6.750 -0.4033 -0.0348  0.5714
 8936TIP3    H148223   3.817   4.349   6.742 -0.2104  0.1614 -1.4420
 8936TIP3    H248224   3.864   4.478   6.805 -0.7934 -1.1504  1.8919
 8937TIP3   OH248225   5.035   1.354  14.690 -0.3252  0.3654  0.1360
 8937TIP3    H148226   5.093   1.367  14.765 -1.9718 -1.0035  1.7579
 8937TIP3    H248227   5.064   1.271  14.651 -0.6877  0.0730  0.4796
 8938TIP3   OH248228   2.390   2.197  14.214 -0.6757 -0.2490  0.0184
 8938TIP3    H148229   2.307   2.157  14.240 -0.2522 -1.8358 -0.9456
 8938TIP3    H248230   2.395   2.183  14.119 -0.4411  2.0379 -0.3575
 8939TIP3   OH248231   3.109   4.662  14.688 -0.2646  1.1451 -0.3887
 8939TIP3    H148232   3.120   4.617  14.605 -0.9856  0.5829 -0.1899
 8939TIP3    H248233   3.026   4.709  14.679  1.0474  3.4901 -1.0552
 8940TIP3   OH248234   5.147   0.777   3.660 -0.3040  0.0894 -0.4132
 8940TIP3    H148235   5.160   0.706   3.597  0.9581  0.4412 -0.5782
 8940TIP3    H248236   5.228   0.828   3.656 -1.5825  2.2076 -1.1103
 8941TIP3   OH248237   0.956   2.165  14.744 -0.4474  0.0677  0.2951
 8941TIP3    H148238   0.994   2.155  14.831 -0.4772 -0.6466  0.2308
 8941TIP3    H248239   1.012   2.229  14.700  0.3521 -0.5533  0.3955
 8942TIP3   OH248240   2.905   4.853  15.545 -0.5774 -0.3077 -0.4813
 8942TIP3    H148241   2.954   4.777  15.577  1.3201  0.0586 -2.3345
 8942TIP3    H248242   2.914   4.918  15.614  0.6982 -0.6033 -0.3532
 8943TIP3   OH248243   6.329   4.274  15.033  0.6141  0.1096  0.1730
 8943TIP3    H148244   6.309   4.332  15.107  1.7772 -1.5081  1.8189
 8943TIP3    H248245   6.243   4.243  15.004  0.1548  0.3550  1.2128
 8944TIP3   OH248246   3.650   0.499  13.118 -0.4238  0.5636  0.1262
 8944TIP3    H148247   3.646   0.422  13.175 -0.9442  2.2577  2.5183
 8944TIP3    H248248   3.586   0.481  13.050 -0.2354 -1.2810  0.3792
 8945TIP3   OH248249   0.647   1.223  14.447  0.3294 -0.3225  0.4010
 8945TIP3    H148250   0.650   1.319  14.452  1.1017 -0.3725  0.8806
 8945TIP3    H248251   0.624   1.205  14.355  2.3342  0.2989 -0.2715
 8946TIP3   OH248252   0.253   4.046   3.052 -0.4228 -0.1095  0.0605
 8946TIP3    H148253   0.267   4.071   2.961 -1.1517 -0.3932 -0.1352
 8946TIP3    H248254   0.178   4.098   3.080 -0.0252  0.1864  0.5880
 8947TIP3   OH248255   6.588   4.721  14.813  0.7760  0.3938 -0.2857
 8947TIP3    H148256   6.681   4.711  14.834  1.4861  0.7446 -2.8368
 8947TIP3    H248257   6.557   4.632  14.797  0.8659  0.3250 -0.0721
 8948TIP3   OH248258   5.404   6.715  11.889  0.3270  0.1521  0.2122
 8948TIP3    H148259   5.426   6.800  11.850 -0.0039  0.3886  0.5398
 8948TIP3    H248260   5.467   6.654  11.850  0.6161  0.5605  0.0340
 8949TIP3   OH248261   5.816   3.569   5.116 -0.4691  0.2476 -0.6251
 8949TIP3    H148262   5.852   3.604   5.035 -1.5937 -0.2826 -1.3824
 8949TIP3    H248263   5.892   3.561   5.175  0.2092  1.4801 -1.3027
 8950TIP3   OH248264   1.726   4.925   5.682 -0.0671  0.2118 -0.5608
 8950TIP3    H148265   1.645   4.890   5.645  0.9588 -0.8039 -1.9681
 8950TIP3    H248266   1.714   4.918   5.777 -1.2679 -0.7675 -0.7528
 8951TIP3   OH248267   0.337   2.437   5.179  0.0559  0.0348 -0.0874
 8951TIP3    H148268   0.403   2.502   5.203  1.5837 -0.5585 -2.3618
 8951TIP3    H248269   0.253   2.480   5.199  1.0464  1.3227  1.6396
 8952TIP3   OH248270   3.546   6.503   2.406  0.0817 -0.1773 -0.3676
 8952TIP3    H148271   3.516   6.585   2.447  0.5924  0.1124 -0.5663
 8952TIP3    H248272   3.467   6.466   2.366 -0.0015  0.6350 -0.9870
 8953TIP3   OH248273   0.602   1.023  14.674 -0.1314 -0.4940  0.1864
 8953TIP3    H148274   0.538   0.980  14.730  0.5021 -1.8458 -0.0806
 8953TIP3    H248275   0.626   0.956  14.609 -0.4044  0.8183 -1.3465
 8954TIP3   OH248276   5.802   1.801   2.289 -0.1762  0.1029 -0.3330
 8954TIP3    H148277   5.737   1.776   2.355 -2.8116  3.2986 -1.4668
 8954TIP3    H248278   5.864   1.856   2.336 -1.2669  1.2446 -0.1768
 8955TIP3   OH248279   3.934   0.997   0.614  0.0948  0.2507  0.3948
 8955TIP3    H148280   3.999   1.031   0.675  0.5186 -0.0828  0.1332
 8955TIP3    H248281   3.920   0.906   0.641 -1.7031  0.8551  1.6572
 8956TIP3   OH248282   5.819   2.700  16.176 -0.4696 -0.1815 -0.0027
 8956TIP3    H148283   5.900   2.707  16.125 -1.8860  1.1209 -2.2101
 8956TIP3    H248284   5.815   2.608  16.201  0.5205 -0.7901 -1.8816
 8957TIP3   OH248285   6.355   4.266  14.533  0.3515 -0.1378  0.2620
 8957TIP3    H148286   6.273   4.317  14.533 -1.2155 -2.4597 -0.7482
 8957TIP3    H248287   6.357   4.226  14.620 -0.7299 -1.6708 -0.3746
 8958TIP3   OH248288   3.385   1.597  12.547 -0.9651  0.5377 -0.3893
 8958TIP3    H148289   3.438   1.592  12.468 -1.8002  0.5513 -0.9632
 8958TIP3    H248290   3.421   1.530  12.604  0.1151  1.0208 -0.4834
 8959TIP3   OH248291   3.066   4.227  16.174 -0.1786  0.1513  0.3513
 8959TIP3    H148292   3.054   4.320  16.194 -1.2396  0.3774 -1.1669
 8959TIP3    H248293   3.073   4.185  16.260 -3.4057  1.1931  1.2703
 8960TIP3   OH248294   6.415   1.162   0.298  0.1733 -0.4243  0.2926
 8960TIP3    H148295   6.398   1.200   0.212 -0.5146  0.9485  0.9992
 8960TIP3    H248296   6.331   1.122   0.324  0.3873 -0.8661  0.3225
 8961TIP3   OH248297   2.731   0.220   1.197  0.0498  0.6364 -0.2054
 8961TIP3    H148298   2.743   0.127   1.182  0.4106  0.2695  1.9812
 8961TIP3    H248299   2.799   0.263   1.146  0.0462 -0.3045 -1.0115
 8962TIP3   OH248300   3.513   5.816   2.362 -0.7341  0.4646  0.0117
 8962TIP3    H148301   3.535   5.793   2.272 -0.2279  1.1821 -0.0575
 8962TIP3    H248302   3.523   5.911   2.366 -0.2416  0.3869  0.9598
 8963TIP3   OH248303   2.471   0.557   5.099 -0.2895 -0.3853 -0.1371
 8963TIP3    H148304   2.486   0.598   5.184  2.3535 -0.4155 -0.5007
 8963TIP3    H248305   2.473   0.631   5.037 -0.5318 -0.5283 -0.3128
 8964TIP3   OH248306   0.478   3.331  11.510 -0.1132 -0.6234 -0.1722
 8964TIP3    H148307   0.396   3.376  11.529  0.9477  1.5099 -0.3375
 8964TIP3    H248308   0.452   3.251  11.464 -2.0205  0.9734 -2.0427
 8965TIP3   OH248309   3.138   4.545  16.325 -0.0329 -0.1012  0.2729
 8965TIP3    H148310   3.187   4.602  16.385  0.0410  0.1376 -0.0093
 8965TIP3    H248311   3.077   4.498  16.381 -0.6475  0.8387  0.4286
 8966TIP3   OH248312   1.772   0.606  15.741 -0.0146  0.1305 -0.1092
 8966TIP3    H148313   1.690   0.655  15.734 -2.0116 -2.5297  2.2212
 8966TIP3    H248314   1.822   0.653  15.807 -2.0682 -0.9762  2.4037
 8967TIP3   OH248315   4.901   4.297  14.726  0.3101  0.2586  0.6705
 8967TIP3    H148316   4.812   4.270  14.705  0.6945 -0.1565 -0.4712
 8967TIP3    H248317   4.899   4.392  14.722 -0.4877  0.3569  2.4074
 8968TIP3   OH248318   1.198   0.493  14.100  0.1171 -0.0589 -0.2668
 8968TIP3    H148319   1.178   0.581  14.067  1.2747  0.2982 -0.0396
 8968TIP3    H248320   1.283   0.502  14.142 -0.4890 -0.9267  1.2229
 8969TIP3   OH248321   0.903   6.156   0.759 -0.0617 -0.2158 -0.1349
 8969TIP3    H148322   0.967   6.095   0.796 -0.0487 -0.0183  0.1706
 8969TIP3    H248323   0.820   6.109   0.765 -0.0595 -0.1901  0.1434
 8970TIP3   OH248324   4.117   5.549   5.349 -0.2110 -0.1554 -0.4422
 8970TIP3    H148325   4.043   5.559   5.289  0.0127  1.8350 -0.4777
 8970TIP3    H248326   4.182   5.613   5.318  2.1952 -2.8194 -1.2869
 8971TIP3   OH248327   6.660   3.966  14.869 -0.3490 -0.8792  0.1140
 8971TIP3    H148328   6.697   3.882  14.841 -1.4812 -1.0471 -0.9601
 8971TIP3    H248329   6.736   4.020  14.890  0.4757 -1.4877 -1.2003
 8972TIP3   OH248330   3.111   3.883  11.890 -0.2090  0.1850  0.2752
 8972TIP3    H148331   3.019   3.857  11.891 -0.8506  1.3624 -4.1127
 8972TIP3    H248332   3.152   3.825  11.825  0.9133  2.6208 -1.3686
 8973TIP3   OH248333   1.931   1.224  15.095 -0.6020 -0.7129  0.1515
 8973TIP3    H148334   2.023   1.244  15.113 -0.1360 -1.3271 -1.3415
 8973TIP3    H248335   1.888   1.227  15.180  0.6605  0.2668  0.7985
 8974TIP3   OH248336   4.697   6.111   6.035  0.3278 -0.0419 -0.7116
 8974TIP3    H148337   4.714   6.079   6.124  0.9622 -1.0551 -1.1743
 8974TIP3    H248338   4.601   6.108   6.027  0.2498  0.2265 -0.0155
 8975TIP3   OH248339   3.131   0.077  15.510  0.0465  0.6337 -0.8758
 8975TIP3    H148340   3.109   0.050  15.421  0.1526 -1.2339 -0.3782
 8975TIP3    H248341   3.202   0.019  15.536 -1.2951 -0.2554  1.1064
 8976TIP3   OH248342   1.307   4.357  15.378 -0.0059  0.6734  0.5448
 8976TIP3    H148343   1.232   4.302  15.402 -0.1514  1.1705  1.2400
 8976TIP3    H248344   1.365   4.298  15.330 -1.8950  0.8352 -2.1179
 8977TIP3   OH248345   6.709   5.888   2.251  0.1447  0.1468  0.7007
 8977TIP3    H148346   6.692   5.951   2.321  0.2369 -0.6637  1.4749
 8977TIP3    H248347   6.754   5.938   2.184  1.0273  0.7138  1.6895
 8978TIP3   OH248348   2.323   3.415   3.566  0.0684  0.5091  0.5106
 8978TIP3    H148349   2.313   3.510   3.574  0.9922  0.6617 -0.0762
 8978TIP3    H248350   2.377   3.403   3.488 -0.9613 -0.5454 -0.0723
 8979TIP3   OH248351   6.710   1.452  14.232 -0.3295  0.1095  0.3265
 8979TIP3    H148352   6.745   1.399  14.303 -0.5779  0.2490  0.5572
 8979TIP3    H248353   6.620   1.472  14.259  0.2557  1.9971  1.0263
 8980TIP3   OH248354   5.964   3.454  12.496 -0.5205 -0.2252 -0.2506
 8980TIP3    H148355   5.995   3.534  12.538  1.0531 -0.9798  0.0945
 8980TIP3    H248356   6.000   3.458  12.408  0.3242 -0.9461  0.0443
 8981TIP3   OH248357   3.831   1.710   1.693  0.1292 -0.1624 -0.4914
 8981TIP3    H148358   3.838   1.794   1.649  0.0601  0.2524  0.2741
 8981TIP3    H248359   3.770   1.725   1.765  1.2071 -0.4791  0.5323
 8982TIP3   OH248360   6.736   3.890  17.322 -0.0656  0.3070 -0.0462
 8982TIP3    H148361   6.785   3.856  17.397  2.3533  1.7853 -0.8277
 8982TIP3    H248362   6.644   3.888  17.349  0.3354 -2.7269  1.4830
 8983TIP3   OH248363   1.796   5.790  12.351 -0.1924  0.4536 -0.1131
 8983TIP3    H148364   1.785   5.708  12.398  0.7981  0.0992 -0.4890
 8983TIP3    H248365   1.740   5.852  12.399 -0.6054 -0.3210  0.4307
 8984TIP3   OH248366   2.778   4.491  17.390  0.5258  0.4214  0.7138
 8984TIP3    H148367   2.843   4.528  17.330 -0.6614 -0.4366 -1.2221
 8984TIP3    H248368   2.822   4.415  17.429  0.3946 -0.9091 -1.5278
 8985TIP3   OH248369   3.138   3.436   1.106 -0.0418  0.2150 -0.4126
 8985TIP3    H148370   3.129   3.469   1.195  0.0690 -0.5229 -0.1252
 8985TIP3    H248371   3.144   3.515   1.052  1.1346  0.6679  0.3453
 8986TIP3   OH248372   0.656   0.435  16.676  0.1692 -0.3576 -0.0415
 8986TIP3    H148373   0.607   0.494  16.619  1.3635 -0.3131 -1.0815
 8986TIP3    H248374   0.637   0.465  16.764 -0.4833  0.5788 -0.4863
 8987TIP3   OH248375   1.579   5.388  13.740  0.0164  0.7801  0.1407
 8987TIP3    H148376   1.522   5.344  13.802 -1.3009  1.5533 -0.4705
 8987TIP3    H248377   1.620   5.317  13.690 -0.4786  0.2037  0.5433
 8988TIP3   OH248378   4.092   3.364  12.592  0.0213 -0.0473  0.2342
 8988TIP3    H148379   4.143   3.370  12.511 -0.1501  0.6310  0.1700
 8988TIP3    H248380   4.091   3.271  12.613  1.6441 -0.0362  0.4723
 8989TIP3   OH248381   1.242   1.423   0.873 -0.0811 -0.1037  0.4399
 8989TIP3    H148382   1.244   1.482   0.798 -0.3208  0.3995  0.8271
 8989TIP3    H248383   1.204   1.475   0.944 -2.4793 -1.3776  0.1956
 8990TIP3   OH248384   2.021   6.354   1.987 -0.2891 -0.4853  0.1306
 8990TIP3    H148385   2.021   6.378   2.080 -2.4400 -0.3812  0.1445
 8990TIP3    H248386   2.015   6.259   1.987  0.4958 -0.5399  0.0826
 8991TIP3   OH248387   5.778   6.585   0.275 -0.0333 -0.5028 -0.1800
 8991TIP3    H148388   5.716   6.623   0.213 -0.7693 -0.3876  0.6053
 8991TIP3    H248389   5.758   6.492   0.276 -1.1063 -0.2844  1.0472
 8992TIP3   OH248390   2.842   5.546   0.534  0.0130 -0.1278  0.1881
 8992TIP3    H148391   2.772   5.505   0.484 -0.9353  0.4703  0.9938
 8992TIP3    H248392   2.890   5.599   0.470  1.9954 -3.2307 -1.1689
 8993TIP3   OH248393   2.647   5.880   3.691 -0.1968  0.1634  0.3106
 8993TIP3    H148394   2.636   5.932   3.770  1.0787  0.5818  0.2338
 8993TIP3    H248395   2.581   5.812   3.697 -1.3385  1.2789  0.8350
 8994TIP3   OH248396   4.661   3.960  10.997  0.1995 -0.0919  0.1006
 8994TIP3    H148397   4.683   3.868  10.984 -3.2115 -0.9337 -0.7187
 8994TIP3    H248398   4.658   3.996  10.908  1.3928  0.8445  0.4078
 8995TIP3   OH248399   2.393   3.368  12.114  0.7648 -0.2495 -0.3026
 8995TIP3    H148400   2.370   3.439  12.174 -0.6423 -1.2146  0.3577
 8995TIP3    H248401   2.477   3.335  12.146  2.8054  2.6713 -2.1283
 8996TIP3   OH248402   6.717   6.515   7.021 -1.0230  0.4154  0.4489
 8996TIP3    H148403   6.733   6.459   7.097 -0.1472  0.0664  0.0127
 8996TIP3    H248404   6.794   6.571   7.016 -0.8348  0.0852 -0.4879
 8997TIP3   OH248405   2.071   4.910   2.095 -0.8065  0.7231  0.6438
 8997TIP3    H148406   1.978   4.891   2.097 -0.4935 -1.3363 -1.0373
 8997TIP3    H248407   2.113   4.827   2.118  0.6323  1.1501 -0.3100
 8998TIP3   OH248408   5.557   2.885   1.264 -0.1174  0.4955  0.3172
 8998TIP3    H148409   5.573   2.954   1.328  0.3121 -0.1433  0.9158
 8998TIP3    H248410   5.606   2.912   1.186 -1.0810  1.5504  0.0457
 8999TIP3   OH248411   6.618   0.638  13.244 -0.1081  0.2132 -0.0545
 8999TIP3    H148412   6.602   0.694  13.320 -0.8631  0.0407 -0.0761
 8999TIP3    H248413   6.689   0.580  13.271 -0.5204  0.0087  0.6007
 9000TIP3   OH248414   0.620   1.038   4.066  0.2465 -0.7151  0.3518
 9000TIP3    H148415   0.531   1.059   4.095  0.2217 -1.3739  0.7673
 9000TIP3    H248416   0.665   1.123   4.063 -0.0452 -0.5168  1.3263
 9001TIP3   OH248417   1.335   0.732  12.867  0.3767 -0.0433  0.0588
 9001TIP3    H148418   1.398   0.708  12.935 -0.2095 -2.8293 -0.2319
 9001TIP3    H248419   1.265   0.777  12.914  1.4470  0.9733  0.7487
 9002TIP3   OH248420   4.306   4.962   4.809  0.6588  0.0641  0.4821
 9002TIP3    H148421   4.353   4.981   4.728  0.5375  0.0517  0.4090
 9002TIP3    H248422   4.372   4.922   4.866  0.9154  0.7043  0.6397
 9003TIP3   OH248423   2.516   5.332  12.948 -0.0704  0.1110  0.5629
 9003TIP3    H148424   2.441   5.296  12.900  0.9523 -1.2468 -0.0665
 9003TIP3    H248425   2.476   5.391  13.012 -2.4259 -5.0138  4.5760
 9004TIP3   OH248426   0.958   3.119   2.347 -0.3527 -0.5685 -0.0802
 9004TIP3    H148427   0.894   3.082   2.408  0.3117 -0.7423  0.5220
 9004TIP3    H248428   0.923   3.205   2.324 -0.3911 -0.3068  0.9126
 9005TIP3   OH248429   2.318   4.661   1.526  0.0053 -0.4560  0.3447
 9005TIP3    H148430   2.363   4.735   1.485  1.5415 -1.9764 -0.9061
 9005TIP3    H248431   2.268   4.621   1.455 -2.5019  0.5093  1.4621
 9006TIP3   OH248432   0.911   2.206  11.217  0.7067  0.3613 -0.1089
 9006TIP3    H148433   0.984   2.152  11.187  1.2409  0.4365  1.0171
 9006TIP3    H248434   0.904   2.275  11.151  1.6397  0.3441 -0.2447
 9007TIP3   OH248435   6.359   2.693  16.626  0.1130  0.4889  0.0628
 9007TIP3    H148436   6.351   2.728  16.715 -1.4488  0.8544 -0.1979
 9007TIP3    H248437   6.358   2.598  16.638  1.4633  0.5115  0.5366
 9008TIP3   OH248438   6.495   2.894   1.008  0.3005 -0.5683  0.2163
 9008TIP3    H148439   6.546   2.853   0.938  0.2039 -0.4053  0.0492
 9008TIP3    H248440   6.508   2.837   1.084 -1.5542 -2.1275 -0.5573
 9009TIP3   OH248441   6.673   6.030   5.222  0.1808  0.2214 -0.0051
 9009TIP3    H148442   6.685   6.084   5.301 -0.9007  0.4930 -0.0144
 9009TIP3    H248443   6.578   6.017   5.216  0.1821  0.7203 -1.5906
 9010TIP3   OH248444   2.440   1.108  11.812 -0.0943 -0.1367  0.7771
 9010TIP3    H148445   2.391   1.189  11.794  0.8373  0.4270  0.7008
 9010TIP3    H248446   2.447   1.065  11.727  1.4505  0.8966  0.3368
 9011TIP3   OH248447   0.758   3.147   1.995 -0.0671  0.1288  0.4087
 9011TIP3    H148448   0.741   3.073   2.052 -2.0723  1.2227  1.3251
 9011TIP3    H248449   0.846   3.176   2.019  0.0100 -0.8098  1.3264
 9012TIP3   OH248450   0.564   5.816  14.938 -0.6239  0.3000 -0.0808
 9012TIP3    H148451   0.647   5.831  14.983 -0.1491  1.7016 -1.3583
 9012TIP3    H248452   0.572   5.729  14.901 -0.2873 -0.1194  0.9349
 9013TIP3   OH248453   4.434   5.329   1.431  0.4892 -0.4036 -0.1577
 9013TIP3    H148454   4.518   5.291   1.404  0.5858 -2.2838  2.3701
 9013TIP3    H248455   4.453   5.371   1.515 -0.7273  0.8750 -0.4962
 9014TIP3   OH248456   0.931   4.417   5.162 -0.4248  0.6817  0.2887
 9014TIP3    H148457   0.871   4.382   5.096  0.0518 -0.3264  0.3758
 9014TIP3    H248458   0.943   4.346   5.224 -0.1826  1.3276  1.0017
 9015TIP3   OH248459   4.110   2.633  15.230 -0.1902 -0.1920 -0.0192
 9015TIP3    H148460   4.190   2.636  15.178 -0.7224  0.8441 -0.7983
 9015TIP3    H248461   4.098   2.722  15.262 -1.6442 -0.0421 -0.8809
 9016TIP3   OH248462   3.992   2.325   2.014 -0.4991  0.1519 -0.6538
 9016TIP3    H148463   4.058   2.285   2.069  0.8352  2.1774 -0.6703
 9016TIP3    H248464   3.924   2.355   2.075 -1.4814 -1.9386 -0.6408
 9017TIP3   OH248465   4.654   2.646  15.335 -0.1206  0.0905  0.1457
 9017TIP3    H148466   4.630   2.691  15.416 -1.1791 -0.0447 -0.0864
 9017TIP3    H248467   4.572   2.612  15.300  0.4126 -0.4405 -0.6412
 9018TIP3   OH248468   5.560   5.356   2.211 -0.1724  0.2791  0.1638
 9018TIP3    H148469   5.487   5.417   2.204 -0.3499  0.0856  0.2960
 9018TIP3    H248470   5.615   5.375   2.135 -0.6467  0.0604 -0.2344
 9019TIP3   OH248471   0.832   0.091  15.588  0.2982  0.5619  0.2981
 9019TIP3    H148472   0.867   0.135  15.511  2.2499 -2.9325 -1.0018
 9019TIP3    H248473   0.908   0.083  15.647 -0.5387  0.8424  1.4439
 9020TIP3   OH248474   3.132   0.532   4.209  0.2540  0.9611 -0.5392
 9020TIP3    H148475   3.055   0.511   4.156 -0.7779  0.2731  1.1623
 9020TIP3    H248476   3.195   0.463   4.187 -1.3702 -1.3446  1.4584
 9021TIP3   OH248477   2.581   0.744  16.790  0.4034 -0.1610  0.1402
 9021TIP3    H148478   2.496   0.716  16.755 -0.6619  0.1857  2.2837
 9021TIP3    H248479   2.596   0.687  16.865  1.6904  0.3184  0.2692
 9022TIP3   OH248480   3.424   4.068  12.350 -0.5155 -0.2161 -0.4510
 9022TIP3    H148481   3.512   4.072  12.385 -0.6784 -1.9381  0.2598
 9022TIP3    H248482   3.436   4.067  12.255  0.2123 -0.0794 -0.3608
 9023TIP3   OH248483   6.085   2.636  11.331  0.1965 -0.1066 -0.2905
 9023TIP3    H148484   6.130   2.649  11.247 -1.0629  1.6075 -0.7664
 9023TIP3    H248485   5.994   2.663  11.313 -0.3054 -0.5624  1.4001
 9024TIP3   OH248486   1.022   4.119  14.743  0.5360 -0.6306 -0.3322
 9024TIP3    H148487   1.108   4.138  14.780 -0.1812  1.4189  0.4025
 9024TIP3    H248488   0.961   4.140  14.813 -0.6034 -1.9879 -0.8620
 9025TIP3   OH248489   5.046   3.324   5.131  0.2748  0.2339  0.0412
 9025TIP3    H148490   5.019   3.416   5.135  0.7212  0.4324 -1.1191
 9025TIP3    H248491   5.092   3.309   5.214  2.3962  1.8053 -0.7628
 9026TIP3   OH248492   5.788   0.017  17.170  0.4116  0.7379 -0.6332
 9026TIP3    H148493   5.789  -0.063  17.222 -0.5103  1.1755  0.0882
 9026TIP3    H248494   5.879   0.030  17.145  0.4528 -1.0530 -1.5920
 9027TIP3   OH248495   4.536   1.760  15.366  0.8479 -0.0396 -0.1838
 9027TIP3    H148496   4.623   1.797  15.382  1.1869 -0.8922  0.0103
 9027TIP3    H248497   4.483   1.790  15.439  0.6791  1.3695 -0.8559
 9028TIP3   OH248498   4.592   0.200  16.165  0.1853  0.3239 -0.1094
 9028TIP3    H148499   4.669   0.236  16.208  0.7031 -0.5163 -0.3085
 9028TIP3    H248500   4.611   0.206  16.071  0.6617 -1.2148 -0.1416
 9029TIP3   OH248501   5.033   0.693  15.280  0.4956 -0.5193 -0.1640
 9029TIP3    H148502   5.042   0.606  15.241 -0.9642 -0.0992 -1.5588
 9029TIP3    H248503   5.023   0.677  15.374 -3.1545 -2.2126 -0.6709
 9030TIP3   OH248504   4.073   6.399  11.888 -0.4516 -0.7399 -0.1583
 9030TIP3    H148505   4.039   6.431  11.805 -0.2474 -1.8818 -0.7055
 9030TIP3    H248506   4.089   6.478  11.940  2.1029  0.2734 -2.2327
 9031TIP3   OH248507   0.794   4.310   1.835 -0.2277  0.5027 -0.7262
 9031TIP3    H148508   0.882   4.347   1.828 -0.1761  0.2453 -1.6031
 9031TIP3    H248509   0.759   4.317   1.746 -1.1834  0.8243 -0.3282
 9032TIP3   OH248510   2.694   5.544  16.666  0.0893  0.1108  0.0218
 9032TIP3    H148511   2.647   5.609  16.614 -0.2255 -0.1987 -0.0786
 9032TIP3    H248512   2.785   5.575  16.665 -0.2500  1.1974  0.9689
 9033TIP3   OH248513   0.086   1.373  13.991 -0.4181  0.4100  0.0989
 9033TIP3    H148514   0.015   1.357  13.928 -0.3256 -1.3046  0.3855
 9033TIP3    H248515   0.041   1.385  14.074 -0.3955 -1.0178  0.3430
 9034TIP3   OH248516   3.482   1.669  13.199  0.9506  0.5132 -0.2439
 9034TIP3    H148517   3.502   1.613  13.124 -2.3000 -0.7491 -0.3238
 9034TIP3    H248518   3.472   1.608  13.272  0.1348  1.3109  0.3253
 9035TIP3   OH248519   3.524   1.236  14.939 -0.0949  0.1070 -0.1528
 9035TIP3    H148520   3.474   1.295  14.995  0.9710  0.8944  0.0082
 9035TIP3    H248521   3.509   1.269  14.850 -0.9647 -0.5142 -0.2433
 9036TIP3   OH248522   4.947   6.700  15.456  0.0347 -0.0085 -0.6271
 9036TIP3    H148523   4.971   6.734  15.542  0.8987 -0.6806 -0.5928
 9036TIP3    H248524   5.030   6.684  15.412 -0.1375 -3.8227  0.0739
 9037TIP3   OH248525   5.808   4.806  12.151  0.6115  0.0153 -0.3735
 9037TIP3    H148526   5.737   4.748  12.124  0.7711 -0.9069  1.0340
 9037TIP3    H248527   5.863   4.815  12.073 -1.2403  1.1157 -1.6297
 9038TIP3   OH248528   2.783   4.417  12.313 -0.0764 -0.5962 -0.4092
 9038TIP3    H148529   2.737   4.418  12.396  1.1010 -0.0135  0.2604
 9038TIP3    H248530   2.858   4.358  12.328  0.0180 -0.6736 -1.1315
 9039TIP3   OH248531   2.369   0.298  15.782  0.0869 -0.0427  0.3010
 9039TIP3    H148532   2.368   0.388  15.748  0.4933  0.4512  1.5199
 9039TIP3    H248533   2.460   0.270  15.771 -0.2905 -0.7675 -1.1746
 9040TIP3   OH248534   3.007   3.355   5.273 -0.1225  0.1415 -0.1064
 9040TIP3    H148535   2.934   3.414   5.290  0.5250  0.7642  0.5605
 9040TIP3    H248536   3.059   3.357   5.354  0.1963 -0.9313 -0.2672
 9041TIP3   OH248537   4.814   1.848   3.677 -0.1606 -0.0910 -0.1221
 9041TIP3    H148538   4.887   1.822   3.732 -0.5334 -0.8504  0.0266
 9041TIP3    H248539   4.759   1.770   3.670 -0.7902  0.3673 -0.4993
 9042TIP3   OH248540   0.951   2.859   1.893  0.0656  0.1755  0.2864
 9042TIP3    H148541   0.893   2.878   1.966 -0.8018  0.6241 -0.5032
 9042TIP3    H248542   1.011   2.934   1.890 -0.1606  0.3554  0.2774
 9043TIP3   OH248543   4.453   0.315   3.071 -0.1531  0.7867  0.1579
 9043TIP3    H148544   4.509   0.375   3.022 -0.6672  1.0508 -0.1102
 9043TIP3    H248545   4.367   0.356   3.070 -0.6299 -0.2073 -0.4729
 9044TIP3   OH248546   2.592   2.104   0.002  0.0284 -0.2061  0.2551
 9044TIP3    H148547   2.654   2.040   0.036  0.5706  0.1896  0.0269
 9044TIP3    H248548   2.608   2.182   0.055  1.0273  0.4852 -1.0146
 9045TIP3   OH248549   1.193   0.535   1.256 -0.2361 -0.1131  0.3313
 9045TIP3    H148550   1.152   0.582   1.328  1.1587  0.7310  0.6068
 9045TIP3    H248551   1.260   0.594   1.223  0.9171 -1.5113  0.0493
 9046TIP3   OH248552   1.925   5.792  12.114  0.0567 -0.1605 -0.0102
 9046TIP3    H148553   2.020   5.801  12.127  0.0163 -1.0324  1.0258
 9046TIP3    H248554   1.888   5.806  12.201 -0.7187 -0.4448 -0.2933
 9047TIP3   OH248555   3.207   2.624  11.408  0.0016  0.0270  0.4602
 9047TIP3    H148556   3.249   2.676  11.340 -1.7588 -0.1455 -0.8198
 9047TIP3    H248557   3.278   2.573  11.446  1.2366  1.0573 -0.3682
 9048TIP3   OH248558   3.169   3.664   5.348  0.7034 -0.0256  0.2908
 9048TIP3    H148559   3.166   3.624   5.261  0.3949  1.4878 -0.4387
 9048TIP3    H248560   3.199   3.594   5.406 -3.3481 -2.4689 -0.1890
 9049TIP3   OH248561   5.402   6.541   2.516  0.6834  0.4562  0.0635
 9049TIP3    H148562   5.438   6.455   2.540  1.2751  0.5887 -0.3355
 9049TIP3    H248563   5.404   6.591   2.598 -2.0543 -0.6916  0.9583
 9050TIP3   OH248564   5.067   6.732   5.501  0.9555  0.0228 -0.3160
 9050TIP3    H148565   4.976   6.718   5.476  0.3801 -2.2415  2.5243
 9050TIP3    H248566   5.066   6.813   5.551  0.5743  0.1813 -0.5777
 9051TIP3   OH248567   2.152   0.873   3.890  0.4654  0.2578 -0.1449
 9051TIP3    H148568   2.156   0.953   3.942  3.6881  0.4982 -0.5533
 9051TIP3    H248569   2.204   0.810   3.940  0.0793 -0.8287 -1.0637
 9052TIP3   OH248570   1.046   1.068  12.746  0.8572  0.5635 -0.0520
 9052TIP3    H148571   1.103   1.144  12.744 -0.8161  1.8494 -1.0711
 9052TIP3    H248572   0.982   1.083  12.677 -1.3568 -0.2831  1.6617
 9053TIP3   OH248573   2.338   4.026   5.896  0.6509 -0.3840 -0.0184
 9053TIP3    H148574   2.248   3.995   5.905 -0.2955  2.0847 -0.2758
 9053TIP3    H248575   2.390   3.963   5.946 -1.5395 -0.3686  2.5156
 9054TIP3   OH248576   6.400   4.120  12.477 -0.2745 -0.2670 -0.1179
 9054TIP3    H148577   6.311   4.129  12.442  0.7407 -0.3750 -3.0100
 9054TIP3    H248578   6.441   4.054  12.421  1.8913  0.4055  0.5779
 9055TIP3   OH248579   4.344   5.688  11.939  0.9675 -0.4373  0.5001
 9055TIP3    H148580   4.264   5.663  11.985  0.2219  0.9627 -0.0016
 9055TIP3    H248581   4.409   5.697  12.009 -0.3000  2.2911  1.4705
 9056TIP3   OH248582   3.678   3.419  12.231  0.0661  0.0303  0.7195
 9056TIP3    H148583   3.630   3.341  12.204  0.4084  0.5605 -1.6586
 9056TIP3    H248584   3.770   3.396  12.217  0.2004  0.6688  0.5183
 9057TIP3   OH248585   4.344   3.157   5.332 -0.5524 -0.1041  0.2895
 9057TIP3    H148586   4.296   3.200   5.403 -0.7105  0.9160 -0.4109
 9057TIP3    H248587   4.420   3.213   5.317 -0.3243 -0.5099 -0.0952
 9058TIP3   OH248588   2.534   4.095  12.065 -0.1499 -0.7194 -0.0306
 9058TIP3    H148589   2.534   4.001  12.048  2.5280 -0.8843  0.4604
 9058TIP3    H248590   2.523   4.135  11.979 -0.1110 -1.4776 -0.3962
 9059TIP3   OH248591   3.431   3.321   5.152 -0.5076 -0.3463  0.1283
 9059TIP3    H148592   3.468   3.235   5.173 -2.6992 -1.5980 -0.7131
 9059TIP3    H248593   3.347   3.300   5.110 -1.2716  2.2387  0.2374
 9060TIP3   OH248594   3.117   0.414  14.351 -0.1312 -0.7069  0.4187
 9060TIP3    H148595   3.078   0.340  14.304  1.2487 -0.9315 -0.4370
 9060TIP3    H248596   3.128   0.382  14.440 -0.9861 -0.9812  0.4266
 9061TIP3   OH248597   6.678   2.651  12.167 -0.4353 -0.3702  0.2329
 9061TIP3    H148598   6.682   2.578  12.104 -0.7583  0.0529 -0.2852
 9061TIP3    H248599   6.738   2.625  12.237  1.3273 -0.0570 -1.0919
 9062TIP3   OH248600   4.130   1.711  13.792 -0.0341  0.0811  0.5553
 9062TIP3    H148601   4.186   1.690  13.866 -1.9406 -0.4535  1.9044
 9062TIP3    H248602   4.064   1.642  13.791 -1.7148  1.6205  0.1481
 9063TIP3   OH248603   0.937   5.675  12.177 -0.3218 -0.0612 -0.3303
 9063TIP3    H148604   0.870   5.608  12.163 -0.4250 -0.2518  0.9687
 9063TIP3    H248605   1.020   5.628  12.169 -0.3958 -0.4347  0.8452
 9064TIP3   OH248606   1.387   2.376  12.340 -0.2110  0.1670  0.0597
 9064TIP3    H148607   1.292   2.379  12.354 -0.3102  0.8382 -0.7274
 9064TIP3    H248608   1.405   2.449  12.281  0.8504  0.2712  0.4966
 9065TIP3   OH248609   3.229   2.881  15.137  0.3620  0.2288  0.3022
 9065TIP3    H148610   3.288   2.855  15.207 -0.5108 -0.4152  0.8188
 9065TIP3    H248611   3.213   2.801  15.088  0.2750  0.4977 -0.1172
 9066TIP3   OH248612   2.430   0.051   2.831 -0.3112 -0.1099 -0.4900
 9066TIP3    H148613   2.389   0.091   2.907  0.0151 -0.3757 -0.1727
 9066TIP3    H248614   2.510   0.103   2.816  0.3336 -0.8872  0.1787
 9067TIP3   OH248615   6.435   5.349  15.256 -0.2550 -0.0643  0.2269
 9067TIP3    H148616   6.399   5.294  15.187  0.6097  0.8807 -1.0210
 9067TIP3    H248617   6.360   5.397  15.291 -0.8462 -1.2343  0.6005
 9068TIP3   OH248618   5.769   2.220   2.668 -0.2088 -0.0614 -0.0223
 9068TIP3    H148619   5.720   2.205   2.587  0.7600  0.4253 -0.7189
 9068TIP3    H248620   5.745   2.147   2.725 -1.5718  0.0578 -0.4230
 9069TIP3   OH248621   4.382   4.523   2.707 -0.0899  0.6188 -0.1111
 9069TIP3    H148622   4.390   4.428   2.700 -3.4192  0.2958 -1.1823
 9069TIP3    H248623   4.450   4.557   2.649 -0.0240 -1.1541 -1.1412
 9070TIP3   OH248624   5.134   5.668  16.540 -0.1947  0.1619 -0.3028
 9070TIP3    H148625   5.161   5.671  16.448  0.0009  0.0046 -0.2518
 9070TIP3    H248626   5.106   5.757  16.559  0.0546  0.2712 -0.4302
 9071TIP3   OH248627   0.890   1.725   0.740 -0.2418 -0.2200 -0.2908
 9071TIP3    H148628   0.825   1.685   0.798 -1.0289 -0.1562 -1.1029
 9071TIP3    H248629   0.945   1.652   0.711  0.1456 -0.2559  0.5018
 9072TIP3   OH248630   1.261   2.413  13.529 -0.0949 -0.1849 -0.5722
 9072TIP3    H148631   1.229   2.323  13.540 -0.5734  0.0490 -0.0195
 9072TIP3    H248632   1.278   2.443  13.618 -1.2154  0.7354 -0.6560
 9073TIP3   OH248633   6.489   4.844  16.251 -0.1753  0.2818  0.4749
 9073TIP3    H148634   6.500   4.833  16.346 -0.4593  1.1015  0.6114
 9073TIP3    H248635   6.565   4.799  16.213 -1.2996 -2.1766  0.9534
 9074TIP3   OH248636   3.380   3.553  16.095 -0.2136 -0.2080 -0.0270
 9074TIP3    H148637   3.372   3.648  16.080 -0.3247 -0.2071  0.0389
 9074TIP3    H248638   3.471   3.533  16.073  0.4236  0.2811  1.9577
 9075TIP3   OH248639   2.505   1.002   4.935  0.7689 -0.6996 -0.2938
 9075TIP3    H148640   2.526   1.040   4.850 -1.5209 -0.2963 -0.7470
 9075TIP3    H248641   2.543   0.915   4.933  1.6104 -0.3256 -1.3279
 9076TIP3   OH248642   1.284   6.626   6.479 -0.2563  0.1756 -0.6985
 9076TIP3    H148643   1.225   6.674   6.421  0.7069  1.9959 -0.2281
 9076TIP3    H248644   1.310   6.690   6.546  2.3520 -0.4878 -0.9677
 9077TIP3   OH248645   3.534   2.712   4.908 -0.2670  0.4735 -0.1546
 9077TIP3    H148646   3.457   2.667   4.944  1.2213 -1.3027  0.9884
 9077TIP3    H248647   3.602   2.700   4.975  1.5194  0.4167 -1.8994
 9078TIP3   OH248648   4.508   4.249   0.804  0.3099 -0.0218 -0.4003
 9078TIP3    H148649   4.496   4.157   0.781  0.4445 -0.0559 -0.3390
 9078TIP3    H248650   4.559   4.286   0.732 -0.8320  0.3132 -1.0489
 9079TIP3   OH248651   2.626   4.480   1.217  0.3001  0.6487  0.3518
 9079TIP3    H148652   2.546   4.515   1.177  0.6890 -0.0368 -1.0908
 9079TIP3    H248653   2.662   4.554   1.266 -1.4883  0.8149  1.5144
 9080TIP3   OH248654   1.123   0.167  16.798 -0.0397 -0.2665 -0.3367
 9080TIP3    H148655   1.045   0.114  16.816  1.3218 -1.6055  2.2105
 9080TIP3    H248656   1.185   0.105  16.760 -0.0682  0.7258 -2.0714
 9081TIP3   OH248657   3.170   4.902  11.940  0.0043  0.0272  0.1024
 9081TIP3    H148658   3.116   4.870  11.868  0.0823 -0.3786  0.2164
 9081TIP3    H248659   3.258   4.872  11.919 -0.1043 -0.8134  0.7567
 9082TIP3   OH248660   4.207   2.186  16.351  0.2091  0.0311  0.9881
 9082TIP3    H148661   4.286   2.241  16.350 -0.6380  1.3504  2.4336
 9082TIP3    H248662   4.159   2.215  16.428 -2.1534 -0.1141 -0.3494
 9083TIP3   OH248663   4.230   3.882  11.298 -0.0671  0.1887 -0.4314
 9083TIP3    H148664   4.185   3.926  11.226  0.3381  0.6523 -0.4096
 9083TIP3    H248665   4.322   3.903  11.284  0.0830 -0.2936 -0.1649
 9084TIP3   OH248666   4.101   3.615   3.993  0.0844 -0.6690 -0.1524
 9084TIP3    H148667   4.018   3.658   4.011  0.3820  0.0014 -0.3581
 9084TIP3    H248668   4.098   3.534   4.044 -0.5785 -0.5187  0.0504
 9085TIP3   OH248669   3.037   4.827  13.655 -0.4657 -0.3318 -0.0146
 9085TIP3    H148670   2.953   4.784  13.673 -1.3155  1.3445  0.1918
 9085TIP3    H248671   3.015   4.902  13.601  0.8845  0.2879  0.2506
 9086TIP3   OH248672   2.571   6.232   3.840 -0.4167 -0.2424  0.0031
 9086TIP3    H148673   2.514   6.155   3.831 -0.4341 -0.3317  0.8447
 9086TIP3    H248674   2.659   6.196   3.845 -0.4637 -0.2484  0.9113
 9087TIP3   OH248675   4.336   3.226   4.101  0.1788 -0.0922  0.3600
 9087TIP3    H148676   4.411   3.172   4.076  0.7213  0.0254  1.6757
 9087TIP3    H248677   4.272   3.164   4.137 -0.5120 -0.2332 -1.0400
 9088TIP3   OH248678   3.377   4.447  15.235  0.0868  0.4507  0.2982
 9088TIP3    H148679   3.349   4.528  15.276 -1.0925 -0.2469  0.9215
 9088TIP3    H248680   3.360   4.460  15.141  0.0483  0.9712  0.3751
 9089TIP3   OH248681   1.659   1.922  12.181 -0.3797 -0.1402 -0.1413
 9089TIP3    H148682   1.653   1.872  12.263 -1.5976  1.3635  0.7564
 9089TIP3    H248683   1.607   2.001  12.198  0.2847  0.7446 -1.9929
 9090TIP3   OH248684   3.110   1.011   4.216  0.0974  0.7790  0.1980
 9090TIP3    H148685   3.057   0.956   4.275  0.6046  2.2320  2.0971
 9090TIP3    H248686   3.151   0.949   4.156 -0.8971 -0.7258  1.0068
 9091TIP3   OH248687   1.376   4.080  12.328 -0.0165 -0.3721 -0.5287
 9091TIP3    H148688   1.287   4.044  12.332 -0.1094 -0.2442 -1.3802
 9091TIP3    H248689   1.422   4.035  12.400 -0.9791  0.1970  0.4831
 9092TIP3   OH248690   1.106   5.603  15.613  0.3320  0.8632  0.0727
 9092TIP3    H148691   1.192   5.560  15.615  0.3464  0.7266 -1.7347
 9092TIP3    H248692   1.122   5.691  15.645  1.4357  1.2338 -1.3780
 9093TIP3   OH248693   5.354   6.593   1.049 -0.5770 -0.5211  0.2720
 9093TIP3    H148694   5.389   6.633   1.129 -0.7309 -1.9374  1.0803
 9093TIP3    H248695   5.267   6.631   1.040  0.2417  1.3102 -0.4931
 9094TIP3   OH248696   3.194   0.899  14.525  0.2132  0.4447  0.1318
 9094TIP3    H148697   3.124   0.941  14.475  1.3404  1.4869 -0.6035
 9094TIP3    H248698   3.213   0.961  14.595 -1.3657 -1.0017  1.9818
 9095TIP3   OH248699   0.462   5.473   0.569 -0.3073  0.6259  0.2698
 9095TIP3    H148700   0.469   5.388   0.526 -0.1254  0.1753  1.1676
 9095TIP3    H248701   0.472   5.454   0.662 -1.0068  1.5403  0.5498
 9096TIP3   OH248702   5.560   3.564   0.380  0.0190 -0.3133  0.1532
 9096TIP3    H148703   5.604   3.545   0.297  0.7361 -2.3348  0.9341
 9096TIP3    H248704   5.472   3.527   0.370  0.5748 -1.8896  0.7545
 9097TIP3   OH248705   4.384   2.963   5.150  0.3256 -0.7974 -0.1841
 9097TIP3    H148706   4.299   2.926   5.128 -0.1355  0.6436 -0.9849
 9097TIP3    H248707   4.364   3.029   5.217  0.5180  0.7261 -1.5455
 9098TIP3   OH248708   1.659   6.677  17.417  0.5431  0.1156  0.3868
 9098TIP3    H148709   1.582   6.623  17.432  1.6263 -1.2744  1.1176
 9098TIP3    H248710   1.631   6.742  17.352 -1.3523 -0.0748  0.9681
 9099TIP3   OH248711   5.130   5.807  14.285  0.1201  0.6738  0.4917
 9099TIP3    H148712   5.046   5.779  14.321  0.1805  1.1839  1.0415
 9099TIP3    H248713   5.150   5.742  14.217 -0.6900  0.5206  0.3909
 9100TIP3   OH248714   4.551   5.095  16.256  0.0962 -0.5979  0.3488
 9100TIP3    H148715   4.621   5.128  16.199 -0.8899  0.9148 -0.0255
 9100TIP3    H248716   4.551   5.155  16.330 -2.7688  1.4259 -1.0804
 9101TIP3   OH248717   6.301   3.345  15.656  0.0978 -0.7198 -0.1024
 9101TIP3    H148718   6.269   3.287  15.725 -0.0870 -1.3518 -0.7194
 9101TIP3    H248719   6.234   3.341  15.588  0.0871  0.2057 -0.1610
 9102TIP3   OH248720   2.720   6.036   0.228  0.5756  0.5355 -0.1232
 9102TIP3    H148721   2.804   5.992   0.246  0.4145  0.5010  0.5755
 9102TIP3    H248722   2.744   6.123   0.197  0.8885  0.1440 -1.0273
 9103TIP3   OH248723   4.762   5.075   2.429  0.0590 -0.5994  0.3263
 9103TIP3    H148724   4.725   5.095   2.343  0.2152 -0.9116  0.1850
 9103TIP3    H248725   4.852   5.106   2.424  0.9727 -3.1522 -0.6230
 9104TIP3   OH248726   6.241   4.485   4.800  0.3784 -0.6831 -0.2616
 9104TIP3    H148727   6.317   4.448   4.755  1.1495  2.3513 -1.6918
 9104TIP3    H248728   6.278   4.547   4.863 -0.8729 -0.3072  0.1436
 9105TIP3   OH248729   3.765   4.450   2.851  0.4938 -0.3131 -0.2688
 9105TIP3    H148730   3.822   4.373   2.837 -0.3141 -0.7960 -0.9896
 9105TIP3    H248731   3.690   4.434   2.795 -1.3663 -0.6940  2.1522
 9106TIP3   OH248732   0.058   5.382  11.272 -0.0706  0.2576 -0.6105
 9106TIP3    H148733  -0.028   5.424  11.280 -0.2356 -0.1050 -0.4387
 9106TIP3    H248734   0.069   5.370  11.177 -0.6685 -0.6052 -0.5900
 9107TIP3   OH248735   4.932   6.723  14.503  0.2345  0.2511 -0.3508
 9107TIP3    H148736   4.881   6.787  14.453  0.5571  1.7665  1.1662
 9107TIP3    H248737   4.956   6.656  14.439 -1.6623  0.6870 -1.5996
 9108TIP3   OH248738   5.370   1.323   3.663  0.0641  0.6264  0.0931
 9108TIP3    H148739   5.341   1.355   3.748  0.2827  1.3068 -0.0809
 9108TIP3    H248740   5.333   1.386   3.600  0.5022  0.5403 -0.2552
 9109TIP3   OH248741   0.691   4.284   4.672 -0.1923 -0.3413  0.3508
 9109TIP3    H148742   0.671   4.365   4.626 -0.9499 -1.0988 -0.7218
 9109TIP3    H248743   0.753   4.238   4.614 -0.8891 -1.1570  0.2269
 9110TIP3   OH248744   0.372   3.178   2.700  0.2135 -0.1868  0.0245
 9110TIP3    H148745   0.339   3.133   2.778  1.4479 -0.1157  0.5987
 9110TIP3    H248746   0.356   3.271   2.717  0.9154 -0.1318  0.4132
 9111TIP3   OH248747   3.527   1.411   1.262 -0.0886  0.3584  0.8488
 9111TIP3    H148748   3.530   1.506   1.255 -1.1245  0.4870  1.9284
 9111TIP3    H248749   3.473   1.383   1.188 -0.8844  0.7219  1.2841
 9112TIP3   OH248750   6.028   2.085   3.363  0.2437  0.7095  0.0307
 9112TIP3    H148751   6.122   2.069   3.359  0.0157 -1.2403  1.4290
 9112TIP3    H248752   5.999   2.083   3.271  1.3548 -0.0876 -0.3134
 9113TIP3   OH248753   1.492   5.445  14.884 -0.4841  0.0242  0.1120
 9113TIP3    H148754   1.428   5.479  14.946  0.5397  0.3899  0.9761
 9113TIP3    H248755   1.558   5.513  14.877  1.5662 -1.6419  1.8115
 9114TIP3   OH248756   3.600   5.654  14.732  0.2335 -0.1412  0.8618
 9114TIP3    H148757   3.671   5.686  14.787  0.9869  0.2207 -0.2669
 9114TIP3    H248758   3.640   5.644  14.645 -1.2503  0.7339  0.0346
 9115TIP3   OH248759   3.211   5.647  14.896 -0.1675  0.0545  0.3482
 9115TIP3    H148760   3.268   5.587  14.943 -1.1179 -1.9236 -0.8983
 9115TIP3    H248761   3.175   5.705  14.963 -0.3641 -1.7196  1.8315
 9116TIP3   OH248762   2.529   5.304   5.528 -0.6578  0.4695 -0.3362
 9116TIP3    H148763   2.561   5.370   5.467  0.4520 -0.5727 -0.9133
 9116TIP3    H248764   2.438   5.289   5.501 -0.3960  0.5369 -1.2766
 9117TIP3   OH248765   6.493   4.962  15.602 -0.5727  0.7086 -0.4019
 9117TIP3    H148766   6.481   5.037  15.660 -1.2277 -0.3189  0.8576
 9117TIP3    H248767   6.421   4.969  15.539  1.1795  2.8262 -2.3169
 9118TIP3   OH248768   1.014   4.815   0.001 -0.4091 -0.2895  0.6160
 9118TIP3    H148769   1.102   4.845  -0.021  0.1984 -2.6428 -0.4400
 9118TIP3    H248770   0.957   4.859  -0.062  0.4071 -1.0249 -0.6788
 9119TIP3   OH248771   3.682   4.326   3.712 -0.5244  0.3408  0.7345
 9119TIP3    H148772   3.776   4.334   3.727 -0.3485  3.0901 -1.1451
 9119TIP3    H248773   3.643   4.336   3.799  0.8576 -1.9852  1.7230
 9120TIP3   OH248774   3.385   4.863  16.735 -0.2580  0.0426  0.1230
 9120TIP3    H148775   3.296   4.829  16.743 -1.5551  3.4538  2.0400
 9120TIP3    H248776   3.427   4.840  16.817  0.0499 -0.0585 -0.0610
 9121TIP3   OH248777   4.634   3.157  13.172 -0.1235 -0.1077 -0.3192
 9121TIP3    H148778   4.625   3.144  13.077  2.2908  0.4789 -0.7046
 9121TIP3    H248779   4.581   3.088  13.211 -0.2908 -1.0679 -2.1243
 9122TIP3   OH248780   3.056   3.088   5.159 -0.4963  0.2400 -0.2336
 9122TIP3    H148781   3.051   3.156   5.226 -1.3619  0.0274 -0.0548
 9122TIP3    H248782   3.001   3.017   5.194  1.1395 -0.9536  0.0393
 9123TIP3   OH248783   5.298   5.848  15.086  0.4737  0.5836 -0.1306
 9123TIP3    H148784   5.228   5.886  15.033  2.7430  2.9043 -1.7181
 9123TIP3    H248785   5.316   5.913  15.153  0.3367 -0.5484  1.0521
 9124TIP3   OH248786   0.920   0.345   3.071 -0.4691  0.0512 -0.0524
 9124TIP3    H148787   0.952   0.425   3.028 -0.7443 -0.2848 -0.8999
 9124TIP3    H248788   0.850   0.314   3.014 -1.7202  0.2835  1.3233
 9125TIP3   OH248789   2.119   4.517  15.245 -0.3716 -0.5345  0.7799
 9125TIP3    H148790   2.106   4.440  15.301  1.4516 -0.8031  0.9004
 9125TIP3    H248791   2.047   4.513  15.182 -1.7329 -0.9514  2.2768
 9126TIP3   OH248792   3.187   4.869   2.647  0.0735 -0.1880 -0.7773
 9126TIP3    H148793   3.154   4.782   2.628 -0.4385 -0.8176  2.4070
 9126TIP3    H248794   3.281   4.856   2.665 -0.1240 -0.2368  0.2973
 9127TIP3   OH248795   2.015   4.052   3.625 -0.1534 -0.2137  0.8300
 9127TIP3    H148796   2.022   4.098   3.709  0.7445  0.7436  0.2494
 9127TIP3    H248797   2.089   3.992   3.624 -1.1120 -1.4584  1.4225
 9128TIP3   OH248798   5.539   2.519   2.935  0.1843  0.5748 -0.2497
 9128TIP3    H148799   5.479   2.446   2.923  0.1285  0.6373 -0.3612
 9128TIP3    H248800   5.620   2.490   2.893  1.2413 -0.7230  2.4742
 9129TIP3   OH248801   2.447   6.610  15.290 -0.0538 -0.2175  0.5708
 9129TIP3    H148802   2.469   6.647  15.376  0.6287  1.3921 -0.2624
 9129TIP3    H248803   2.515   6.643  15.231 -0.4189 -1.4338 -0.5662
 9130TIP3   OH248804   4.575   1.221   3.332  0.2880 -0.1221  0.0525
 9130TIP3    H148805   4.524   1.294   3.365  1.6589  1.0431 -0.3099
 9130TIP3    H248806   4.614   1.253   3.250  1.9025 -0.7824  0.5114
 9131TIP3   OH248807   4.031   2.791  12.543 -0.4863 -0.1577 -0.4115
 9131TIP3    H148808   3.940   2.774  12.519  0.0561 -1.8233 -1.4943
 9131TIP3    H248809   4.048   2.730  12.616 -0.4084  0.6104  0.2239
 9132TIP3   OH248810   2.410   5.088   5.244  0.2671 -0.0052  0.0456
 9132TIP3    H148811   2.390   5.160   5.304 -0.3844  0.4136 -0.6519
 9132TIP3    H248812   2.406   5.010   5.298 -4.2224 -0.1256 -0.0415
 9133TIP3   OH248813   2.784   3.502   6.526 -0.0142  0.1518  0.1636
 9133TIP3    H148814   2.738   3.577   6.564  2.6911  1.7169  0.5411
 9133TIP3    H248815   2.866   3.497   6.575  1.4020 -0.8760 -2.1944
 9134TIP3   OH248816   0.188   3.192  12.861  0.9467 -0.0767 -0.0448
 9134TIP3    H148817   0.209   3.286  12.864  1.6429 -0.1603 -1.5190
 9134TIP3    H248818   0.210   3.165  12.772 -1.8407 -1.0634 -0.5251
 9135TIP3   OH248819   5.010   1.212   2.467 -0.0070  0.0503 -0.4818
 9135TIP3    H148820   4.983   1.282   2.527 -1.4647 -1.9406  1.3553
 9135TIP3    H248821   5.103   1.199   2.485 -0.2303  0.0566  0.7542
 9136TIP3   OH248822   5.185   5.001  13.629 -0.5602 -0.0437 -0.1825
 9136TIP3    H148823   5.211   5.084  13.668  0.6990 -0.1230 -0.8004
 9136TIP3    H248824   5.141   5.026  13.548  0.1565  0.0221 -0.5587
 9137TIP3   OH248825   5.969   4.729  13.434 -0.0732 -0.5382 -0.4639
 9137TIP3    H148826   5.960   4.645  13.479 -1.4645 -1.2960 -2.0612
 9137TIP3    H248827   6.056   4.726  13.394  0.3440 -0.7018  0.4248
 9138TIP3   OH248828   0.002   3.247  13.123  0.2051 -0.2662  0.0794
 9138TIP3    H148829  -0.077   3.253  13.069  0.5757 -2.7388 -0.8879
 9138TIP3    H248830   0.065   3.305  13.080 -0.5597  0.4550 -0.0928
 9139TIP3   OH248831   3.813   2.242   1.332  0.5581  0.2491  0.1674
 9139TIP3    H148832   3.754   2.212   1.401  0.1691  1.3787  0.3479
 9139TIP3    H248833   3.886   2.180   1.334 -0.1663 -0.6220  0.5674
 9140TIP3   OH248834   0.327   2.976  14.449  0.6662  0.2465 -0.4284
 9140TIP3    H148835   0.263   2.935  14.390  0.9001  1.6177 -1.6788
 9140TIP3    H248836   0.412   2.955  14.410  0.8580  0.5648 -0.1772
 9141TIP3   OH248837   5.685   5.030  11.616  0.6222 -0.6453  0.0535
 9141TIP3    H148838   5.605   4.997  11.575  1.0250 -1.2653 -0.2459
 9141TIP3    H248839   5.678   5.002  11.708  0.2392 -0.2164  0.1582
 9142TIP3   OH248840   1.628   4.591   5.737  1.0250 -0.8500 -0.0759
 9142TIP3    H148841   1.691   4.631   5.796  0.5768  0.8415 -0.6759
 9142TIP3    H248842   1.615   4.656   5.668 -2.7655 -0.2529  0.9707
 9143TIP3   OH248843   5.987   4.974  14.593  0.4505  0.2587  0.0911
 9143TIP3    H148844   5.980   5.062  14.631 -2.9989 -0.3278  1.1349
 9143TIP3    H248845   5.955   4.916  14.662 -1.7861 -1.3209 -2.1257
 9144TIP3   OH248846   4.070   5.740   4.700 -0.1611  0.3193 -0.0030
 9144TIP3    H148847   4.127   5.762   4.774 -0.8811  2.5177 -0.0440
 9144TIP3    H248848   4.131   5.719   4.629  0.5384 -1.2782  0.9943
 9145TIP3   OH248849   6.644   1.447   0.643  0.6159  0.3556  0.3571
 9145TIP3    H148850   6.599   1.520   0.684  1.0173 -0.6963  2.8470
 9145TIP3    H248851   6.602   1.437   0.558 -1.6787  1.4160  1.2939
 9146TIP3   OH248852   4.702   1.214   1.907 -0.7245  0.0734 -0.5209
 9146TIP3    H148853   4.632   1.151   1.924 -1.8811  1.3390 -0.4374
 9146TIP3    H248854   4.783   1.164   1.921 -1.5876 -0.9945  0.9929
 9147TIP3   OH248855   1.207   6.115   2.209  0.2119 -0.1693  0.4123
 9147TIP3    H148856   1.185   6.049   2.275  2.0698 -2.4610 -1.1147
 9147TIP3    H248857   1.128   6.122   2.155  0.1689 -1.6266  0.2425
 9148TIP3   OH248858   4.198   5.486  13.592 -0.1925  0.7530  0.2958
 9148TIP3    H148859   4.155   5.520  13.514 -0.1919 -0.4966 -0.2752
 9148TIP3    H248860   4.166   5.396  13.600 -0.5857  1.0082  2.0389
 9149TIP3   OH248861   3.504   6.662   1.182 -0.0196 -0.0326  0.3387
 9149TIP3    H148862   3.546   6.661   1.268  0.8910 -0.2529 -0.0855
 9149TIP3    H248863   3.486   6.570   1.163  1.1372 -0.1535 -0.3129
 9150TIP3   OH248864   2.788   3.789   5.947 -0.2288  0.0586  0.3590
 9150TIP3    H148865   2.788   3.850   5.874 -0.6157  0.2730  0.5325
 9150TIP3    H248866   2.870   3.741   5.939 -0.3235 -0.0065 -0.2847
 9151TIP3   OH248867   1.270   4.411   0.841  0.0926 -0.0686 -0.6086
 9151TIP3    H148868   1.252   4.348   0.771  0.1699  0.7690 -1.4027
 9151TIP3    H248869   1.350   4.455   0.812  1.3424 -1.1491  1.0380
 9152TIP3   OH248870   6.330   4.600   0.639 -0.0642 -0.2004  0.0862
 9152TIP3    H148871   6.385   4.532   0.678 -0.5544  0.2793  1.7293
 9152TIP3    H248872   6.307   4.657   0.713 -0.3652  1.2676 -1.0790
 9153TIP3   OH248873   2.175   1.847  11.673  0.1713 -0.4958 -0.2648
 9153TIP3    H148874   2.175   1.837  11.768 -0.3464 -0.3001 -0.2454
 9153TIP3    H248875   2.214   1.765  11.641 -1.1383 -1.2752  0.0463
 9154TIP3   OH248876   5.502   0.646  12.989  0.0376  0.2974  0.3400
 9154TIP3    H148877   5.532   0.657  12.899 -1.0880  2.7069  0.1996
 9154TIP3    H248878   5.508   0.551  13.005  0.1218 -0.1947 -2.2800
 9155TIP3   OH248879   6.381   3.270   5.240 -0.1737 -0.1488  0.1250
 9155TIP3    H148880   6.315   3.339   5.228 -1.1123 -1.1821 -0.9019
 9155TIP3    H248881   6.444   3.308   5.301 -0.1287  1.9935 -1.1273
 9156TIP3   OH248882   5.945   3.747  16.881  0.3832 -0.1645  0.1868
 9156TIP3    H148883   5.906   3.817  16.934  1.0742 -0.3063  0.8825
 9156TIP3    H248884   5.869   3.698  16.848 -0.2618  2.1800 -2.1280
 9157TIP3   OH248885   5.844   6.251   5.152  0.1606  0.1556  0.5142
 9157TIP3    H148886   5.896   6.331   5.150 -0.0278  0.2643 -0.2351
 9157TIP3    H248887   5.788   6.256   5.074  1.4826 -1.5710 -0.6261
 9158TIP3   OH248888   3.619   3.902  11.009  0.6031 -0.2322  0.7877
 9158TIP3    H148889   3.714   3.890  11.013  0.5371 -1.0251  0.1617
 9158TIP3    H248890   3.602   3.927  10.918  0.1464 -0.6541  0.7545
 9159TIP3   OH248891   2.348   0.258   2.064  0.6027  0.1376 -0.4137
 9159TIP3    H148892   2.266   0.232   2.023 -0.7746  2.4537  0.7005
 9159TIP3    H248893   2.324   0.287   2.152  2.4441  1.7704 -0.3767
 9160TIP3   OH248894   0.179   3.997  12.242  0.1366 -0.4939  0.9778
 9160TIP3    H148895   0.133   3.931  12.192  1.1765  0.0288 -0.7838
 9160TIP3    H248896   0.151   3.984  12.333 -1.6298 -1.6466  0.3066
 9161TIP3   OH248897   1.079   2.480   5.595 -0.3610  0.1122 -0.2723
 9161TIP3    H148898   1.123   2.427   5.528 -0.6789  0.5783 -0.8590
 9161TIP3    H248899   1.111   2.445   5.678  1.2599  0.5362 -0.6810
 9162TIP3   OH248900   2.148   6.040   2.131 -0.1319 -0.2385  0.2652
 9162TIP3    H148901   2.122   6.075   2.216  0.4420  0.1340  0.2986
 9162TIP3    H248902   2.072   6.053   2.075 -0.1145  0.6190  0.4150
 9163TIP3   OH248903   6.339   5.409  13.529 -0.4001  1.1551 -0.4115
 9163TIP3    H148904   6.284   5.486  13.546 -0.7597  0.8366 -0.1193
 9163TIP3    H248905   6.395   5.436  13.456  0.8823  2.4000  0.9612
 9164TIP3   OH248906   2.366   0.545  17.407 -0.3812  0.2235 -0.1522
 9164TIP3    H148907   2.308   0.482  17.449 -1.4775 -0.7370 -2.8673
 9164TIP3    H248908   2.450   0.501  17.401 -0.5636 -0.1331 -0.1033
 9165TIP3   OH248909   2.766   4.262   2.972  0.1378 -0.3391 -0.0515
 9165TIP3    H148910   2.716   4.181   2.981  1.5860 -1.2463  0.2421
 9165TIP3    H248911   2.832   4.257   3.041  1.7990 -0.1117 -1.5439
 9166TIP3   OH248912   6.492   3.743   1.032  0.4030 -0.0617  0.1229
 9166TIP3    H148913   6.503   3.755   0.937  3.0071 -0.7508  0.2654
 9166TIP3    H248914   6.569   3.693   1.059  1.0531  2.2146  2.9968
 9167TIP3   OH248915   1.956   0.739  13.607  0.2950 -0.8211  0.1951
 9167TIP3    H148916   1.959   0.650  13.571 -1.2879 -1.0772  0.6372
 9167TIP3    H248917   1.900   0.732  13.684 -0.9752  0.7996 -0.5177
 9168TIP3   OH248918   3.687   2.349   0.393 -0.0492 -0.0919 -0.3432
 9168TIP3    H148919   3.675   2.330   0.300  1.0567  0.0950 -0.5439
 9168TIP3    H248920   3.714   2.265   0.431  2.8255  0.4968 -0.8522
 9169TIP3   OH248921   4.209   5.568   3.401 -0.1300  0.5020 -0.0858
 9169TIP3    H148922   4.222   5.624   3.477 -0.7854  0.4915  0.0465
 9169TIP3    H248923   4.130   5.602   3.360  0.6055  0.9422 -1.1674
 9170TIP3   OH248924   3.646   5.585   0.742  0.2171 -0.5855 -0.3072
 9170TIP3    H148925   3.622   5.618   0.656  1.3875  3.3367  0.6718
 9170TIP3    H248926   3.567   5.595   0.795  0.3226 -0.0531 -0.2378
 9171TIP3   OH248927   2.766   5.568  11.370  0.0145  0.0735  0.4727
 9171TIP3    H148928   2.841   5.625  11.388  1.9179 -0.9681 -3.0764
 9171TIP3    H248929   2.712   5.618  11.310 -0.6329 -0.2752  0.7543
 9172TIP3   OH248930   5.263   2.389   4.332  0.2985 -0.4889  0.2432
 9172TIP3    H148931   5.349   2.430   4.337  0.1343 -0.1380  0.2480
 9172TIP3    H248932   5.211   2.435   4.398  0.1833 -0.8824  0.4303
 9173TIP3   OH248933   4.132   1.572   5.431 -0.1210  0.2695 -0.3297
 9173TIP3    H148934   4.202   1.541   5.489  0.0007  1.1778  0.0398
 9173TIP3    H248935   4.092   1.493   5.396  0.5242 -0.2776  0.1465
 9174TIP3   OH248936   5.527   4.485   2.647 -0.1529 -0.1834 -0.3081
 9174TIP3    H148937   5.493   4.478   2.558 -0.8326  0.2026 -0.0826
 9174TIP3    H248938   5.527   4.579   2.666  1.3930 -0.1268 -0.4288
 9175TIP3   OH248939   2.826   5.845   6.601 -0.3013  0.1145  0.1260
 9175TIP3    H148940   2.907   5.849   6.652 -0.4618  3.0414  0.3351
 9175TIP3    H248941   2.831   5.919   6.542 -1.9508 -0.8408 -1.3108
 9176TIP3   OH248942   5.642   0.180   1.596  0.5152 -0.2660  0.0132
 9176TIP3    H148943   5.628   0.266   1.555  2.2943  0.4828  0.8914
 9176TIP3    H248944   5.618   0.193   1.688  0.3761 -0.8325  0.0602
 9177TIP3   OH248945   0.706   2.836   3.419 -0.3027 -0.3004  0.4827
 9177TIP3    H148946   0.682   2.895   3.490  2.4382  1.0684  0.4058
 9177TIP3    H248947   0.674   2.879   3.340  1.5586  1.1328  0.4411
 9178TIP3   OH248948   4.950   5.880   1.140  1.2117 -0.6280  0.0242
 9178TIP3    H148949   4.918   5.826   1.068 -1.3106 -0.3636  0.8281
 9178TIP3    H248950   5.025   5.927   1.104  0.8303 -1.4684 -2.0039
 9179TIP3   OH248951   6.527   1.061   1.190  0.0221  0.0480  0.1049
 9179TIP3    H148952   6.593   0.992   1.180  0.5555  0.7518 -1.4871
 9179TIP3    H248953   6.545   1.099   1.276  1.3923 -0.0945 -0.0954
 9180TIP3   OH248954   4.157   5.037  12.897  0.1587 -0.6355  0.1817
 9180TIP3    H148955   4.206   4.954  12.902 -0.0758 -0.8010 -0.2402
 9180TIP3    H248956   4.151   5.066  12.988  0.9906 -0.6432  0.2489
 9181TIP3   OH248957   2.253   2.420   3.661  0.0095  0.4492  1.1809
 9181TIP3    H148958   2.251   2.456   3.750 -0.9814 -2.2717  2.3687
 9181TIP3    H248959   2.290   2.333   3.671 -1.0678 -0.3177 -0.9002
 9182TIP3   OH248960   6.690   6.558   5.352 -0.0902  0.4294  0.0039
 9182TIP3    H148961   6.663   6.615   5.424 -0.3441  1.1387 -0.6435
 9182TIP3    H248962   6.761   6.606   5.309  0.8954 -0.5378  0.5120
 9183TIP3   OH248963   6.011   3.270  10.907 -0.3364 -0.2811  0.6071
 9183TIP3    H148964   5.974   3.237  10.825 -1.3871 -0.4787  1.1327
 9183TIP3    H248965   6.096   3.306  10.883  0.3515 -2.3007 -0.2049
 9184TIP3   OH248966   1.835   5.684   4.703 -0.2154 -0.8417  0.4917
 9184TIP3    H148967   1.886   5.625   4.758 -0.5482 -0.9762  0.6596
 9184TIP3    H248968   1.884   5.689   4.620  0.3684 -0.5164  0.8481
 9185TIP3   OH248969   0.309   1.042  14.755 -0.1154 -0.3215 -0.2819
 9185TIP3    H148970   0.219   1.033  14.725  0.2867  0.7497 -1.9421
 9185TIP3    H248971   0.302   1.086  14.839 -1.1259 -0.0551 -0.4906
 9186TIP3   OH248972   5.897   2.675  10.177  0.1033 -0.3103 -0.3817
 9186TIP3    H148973   5.829   2.696  10.113  0.3006 -1.1144 -0.8739
 9186TIP3    H248974   5.954   2.613  10.132  0.2642 -0.8770  0.5607
 9187TIP3   OH248975   0.124   4.069   1.586  0.4349  0.1460  0.6525
 9187TIP3    H148976   0.030   4.069   1.568  0.3962  1.1672  0.8132
 9187TIP3    H248977   0.144   4.159   1.609  1.5162  0.0018  0.3275
 9188TIP3   OH248978   0.115   1.952  11.329 -0.0297  0.3959 -0.0622
 9188TIP3    H148979   0.078   2.031  11.290 -0.8098  0.2510  0.3655
 9188TIP3    H248980   0.186   1.927  11.270 -2.1552 -0.7255 -2.3218
 9189TIP3   OH248981   6.483   2.151  13.193 -0.3328 -0.5879 -0.7571
 9189TIP3    H148982   6.551   2.103  13.241 -1.7841 -0.7052  1.3190
 9189TIP3    H248983   6.443   2.086  13.135 -0.0454 -1.0377 -0.4571
 9190TIP3   OH248984   5.827   4.083  16.546  0.2238  0.0990 -0.1805
 9190TIP3    H148985   5.823   3.997  16.588 -1.1271  0.5981  0.7967
 9190TIP3    H248986   5.740   4.095  16.507  1.3715 -0.2515 -3.0421
 9191TIP3   OH248987   6.342   1.445  11.150 -0.6268 -0.2234 -0.1743
 9191TIP3    H148988   6.316   1.467  11.061 -2.0776 -1.2941 -0.0509
 9191TIP3    H248989   6.327   1.351  11.157  0.3120 -0.3081  0.9278
 9192TIP3   OH248990   5.313   1.520  11.581 -0.7748  0.1913 -0.0792
 9192TIP3    H148991   5.350   1.576  11.649 -0.8344  0.2043 -0.0583
 9192TIP3    H248992   5.387   1.469  11.548 -0.3496  1.6141 -1.4051
 9193TIP3   OH248993   5.838   5.754   5.141  0.5789  0.0691  0.4353
 9193TIP3    H148994   5.878   5.675   5.103 -0.3830 -0.0140 -0.4335
 9193TIP3    H248995   5.854   5.745   5.235  0.8036 -0.9867  0.3180
 9194TIP3   OH248996   2.500   3.917   4.890 -0.0367  0.0828 -0.4604
 9194TIP3    H148997   2.426   3.896   4.833  0.3989 -0.7365 -0.7320
 9194TIP3    H248998   2.474   3.887   4.976  0.7953 -2.2205 -0.9337
 9195TIP3   OH248999   4.399   1.936   1.552 -0.3404  0.0473 -0.2704
 9195TIP3    H149000   4.315   1.975   1.529 -1.4979 -1.9460  0.3659
 9195TIP3    H249001   4.462   1.979   1.493 -1.5390  2.5001  0.1153
 9196TIP3   OH249002   0.470   5.439   3.145 -0.1740  0.0386 -0.4179
 9196TIP3    H149003   0.386   5.404   3.115  0.4346 -2.3737  0.4574
 9196TIP3    H249004   0.524   5.442   3.066  0.1984 -2.5382 -0.3536
 9197TIP3   OH249005   5.527   1.156  15.917  0.0682 -0.5283 -0.8533
 9197TIP3    H149006   5.443   1.167  15.962 -1.0255 -1.0965 -2.6546
 9197TIP3    H249007   5.590   1.202  15.973 -1.6722  1.2081 -0.1748
 9198TIP3   OH249008   2.777   0.625  14.423 -0.4537 -0.0420 -0.1428
 9198TIP3    H149009   2.859   0.651  14.381  0.0211  2.5986  2.1535
 9198TIP3    H249010   2.731   0.575  14.356  3.3157 -2.3986 -1.2929
 9199TIP3   OH249011   5.101   4.937  12.338 -0.3839 -0.4101  0.2468
 9199TIP3    H149012   5.112   5.032  12.325  0.7805 -0.7060 -1.2325
 9199TIP3    H249013   5.102   4.925  12.433 -0.9474  1.0913  0.4701
 9200TIP3   OH249014   2.320   6.603   1.692 -0.1983 -0.1492 -0.2129
 9200TIP3    H149015   2.304   6.676   1.752  1.7497  1.0305 -1.0091
 9200TIP3    H249016   2.263   6.622   1.617 -2.1646 -1.2899  0.9163
 9201TIP3   OH249017   0.257   0.384   0.612 -0.2474 -0.4952 -0.0487
 9201TIP3    H149018   0.254   0.475   0.642 -1.5984 -1.0371  1.6127
 9201TIP3    H249019   0.347   0.356   0.629 -0.1128  0.2164  0.4353
 9202TIP3   OH249020   2.141   5.423  16.553  0.1353  0.0171 -0.1334
 9202TIP3    H149021   2.214   5.467  16.596  0.2534 -0.6674  0.3707
 9202TIP3    H249022   2.181   5.369  16.485  0.0091  0.4309 -0.5524
 9203TIP3   OH249023   2.008   2.530  16.577  0.5262  0.2562  0.1036
 9203TIP3    H149024   1.994   2.490  16.663  0.9176  0.6607  0.3576
 9203TIP3    H249025   1.927   2.511  16.529  0.5211 -0.4412  0.3729
 9204TIP3   OH249026   3.158   0.029   0.094 -0.3844  0.5014  0.1637
 9204TIP3    H149027   3.098   0.104   0.101  0.7654  1.4585  0.2371
 9204TIP3    H249028   3.216   0.052   0.021 -0.5675 -0.7443 -0.3940
 9205TIP3   OH249029   6.184   2.466  12.060  1.0851 -0.6575 -0.2113
 9205TIP3    H149030   6.247   2.492  12.128  0.2724 -0.4857  0.4937
 9205TIP3    H249031   6.221   2.500  11.979  1.0707  0.9334  0.4091
 9206TIP3   OH249032   3.665   6.609  14.943 -0.2606 -0.0962  0.7682
 9206TIP3    H149033   3.667   6.705  14.932 -0.5587 -0.0988  0.7034
 9206TIP3    H249034   3.709   6.576  14.864 -2.4825 -0.1159 -0.5313
 9207TIP3   OH249035   2.360   4.412  11.797 -0.0198 -0.0572  0.0600
 9207TIP3    H149036   2.324   4.474  11.734  0.0131 -0.5743 -0.4820
 9207TIP3    H249037   2.442   4.451  11.826 -0.7777  0.9194  0.9639
 9208TIP3   OH249038   2.909   5.892   4.361  0.0742 -0.0158 -0.1306
 9208TIP3    H149039   2.851   5.961   4.330 -0.3354  0.0335  0.7195
 9208TIP3    H249040   2.926   5.839   4.283 -1.6138 -0.3928 -0.2867
 9209TIP3   OH249041   4.871   1.703   2.856 -0.1292 -0.1956 -0.0936
 9209TIP3    H149042   4.817   1.778   2.831 -3.2178 -1.6549  1.6393
 9209TIP3    H249043   4.879   1.652   2.776  0.6453  1.1359 -0.9042
 9210TIP3   OH249044   4.547   4.027   1.829 -0.2111  0.7774  0.4615
 9210TIP3    H149045   4.516   4.017   1.739  0.8786  2.3237 -0.1247
 9210TIP3    H249046   4.616   3.961   1.838 -0.8545  0.0973  0.4231
 9211TIP3   OH249047   2.953   1.980   4.009 -0.6055  0.1602  0.2131
 9211TIP3    H149048   2.915   1.892   4.010  0.2726 -0.2300  0.6699
 9211TIP3    H249049   2.953   2.007   4.101 -1.6401  0.9998 -0.0102
 9212TIP3   OH249050   4.260   5.557  14.951 -0.6824  0.1100  0.0309
 9212TIP3    H149051   4.198   5.518  14.890  0.2114 -0.6933 -0.3869
 9212TIP3    H249052   4.327   5.490  14.964 -1.0434  0.0861  2.2204
 9213TIP3   OH249053   2.295   0.829  14.862 -0.0699  0.0350 -0.4553
 9213TIP3    H149054   2.348   0.869  14.931  0.2310  1.7253 -1.6141
 9213TIP3    H249055   2.209   0.869  14.871  0.0338  0.4367 -1.1798
 9214TIP3   OH249056   5.522   0.877   3.315  0.0594  0.0353 -0.3221
 9214TIP3    H149057   5.456   0.885   3.384  0.2718 -0.3818 -0.0677
 9214TIP3    H249058   5.537   0.783   3.306  1.3071  0.1556  0.2861
 9215TIP3   OH249059   4.063   5.589   1.852 -0.3111  0.3330 -0.3980
 9215TIP3    H149060   4.003   5.602   1.925 -0.6367  0.2757 -0.6560
 9215TIP3    H249061   4.048   5.665   1.795  0.4967  0.7892 -0.0241
 9216TIP3   OH249062   3.678   4.286  11.493 -0.4605 -0.3880 -0.1172
 9216TIP3    H149063   3.635   4.220  11.438 -0.7692 -0.9353  0.7521
 9216TIP3    H249064   3.771   4.277  11.473 -0.7339  1.1036 -2.3357
 9217TIP3   OH249065   3.795   4.338  15.344  0.5566  0.1151 -0.1127
 9217TIP3    H149066   3.749   4.254  15.343  0.5112  0.1379 -1.6380
 9217TIP3    H249067   3.847   4.338  15.264  0.0750  1.7981 -0.4704
 9218TIP3   OH249068   0.474   5.911  12.437  0.4830  0.0460 -0.1636
 9218TIP3    H149069   0.418   5.946  12.368 -0.2673  0.4915  0.6515
 9218TIP3    H249070   0.415   5.862  12.493  1.0886 -0.3289  0.1490
 9219TIP3   OH249071   5.168   4.217  16.508 -0.1221 -0.0118 -0.5067
 9219TIP3    H149072   5.194   4.170  16.587 -0.2689 -0.2820 -0.6158
 9219TIP3    H249073   5.141   4.148  16.447  0.6094  0.1441 -1.0263
 9220TIP3   OH249074   5.392   4.161  14.304  0.1948  0.6304  0.0144
 9220TIP3    H149075   5.379   4.227  14.372 -2.3508  0.8681 -0.5722
 9220TIP3    H249076   5.420   4.211  14.227 -0.1134  0.8207  0.0223
 9221TIP3   OH249077   3.014   4.277   1.986  0.3091 -0.2404 -0.1875
 9221TIP3    H149078   3.004   4.368   1.958 -0.1586 -0.6159 -1.2668
 9221TIP3    H249079   3.068   4.237   1.918  2.7077 -0.1976  1.5250
 9222TIP3   OH249080   5.325   3.027   1.068 -0.6513  0.2111  0.0233
 9222TIP3    H149081   5.292   2.950   1.021  2.2661 -1.3494  0.3028
 9222TIP3    H249082   5.268   3.034   1.145 -0.9085 -1.7573  0.0638
 9223TIP3   OH249083   1.042   5.357  12.822 -0.0466  1.2793  0.1005
 9223TIP3    H149084   1.040   5.262  12.809  1.0486  1.2438  0.0459
 9223TIP3    H249085   0.951   5.385  12.811 -0.4106  0.2220  0.2663
 9224TIP3   OH249086   5.559   2.661  11.537 -0.0038  0.1232  0.3142
 9224TIP3    H149087   5.611   2.589  11.571  1.3675  0.9355 -0.0054
 9224TIP3    H249088   5.506   2.622  11.467  1.0645 -0.4911 -0.1687
 9225TIP3   OH249089   1.444   1.093  16.732  0.4013 -0.4021  0.0676
 9225TIP3    H149090   1.441   1.137  16.648  0.9066 -0.0461  0.2293
 9225TIP3    H249091   1.373   1.131  16.783 -0.2067 -0.9556 -0.3550
 9226TIP3   OH249092   1.536   3.691   3.756  0.4335 -0.0743 -0.5256
 9226TIP3    H149093   1.607   3.668   3.696  1.5160  0.4136  0.5274
 9226TIP3    H249094   1.579   3.739   3.827 -1.1209  1.3275 -0.4648
 9227TIP3   OH249095   1.297   2.268   1.134  0.1037 -0.0289 -0.6515
 9227TIP3    H149096   1.263   2.334   1.194 -0.2805  0.1958 -1.1140
 9227TIP3    H249097   1.229   2.258   1.068 -1.3371 -3.2024  1.0630
 9228TIP3   OH249098   4.484   5.526   0.241  0.2417 -0.0826  0.0211
 9228TIP3    H149099   4.520   5.597   0.293  2.0949 -1.1745  0.3145
 9228TIP3    H249100   4.390   5.528   0.259  0.5944  0.6864  2.0215
 9229TIP3   OH249101   1.758   4.121  12.411 -0.1131  1.3039  0.1817
 9229TIP3    H149102   1.702   4.056  12.453  1.8300 -0.9605 -0.4784
 9229TIP3    H249103   1.720   4.133  12.324 -0.7222  1.3818  0.4538
 9230TIP3   OH249104   3.833   5.677  17.106 -0.2951 -0.0639 -0.2904
 9230TIP3    H149105   3.773   5.663  17.179 -0.4919  1.7979 -0.0479
 9230TIP3    H249106   3.819   5.601  17.049 -1.2358 -0.7858  0.8466
 9231TIP3   OH249107   0.450   3.475   4.134 -0.2302  0.1004 -0.5616
 9231TIP3    H149108   0.425   3.524   4.056 -0.6280 -0.5900 -0.8796
 9231TIP3    H249109   0.486   3.393   4.101 -1.4618 -0.6913 -0.0237
 9232TIP3   OH249110   2.267   1.809   4.710 -0.1960  0.0980  0.1334
 9232TIP3    H149111   2.175   1.824   4.688 -0.4043  0.0502  0.9496
 9232TIP3    H249112   2.276   1.714   4.716 -0.1506  0.1139  0.3112
 9233TIP3   OH249113   2.078   0.459   3.064 -0.0265  0.1067 -0.0202
 9233TIP3    H149114   2.103   0.418   3.147 -0.1513  0.0810  0.0053
 9233TIP3    H249115   2.050   0.386   3.008  0.3048  0.0982 -0.1729
 9234TIP3   OH249116   5.451   1.842  14.314 -0.8695 -0.1266 -0.1100
 9234TIP3    H149117   5.417   1.779  14.378 -2.5310  1.0446  0.2182
 9234TIP3    H249118   5.438   1.927  14.354 -1.1037  0.5830 -1.6166
 9235TIP3   OH249119   4.890   5.924  11.283  0.4482  0.3476 -0.0026
 9235TIP3    H149120   4.944   5.989  11.238 -0.9948  1.2331 -0.5287
 9235TIP3    H249121   4.800   5.957  11.275 -0.2258 -1.2077  0.5902
 9236TIP3   OH249122   4.037   2.653  14.468  0.0336 -0.3485 -0.0595
 9236TIP3    H149123   3.995   2.720  14.522 -0.3635 -0.5743 -0.0908
 9236TIP3    H249124   4.068   2.588  14.531 -0.7506 -0.7930 -0.1276
 9237TIP3   OH249125   2.452   5.097  12.646 -0.1318 -0.1076 -0.2624
 9237TIP3    H149126   2.479   5.019  12.694 -0.4655  0.6599  1.2353
 9237TIP3    H249127   2.534   5.139  12.621  0.0963  0.3301  1.1098
 9238TIP3   OH249128   6.255   5.455   0.690 -0.8281  0.8508  0.1584
 9238TIP3    H149129   6.185   5.443   0.626 -0.0548  0.9898 -0.7411
 9238TIP3    H249130   6.319   5.387   0.670  0.3386  2.0919 -0.5127
 9239TIP3   OH249131   1.030   1.507   0.625  0.3542 -0.6008  0.2041
 9239TIP3    H149132   1.028   1.417   0.594 -0.0899 -0.1217 -1.2972
 9239TIP3    H249133   1.122   1.526   0.641  0.4795 -1.2267  0.2283
 9240TIP3   OH249134   6.273   6.312   0.559  0.1145  0.4122 -0.4989
 9240TIP3    H149135   6.301   6.255   0.631 -3.1428 -0.5702  0.1783
 9240TIP3    H249136   6.288   6.260   0.480 -0.6250 -0.4676 -0.0805
 9241TIP3   OH249137   5.926   5.500  16.497  0.0043 -0.7475  0.4610
 9241TIP3    H149138   5.879   5.424  16.532 -2.3326 -0.0954 -1.0609
 9241TIP3    H249139   5.857   5.559  16.466  1.8043  1.1409 -0.1926
 9242TIP3   OH249140   3.799   2.884   1.373 -0.2469 -0.0491 -0.0033
 9242TIP3    H149141   3.736   2.830   1.422 -0.4412  1.3517  1.3814
 9242TIP3    H249142   3.745   2.934   1.312 -0.4893  0.8833  0.9324
 9243TIP3   OH249143   4.094   1.583  12.298 -0.2857 -0.0835 -0.4741
 9243TIP3    H149144   4.046   1.501  12.283 -0.4911  0.3279 -2.2885
 9243TIP3    H249145   4.034   1.638  12.348 -1.0831 -0.1823 -1.3069
 9244TIP3   OH249146   6.195   1.131  15.190 -0.2611 -0.7428  0.1567
 9244TIP3    H149147   6.218   1.206  15.244 -0.5192 -0.5697  0.0283
 9244TIP3    H249148   6.206   1.162  15.100 -0.1883 -0.9167  0.1053
 9245TIP3   OH249149   0.382   4.608   1.053 -0.5839  0.2979 -0.7661
 9245TIP3    H149150   0.471   4.593   1.085 -1.7945 -0.6819  2.6361
 9245TIP3    H249151   0.354   4.522   1.019 -1.2287 -0.3577  1.2487
 9246TIP3   OH249152   3.160   4.100   6.944 -0.7198 -0.1836 -0.5025
 9246TIP3    H149153   3.084   4.048   6.917 -1.3279  1.0529 -1.2742
 9246TIP3    H249154   3.148   4.184   6.901 -0.7564  1.2905  2.1401
 9247TIP3   OH249155   3.673   5.691   5.387 -0.6699  0.0476 -0.0075
 9247TIP3    H149156   3.686   5.720   5.477  0.3613 -0.7334  0.1134
 9247TIP3    H249157   3.760   5.700   5.346 -0.5292 -1.8999 -0.2206
 9248TIP3   OH249158   5.831   1.891  16.443  0.4308 -0.1707 -0.0259
 9248TIP3    H149159   5.900   1.945  16.481  1.4335 -0.8502 -0.8399
 9248TIP3    H249160   5.819   1.820  16.507 -0.2772  0.5060  0.6211
 9249TIP3   OH249161   6.323   2.508   0.996  0.1991 -0.8415  0.5635
 9249TIP3    H149162   6.259   2.530   1.064  2.0112  1.7485  1.5870
 9249TIP3    H249163   6.324   2.412   0.994 -2.4439 -0.9741  1.6705
 9250TIP3   OH249164   2.125   3.302   2.247 -0.2418 -0.0579  0.5401
 9250TIP3    H149165   2.167   3.387   2.232 -0.1381 -0.5007 -1.9954
 9250TIP3    H249166   2.058   3.320   2.313  1.1577  1.5138  1.6332
 9251TIP3   OH249167   0.524   0.544   3.089  0.2185  0.0546 -0.8891
 9251TIP3    H149168   0.498   0.471   3.033 -1.3832  0.9042 -1.3007
 9251TIP3    H249169   0.471   0.534   3.168  1.2701 -0.2017 -0.1981
 9252TIP3   OH249170   3.163   1.608  15.380 -0.1387 -0.7066  0.8187
 9252TIP3    H149171   3.252   1.634  15.404  0.8323 -2.8224 -0.2700
 9252TIP3    H249172   3.126   1.573  15.461  0.5527 -1.1718  0.9393
 9253TIP3   OH249173   1.187   3.146   5.794  0.6770  0.5403  0.6315
 9253TIP3    H149174   1.209   3.155   5.701 -2.9909 -0.8148 -0.5707
 9253TIP3    H249175   1.174   3.052   5.806 -1.1989  0.9086  1.8628
 9254TIP3   OH249176   0.060   4.336   2.497 -0.2135  0.0264 -0.5757
 9254TIP3    H149177   0.128   4.338   2.564  0.3508  2.0476 -1.1278
 9254TIP3    H249178   0.072   4.252   2.453 -0.3721 -1.1768  1.5753
 9255TIP3   OH249179   3.313   1.237   1.184 -0.3696 -0.3972 -0.0061
 9255TIP3    H149180   3.338   1.146   1.199  1.7757 -0.1443 -1.5354
 9255TIP3    H249181   3.320   1.248   1.089 -0.5602  1.3532  0.1507
 9256TIP3   OH249182   4.912   1.265  13.095  0.1094 -0.0933 -0.1928
 9256TIP3    H149183   4.906   1.359  13.081 -0.6482  0.0735  1.1425
 9256TIP3    H249184   4.968   1.255  13.172 -1.4194 -0.6247  0.8756
 9257TIP3   OH249185   3.338   4.432   2.916  0.3799 -0.3976 -0.2258
 9257TIP3    H149186   3.377   4.482   2.988 -1.7804 -0.1131  0.8169
 9257TIP3    H249187   3.403   4.436   2.846  1.6050  1.1967  0.9388
 9258TIP3   OH249188   5.896   2.582   2.594  0.0897  0.3074 -0.8379
 9258TIP3    H149189   5.975   2.631   2.615 -0.1562  0.0308  0.8970
 9258TIP3    H249190   5.927   2.505   2.547  0.5759  1.5326 -2.5913
 9259TIP3   OH249191   6.715   4.247  16.882  0.0330 -0.5123  0.2002
 9259TIP3    H149192   6.663   4.228  16.804 -0.2347  1.7524 -0.2250
 9259TIP3    H249193   6.650   4.273  16.948  0.3511 -1.3761  0.8729
 9260TIP3   OH249194   2.789   5.488  11.624 -0.2648  0.0556  0.2934
 9260TIP3    H149195   2.774   5.512  11.533 -0.1479  0.3385  0.3498
 9260TIP3    H249196   2.734   5.549  11.674  1.7739  1.7686  0.5607
 9261TIP3   OH249197   6.430   3.566   0.712 -0.8466  0.0468  0.0369
 9261TIP3    H149198   6.518   3.561   0.675 -0.5019 -1.4782  0.9668
 9261TIP3    H249199   6.402   3.656   0.695  0.9513  0.6154 -0.1327
 9262TIP3   OH249200   6.623   5.712  13.671 -0.2073  0.3999 -0.3145
 9262TIP3    H149201   6.704   5.742  13.631 -0.2686  1.5537  0.3865
 9262TIP3    H249202   6.648   5.634  13.721  0.1059 -0.3123 -1.5517
 9263TIP3   OH249203   1.417   4.984   4.093 -0.8920 -0.0004  0.7375
 9263TIP3    H149204   1.347   4.922   4.115 -2.5348  1.7152  0.5365
 9263TIP3    H249205   1.450   5.013   4.178 -0.2071 -0.9865  0.8333
 9264TIP3   OH249206   1.378   4.560  13.176 -0.1824 -0.5854  0.1176
 9264TIP3    H149207   1.471   4.545  13.165 -0.1822 -0.5964  0.1350
 9264TIP3    H249208   1.365   4.564  13.271  0.1764  1.7152  0.1115
 9265TIP3   OH249209   6.490   5.486  13.324 -0.4237 -0.2573  0.2923
 9265TIP3    H149210   6.441   5.471  13.243  1.1492 -0.0644 -0.7444
 9265TIP3    H249211   6.527   5.574  13.313  0.6008 -0.6143  0.7821
 9266TIP3   OH249212   4.070   3.699   0.253 -0.3525  0.0115 -0.1620
 9266TIP3    H149213   4.058   3.789   0.282 -2.4335 -0.2167 -0.1051
 9266TIP3    H249214   4.027   3.646   0.320  1.1212 -1.0738 -0.0211
 9267TIP3   OH249215   5.208   2.323  12.245 -0.1862  0.3122 -0.1228
 9267TIP3    H149216   5.257   2.246  12.216  0.3753  0.7704 -0.4151
 9267TIP3    H249217   5.117   2.293  12.252  0.0638 -0.4312 -0.0150
 9268TIP3   OH249218   2.503   1.079  16.655 -0.2398 -0.2481 -0.4264
 9268TIP3    H149219   2.454   1.124  16.585  0.6968  1.1317 -0.2284
 9268TIP3    H249220   2.538   1.001  16.613 -0.5624  0.0212 -1.2184
 9269TIP3   OH249221   3.602   4.776   4.466 -0.1258  0.0527  0.6096
 9269TIP3    H149222   3.532   4.784   4.401 -0.1809  1.3603  0.8197
 9269TIP3    H249223   3.570   4.709   4.527 -1.1811  0.6084  0.6836
 9270TIP3   OH249224   0.560   5.576   4.322 -0.0545 -0.1906 -0.0851
 9270TIP3    H149225   0.514   5.658   4.304 -1.0571 -0.4703  1.0568
 9270TIP3    H249226   0.534   5.517   4.251  0.1115  0.2557 -0.5200
 9271TIP3   OH249227   0.597   1.703   0.732 -0.0886 -0.0314 -0.1857
 9271TIP3    H149228   0.631   1.781   0.775 -1.8352  1.4267 -1.3065
 9271TIP3    H249229   0.664   1.679   0.669  0.2935  0.8025 -0.1070
 9272TIP3   OH249230   5.535   3.578   4.548  0.1205 -0.3433  0.0829
 9272TIP3    H149231   5.587   3.522   4.491 -1.3520 -2.6573  0.8528
 9272TIP3    H249232   5.554   3.546   4.637  0.5482  1.5891  0.7384
 9273TIP3   OH249233   3.504   1.064   6.349  0.2510  0.3991 -0.2175
 9273TIP3    H149234   3.412   1.071   6.375  0.0151  0.2053 -0.9637
 9273TIP3    H249235   3.547   1.137   6.392 -0.1389  0.1562  0.6098
 9274TIP3   OH249236   2.674   3.570  12.439 -0.4423  0.1135  0.3317
 9274TIP3    H149237   2.643   3.511  12.508  1.5850  1.0555  2.1592
 9274TIP3    H249238   2.620   3.649  12.449 -1.1957 -0.3206 -0.2133
 9275TIP3   OH249239   1.372   3.221  11.612 -0.2703  0.1557  0.2448
 9275TIP3    H149240   1.330   3.307  11.611 -3.4921 -1.1758  3.2488
 9275TIP3    H249241   1.435   3.226  11.684 -1.6786 -0.4018  1.5686
 9276TIP3   OH249242   4.343   5.184   4.623 -0.0149  0.1252 -0.0552
 9276TIP3    H149243   4.400   5.243   4.674 -0.3270  1.4826 -1.1957
 9276TIP3    H249244   4.254   5.211   4.647 -0.1600  0.0644 -0.5243
 9277TIP3   OH249245   5.514   1.168   0.094  0.1995  0.6682 -0.1098
 9277TIP3    H149246   5.541   1.142   0.006 -1.6541 -1.0410 -0.2447
 9277TIP3    H249247   5.481   1.257   0.083  2.9658  1.7459 -0.4453
 9278TIP3   OH249248   6.198   2.047   4.083 -0.3051  0.2129  0.1046
 9278TIP3    H149249   6.195   2.114   4.015 -0.2963 -0.3575 -0.4604
 9278TIP3    H249250   6.280   2.063   4.129 -0.6523  1.0481  0.4510
 9279TIP3   OH249251   1.599   6.561  12.965 -0.5614  0.1718  0.0308
 9279TIP3    H149252   1.565   6.587  13.051  0.4642  1.2876  0.1227
 9279TIP3    H249253   1.655   6.634  12.938 -2.0912  0.6141 -2.3064
 9280TIP3   OH249254   6.109   3.163  12.960  0.0353  0.0631  0.0811
 9280TIP3    H149255   6.070   3.087  13.003 -1.4935  0.5552 -0.3550
 9280TIP3    H249256   6.137   3.130  12.875 -0.0800 -0.1513  0.1250
 9281TIP3   OH249257   1.599   0.415   1.038 -0.1644  0.1073 -0.2749
 9281TIP3    H149258   1.539   0.411   1.113 -0.5862  0.2949 -0.6004
 9281TIP3    H249259   1.544   0.396   0.962  0.1317  0.5619 -0.6075
 9282TIP3   OH249260   5.986   0.890  14.357  0.4674  0.2858  0.0746
 9282TIP3    H149261   6.065   0.912  14.307 -0.1801 -0.3610 -1.2889
 9282TIP3    H249262   5.992   0.943  14.436  0.7908  2.5296 -1.3745
 9283TIP3   OH249263   5.812   3.739   2.288 -0.0423  0.0999  0.3920
 9283TIP3    H149264   5.880   3.683   2.326  1.5642 -2.0616 -4.7281
 9283TIP3    H249265   5.845   3.828   2.302  0.9495 -0.5622  2.7749
 9284TIP3   OH249266   0.160   1.699  14.203  0.1913  0.2416  0.3842
 9284TIP3    H149267   0.168   1.651  14.120  0.6255 -0.7178  0.9618
 9284TIP3    H249268   0.077   1.670  14.240 -0.2837  1.1128  0.0235
 9285TIP3   OH249269   0.763   4.786  13.029  0.2532  0.3301  0.0739
 9285TIP3    H149270   0.819   4.793  12.952 -1.1608 -0.5223 -1.0787
 9285TIP3    H249271   0.800   4.849  13.091  1.5684  0.8665 -1.1945
 9286TIP3   OH249272   5.485   0.223  11.824  0.0565  0.7406  0.6547
 9286TIP3    H149273   5.445   0.285  11.885  0.4103  1.4750  0.1611
 9286TIP3    H249274   5.579   0.227  11.845 -0.0608 -0.7010  1.5699
 9287TIP3   OH249275   2.489   5.592  11.671 -0.0945 -0.0524  0.5323
 9287TIP3    H149276   2.519   5.513  11.716 -2.1181 -0.0613  2.0137
 9287TIP3    H249277   2.533   5.664  11.716  1.3603 -0.2589 -0.4894
 9288TIP3   OH249278   0.731   3.514  16.113 -0.2893  0.2149 -0.4471
 9288TIP3    H149279   0.783   3.441  16.081 -0.7311 -0.3576  0.1138
 9288TIP3    H249280   0.689   3.550  16.034  0.9358  0.7026 -0.9133
 9289TIP3   OH249281   0.335   1.500  17.176 -0.6394  0.1649 -0.4139
 9289TIP3    H149282   0.316   1.550  17.256  1.2189  0.5992 -0.2056
 9289TIP3    H249283   0.386   1.560  17.122 -1.8825 -0.1205 -1.9776
 9290TIP3   OH249284   4.232   0.870   3.766  0.1295  0.5116 -1.0436
 9290TIP3    H149285   4.193   0.796   3.813 -1.6146  3.2641  2.2928
 9290TIP3    H249286   4.164   0.897   3.704 -0.7868  1.4368  0.3082
 9291TIP3   OH249287   0.510   1.547   1.172  0.4143  0.2696  0.1505
 9291TIP3    H149288   0.573   1.612   1.141  1.8911 -1.5194 -0.7680
 9291TIP3    H249289   0.448   1.536   1.100  0.6151  0.1023  0.0036
 9292TIP3   OH249290   4.135   5.412  17.126 -0.0120 -0.6244  0.0073
 9292TIP3    H149291   4.176   5.327  17.141  1.8111  0.2049 -0.0337
 9292TIP3    H249292   4.103   5.408  17.036  0.4932 -1.1032 -0.1541
 9293TIP3   OH249293   1.291   2.089  15.404  0.4520  0.0505 -0.7407
 9293TIP3    H149294   1.206   2.124  15.431 -0.2726 -0.2905 -2.4090
 9293TIP3    H249295   1.314   2.142  15.327 -0.0888 -2.2630 -2.5945
 9294TIP3   OH249296   2.748   5.039   3.802 -0.6074 -0.2944 -0.3249
 9294TIP3    H149297   2.670   5.000   3.840  0.1796 -1.1709  0.4364
 9294TIP3    H249298   2.784   4.970   3.746  1.1682 -0.9756  1.5579
 9295TIP3   OH249299   3.377   1.870  12.996 -0.7531 -0.3550 -0.6391
 9295TIP3    H149300   3.300   1.896  12.946 -0.3542  0.7999 -0.6770
 9295TIP3    H249301   3.379   1.774  12.989 -0.8242 -0.2541 -2.6539
 9296TIP3   OH249302   2.223   4.499   6.378 -0.3101 -1.0122 -0.4992
 9296TIP3    H149303   2.248   4.577   6.329 -0.2726 -1.5330 -1.3390
 9296TIP3    H249304   2.179   4.532   6.456 -0.2969 -0.1541 -0.8475
 9297TIP3   OH249305   3.164   6.243   0.685 -0.1264 -0.6119  0.4567
 9297TIP3    H149306   3.098   6.298   0.726  0.6217 -0.6589  1.7733
 9297TIP3    H249307   3.123   6.157   0.678 -0.3020 -0.5782  1.0223
 9298TIP3   OH249308   6.709   2.622  13.476  0.4502  0.9281 -0.2971
 9298TIP3    H149309   6.649   2.557  13.512  0.6614  0.4692 -0.7742
 9298TIP3    H249310   6.764   2.574  13.415  1.5466  1.2768  0.3829
 9299TIP3   OH249311   3.304   5.312   0.835  0.3054  0.6066  0.2102
 9299TIP3    H149312   3.224   5.270   0.803  0.7084  0.6910 -0.9333
 9299TIP3    H249313   3.375   5.264   0.792  0.7905  2.1318 -0.7641
 9300TIP3   OH249314   4.989   0.685   2.230  0.4261 -0.1545  0.1145
 9300TIP3    H149315   4.992   0.733   2.313  2.6234 -0.7466  0.4225
 9300TIP3    H249316   4.973   0.594   2.255 -0.2584 -0.1406 -0.2361
 9301TIP3   OH249317   0.553   1.106   0.283  0.2803  0.4840  0.2204
 9301TIP3    H149318   0.569   1.144   0.197  0.2774  0.6527  0.2939
 9301TIP3    H249319   0.634   1.058   0.303 -0.5089 -1.3725 -0.8113
 9302TIP3   OH249320   4.601   4.775  12.298  0.0270 -0.8439  0.2827
 9302TIP3    H149321   4.535   4.825  12.345 -0.8474  0.8557 -2.5191
 9302TIP3    H249322   4.561   4.754  12.213  2.0177 -2.4170 -0.3708
 9303TIP3   OH249323   1.940   2.813   1.352  0.3043  0.6739  0.1327
 9303TIP3    H149324   1.881   2.737   1.350  1.0609  0.0910 -0.1953
 9303TIP3    H249325   1.881   2.889   1.351 -0.4988  0.2299 -4.0743
 9304TIP3   OH249326   6.162   3.399  14.070  0.2359 -0.0143 -0.1822
 9304TIP3    H149327   6.083   3.435  14.109  0.0851 -1.7530  1.2658
 9304TIP3    H249328   6.131   3.330  14.011  0.6266 -0.0250 -0.3815
 9305TIP3   OH249329   2.722   0.041  13.287  0.3747 -0.0562 -0.1531
 9305TIP3    H149330   2.666   0.115  13.265 -0.6189 -0.8988 -0.5200
 9305TIP3    H249331   2.665  -0.036  13.281  1.4708 -0.8990 -0.1616
 9306TIP3   OH249332   6.613   2.453   1.254 -0.4992  0.1946  0.4209
 9306TIP3    H149333   6.576   2.366   1.262  1.7133 -0.6961  2.0043
 9306TIP3    H249334   6.671   2.447   1.178 -1.7504  0.9012 -0.6341
 9307TIP3   OH249335   5.215   6.330  15.570 -0.0373  0.4171  0.0600
 9307TIP3    H149336   5.121   6.321  15.584 -0.1937 -0.1187 -1.1597
 9307TIP3    H249337   5.230   6.424  15.565 -1.1544  0.5476 -3.3421
 9308TIP3   OH249338   6.086   1.743   0.490  1.4784  0.0985 -0.3013
 9308TIP3    H149339   6.077   1.825   0.538  0.9663 -0.3422  0.3813
 9308TIP3    H249340   6.138   1.687   0.548  0.3978 -0.6234 -0.0082
 9309TIP3   OH249341   1.521   3.319   0.096  0.2508  0.5888  0.2440
 9309TIP3    H149342   1.436   3.359   0.078  0.4277  1.3031  0.9810
 9309TIP3    H249343   1.512   3.229   0.062 -0.6998  0.7367  0.0760
 9310TIP3   OH249344   0.860   3.369   2.304 -0.0583  0.1920 -0.2788
 9310TIP3    H149345   0.883   3.384   2.212  1.8296 -0.0868  0.1040
 9310TIP3    H249346   0.766   3.384   2.308  0.0323  1.5441 -1.9919
 9311TIP3   OH249347   3.514   3.612  15.273 -0.4823  0.2813 -0.5414
 9311TIP3    H149348   3.530   3.700  15.307  0.6861  0.4075 -1.3659
 9311TIP3    H249349   3.436   3.622  15.219 -0.4199  0.7933 -0.5481
 9312TIP3   OH249350   1.338   1.422   5.685  0.3580  0.4186  0.4036
 9312TIP3    H149351   1.246   1.427   5.659  0.6673  0.5950 -0.7193
 9312TIP3    H249352   1.383   1.484   5.626  1.4338 -0.9075 -0.2394
 9313TIP3   OH249353   1.814   5.097   4.658 -0.1609  0.4790 -0.4363
 9313TIP3    H149354   1.902   5.069   4.685 -0.5208  0.0442  0.3270
 9313TIP3    H249355   1.765   5.015   4.647 -0.4137  0.7135 -1.0517
 9314TIP3   OH249356   0.592   1.647   5.309 -0.3043 -0.1456  0.4920
 9314TIP3    H149357   0.532   1.675   5.240  2.3198  1.7564 -1.2080
 9314TIP3    H249358   0.554   1.683   5.389 -0.9126  1.9416 -0.6604
 9315TIP3   OH249359   1.195   2.645   3.447 -0.0133 -0.0056 -0.5422
 9315TIP3    H149360   1.222   2.701   3.374 -0.4437 -0.0482 -0.7337
 9315TIP3    H249361   1.109   2.611   3.421 -0.8799  1.1801  0.6563
 9316TIP3   OH249362   3.134   6.461  15.617  0.9824  0.2134  0.0640
 9316TIP3    H149363   3.069   6.444  15.548  1.5306 -0.2417 -0.3460
 9316TIP3    H249364   3.184   6.380  15.624  0.3456 -0.0872  1.6634
 9317TIP3   OH249365   5.796   3.421   0.270 -0.4099  0.5497 -0.2630
 9317TIP3    H149366   5.839   3.434   0.186 -0.2312  0.2636 -0.2189
 9317TIP3    H249367   5.840   3.483   0.329  0.0050  0.2015 -0.1994
 9318TIP3   OH249368   0.054   3.079   1.547 -0.1816 -0.0262 -0.9605
 9318TIP3    H149369   0.052   3.036   1.462 -1.5394  0.4470 -1.1932
 9318TIP3    H249370  -0.038   3.086   1.572  0.1079  1.2857 -0.1959
 9319TIP3   OH249371   2.876   0.539   4.447 -0.0927 -0.1495 -0.6102
 9319TIP3    H149372   2.868   0.577   4.359 -2.8316  1.1075  0.0649
 9319TIP3    H249373   2.799   0.483   4.456  0.8696 -1.3341  0.5293
 9320TIP3   OH249374   5.527   2.849   2.266 -0.6929  0.0491  0.2892
 9320TIP3    H149375   5.441   2.849   2.225 -0.1016  3.0530 -1.2359
 9320TIP3    H249376   5.583   2.895   2.204  1.3899  0.5882  2.4277
 9321TIP3   OH249377   2.430   1.221  14.269 -0.0809 -0.0064 -0.1124
 9321TIP3    H149378   2.443   1.309  14.235  0.7987  0.6511  1.7952
 9321TIP3    H249379   2.401   1.234  14.359 -0.8279 -1.6775 -0.0748
 9322TIP3   OH249380   5.852   4.791   4.176  0.2301 -0.4429  0.7260
 9322TIP3    H149381   5.816   4.781   4.088 -0.2126 -1.1128  0.9789
 9322TIP3    H249382   5.898   4.709   4.193  1.9982  0.4254  0.3807
 9323TIP3   OH249383   3.397   5.843   6.264  0.2650  0.0468 -0.1605
 9323TIP3    H149384   3.447   5.781   6.209  1.5807  0.7912  0.1424
 9323TIP3    H249385   3.318   5.861   6.214  0.4596 -0.9045 -0.8460
 9324TIP3   OH249386   0.031   3.837  15.422 -0.2195  0.5019  0.5584
 9324TIP3    H149387  -0.020   3.874  15.494 -0.2888 -0.9556  1.2820
 9324TIP3    H249388   0.122   3.852  15.448 -0.2494  0.9384  0.4228
 9325TIP3   OH249389   5.610   2.949  11.573  0.0072  0.2682 -0.1716
 9325TIP3    H149390   5.668   2.967  11.499  0.8308 -1.9707 -0.1434
 9325TIP3    H249391   5.593   2.855  11.568 -1.7721  0.4590  1.1891
 9326TIP3   OH249392   6.338   2.730  17.413  0.0982  0.4630 -0.0219
 9326TIP3    H149393   6.380   2.645  17.427 -0.2364  0.1323 -0.9306
 9326TIP3    H249394   6.400   2.794  17.448  0.1515 -0.1740  1.0925
 9327TIP3   OH249395   3.972   2.377   4.509  0.3061 -0.0064 -0.1883
 9327TIP3    H149396   3.983   2.388   4.415 -0.5987 -0.8833 -0.4144
 9327TIP3    H249397   4.015   2.294   4.529  4.9028  2.3955  1.0776
 9328TIP3   OH249398   4.806   1.226  17.171  0.0619  0.3001 -0.0671
 9328TIP3    H149399   4.891   1.235  17.128  0.1027  0.6925  0.0932
 9328TIP3    H249400   4.743   1.257  17.106 -0.4941 -4.1405 -2.0342
 9329TIP3   OH249401   3.225   4.852  17.038 -0.0886 -0.1054 -0.4501
 9329TIP3    H149402   3.157   4.904  17.081 -0.2798 -0.3641 -0.4348
 9329TIP3    H249403   3.191   4.762  17.040  0.8733 -0.4785  0.8356
 9330TIP3   OH249404   2.779   3.623   0.806 -0.4720  0.3998 -0.4040
 9330TIP3    H149405   2.714   3.564   0.844  1.3258 -0.4939  1.4319
 9330TIP3    H249406   2.835   3.566   0.753 -0.6666  1.0434 -1.3407
 9331TIP3   OH249407   2.979   0.369   2.795  0.2033 -0.5136  0.0160
 9331TIP3    H149408   3.017   0.400   2.713  0.5199 -1.0506 -0.0395
 9331TIP3    H249409   3.049   0.319   2.837 -0.5059 -1.7079 -0.1907
 9332TIP3   OH249410   3.480   2.426   5.813 -0.2383  0.0823 -0.3014
 9332TIP3    H149411   3.454   2.484   5.885 -2.1951  0.7467 -1.4722
 9332TIP3    H249412   3.404   2.370   5.798 -0.2296  0.5561 -2.4170
 9333TIP3   OH249413   3.974   1.683   3.969  0.5564 -0.2900  0.3835
 9333TIP3    H149414   3.955   1.667   4.062 -0.1991 -0.7567  0.1532
 9333TIP3    H249415   3.940   1.770   3.952  1.2212  0.0374  0.6830
 9334TIP3   OH249416   5.009   3.811  14.264 -0.1400 -0.3841  0.1327
 9334TIP3    H149417   5.067   3.816  14.187 -0.4574 -2.1583 -0.2661
 9334TIP3    H249418   5.045   3.875  14.325  1.2875 -0.3094 -0.7312
 9335TIP3   OH249419   4.438   2.626   1.101 -0.0871 -0.3389  0.5183
 9335TIP3    H149420   4.415   2.541   1.138 -0.9793 -0.0232  0.7222
 9335TIP3    H249421   4.480   2.673   1.173  0.6078 -0.6842  0.3404
 9336TIP3   OH249422   6.283   5.451   2.077  0.2647 -0.4001 -0.5028
 9336TIP3    H149423   6.319   5.402   2.003  1.0406  1.4682 -1.4493
 9336TIP3    H249424   6.318   5.407   2.154  1.5537 -0.8824 -1.3269
 9337TIP3   OH249425   4.994   6.208  15.923 -0.1980 -0.3855  0.1468
 9337TIP3    H149426   5.001   6.300  15.898  0.8690 -0.5041 -0.0266
 9337TIP3    H249427   5.069   6.166  15.881 -1.1970 -1.5145 -0.5368
 9338TIP3   OH249428   0.464   5.428  17.202  0.8445  0.2004 -0.6694
 9338TIP3    H149429   0.497   5.502  17.150  1.1381  1.1064  0.7494
 9338TIP3    H249430   0.476   5.455  17.293  0.9567 -1.6089 -0.1017
 9339TIP3   OH249431   5.384   5.241   5.227 -0.0978  0.1088 -0.5721
 9339TIP3    H149432   5.329   5.163   5.216  0.1425 -0.1935  0.2538
 9339TIP3    H249433   5.428   5.251   5.143 -0.7397 -0.1703 -0.9548
 9340TIP3   OH249434   0.966   5.022   3.319 -0.6139  0.5321  0.3273
 9340TIP3    H149435   0.957   5.087   3.388 -1.6467  1.8514 -0.9835
 9340TIP3    H249436   0.876   5.002   3.293 -0.2495  0.6664 -1.1518
 9341TIP3   OH249437   5.554   6.559   4.839 -0.2801 -0.4882 -0.3523
 9341TIP3    H149438   5.529   6.621   4.771 -1.0988 -0.5348 -0.1144
 9341TIP3    H249439   5.477   6.503   4.850  0.4502 -1.5744 -0.5844
 9342TIP3   OH249440   2.323   3.138  14.511 -0.4266  0.1262 -0.1550
 9342TIP3    H149441   2.401   3.182  14.477 -0.1393  1.0118  1.5428
 9342TIP3    H249442   2.250   3.181  14.467 -0.0101 -0.5373 -1.5661
 9343TIP3   OH249443   1.221   1.832   0.483  0.0149  0.0989  0.6616
 9343TIP3    H149444   1.277   1.826   0.406  0.2938 -0.0234  0.8683
 9343TIP3    H249445   1.258   1.904   0.534  1.6489 -1.6371  2.0862
 9344TIP3   OH249446   5.776   0.704  14.311  0.1965  0.0603 -0.0719
 9344TIP3    H149447   5.813   0.630  14.359  1.5211 -0.7239 -2.1755
 9344TIP3    H249448   5.847   0.769  14.308  0.0705  0.1723 -0.7874
 9345TIP3   OH249449   6.542   1.790  12.098  0.0553  0.2926 -0.5915
 9345TIP3    H149450   6.528   1.864  12.157  0.7012  0.1315 -0.2380
 9345TIP3    H249451   6.453   1.764  12.072 -0.3483 -0.5511  1.4342
 9346TIP3   OH249452   4.097   2.958   0.919 -0.0047  0.0574  0.4007
 9346TIP3    H149453   4.172   2.902   0.939  0.5139  0.7074  0.3209
 9346TIP3    H249454   4.108   2.981   0.827 -2.4940 -3.1007 -0.8649
 9347TIP3   OH249455   1.218   6.303  16.179  0.3173  1.1246 -0.6305
 9347TIP3    H149456   1.128   6.333  16.168 -0.2760  0.1621  1.1564
 9347TIP3    H249457   1.243   6.270  16.093 -1.5971  0.0139 -0.8207
 9348TIP3   OH249458   4.068   1.269  12.753 -0.3234 -0.0932 -0.3922
 9348TIP3    H149459   4.037   1.192  12.705 -0.9770 -0.3792  0.4594
 9348TIP3    H249460   4.089   1.235  12.840  1.3430  0.3135 -0.6066
 9349TIP3   OH249461   1.115   4.237  11.112 -0.0269 -0.2477  0.5127
 9349TIP3    H149462   1.169   4.221  11.188 -0.6451 -0.6792  0.8734
 9349TIP3    H249463   1.169   4.291  11.054  0.3544  0.2992  1.3621
 9350TIP3   OH249464   0.303   2.652   3.577  0.0497 -0.4789 -0.4117
 9350TIP3    H149465   0.345   2.658   3.491 -1.1266 -1.5251 -1.1058
 9350TIP3    H249466   0.354   2.586   3.624  0.0242 -0.7273 -0.7288
 9351TIP3   OH249467   0.400   1.659   1.400 -0.0263  0.5669 -0.1727
 9351TIP3    H149468   0.350   1.598   1.454  3.2563 -0.1532  2.3662
 9351TIP3    H249469   0.436   1.604   1.330 -0.3756  0.4819 -0.2898
 9352TIP3   OH249470   5.841   1.701  15.619 -0.4283 -0.1721 -0.0004
 9352TIP3    H149471   5.919   1.713  15.565 -0.8091 -1.0278 -0.7747
 9352TIP3    H249472   5.875   1.671  15.703  0.1187  0.1349 -0.1083
 9353TIP3   OH249473   2.917   2.783   2.928 -0.6093  0.0588  0.0203
 9353TIP3    H149474   2.866   2.828   2.861  0.4294  0.7111 -0.3550
 9353TIP3    H249475   2.910   2.839   3.005  1.0378  1.1242 -0.5723
 9354TIP3   OH249476   3.276   1.555   3.481 -0.1730  0.0901  0.5632
 9354TIP3    H149477   3.264   1.486   3.545 -0.0292  1.1508  1.7736
 9354TIP3    H249478   3.369   1.550   3.458  0.0971  0.5856  1.5016
 9355TIP3   OH249479   4.454   6.099  14.029  0.7101  0.3446  0.3752
 9355TIP3    H149480   4.443   6.181  13.981  1.8385 -0.6382 -1.6805
 9355TIP3    H249481   4.518   6.050  13.978  1.0456 -1.3032  2.2630
 9356TIP3   OH249482   0.547   6.549   0.457 -0.1841  0.5574  0.1130
 9356TIP3    H149483   0.569   6.642   0.455 -1.0599  0.8249  1.3263
 9356TIP3    H249484   0.459   6.546   0.496 -1.4147 -0.5799 -2.4698
 9357TIP3   OH249485   0.393   1.067   1.365 -0.3231  0.0591  0.6068
 9357TIP3    H149486   0.355   1.067   1.452 -1.7484 -2.4755  0.0826
 9357TIP3    H249487   0.355   1.144   1.322 -0.3595  0.7806  1.8870
 9358TIP3   OH249488   3.702   2.146   2.283 -0.2955 -0.6653  0.1571
 9358TIP3    H149489   3.657   2.229   2.265  0.4427 -0.0390  1.1521
 9358TIP3    H249490   3.645   2.079   2.243 -0.8219  0.3177 -0.7881
 9359TIP3   OH249491   5.270   3.388  13.485 -0.5773 -0.2145  0.0130
 9359TIP3    H149492   5.357   3.369  13.451 -0.7429  0.0505 -0.5737
 9359TIP3    H249493   5.245   3.309  13.532 -0.0720 -0.3397  0.0830
 9360TIP3   OH249494   6.272   6.221   4.423 -0.1299 -0.1961  1.5433
 9360TIP3    H149495   6.367   6.215   4.435  0.2431  0.3472 -0.6888
 9360TIP3    H249496   6.238   6.236   4.512  1.8683 -0.2277  2.3795
 9361TIP3   OH249497   6.581   3.906   5.238 -0.3747  0.2930 -0.7489
 9361TIP3    H149498   6.632   3.896   5.318 -0.4482  1.2505 -0.5698
 9361TIP3    H249499   6.493   3.878   5.262 -0.5712  1.2667 -0.2752
 9362TIP3   OH249500   5.023   4.380  16.806 -0.3904  0.2506 -0.3410
 9362TIP3    H149501   4.949   4.324  16.831  1.0953 -3.0869 -2.6678
 9362TIP3    H249502   4.994   4.423  16.725 -0.5766  0.7010 -0.0350
 9363TIP3   OH249503   2.937   5.568   1.830  0.0837  0.2941 -0.4586
 9363TIP3    H149504   2.850   5.543   1.859  0.4550 -0.0853  0.3740
 9363TIP3    H249505   2.983   5.594   1.910  1.3146 -1.3276 -0.5640
 9364TIP3   OH249506   0.406   2.701   3.933 -0.4429  0.4099 -0.5444
 9364TIP3    H149507   0.405   2.703   4.029  0.3375 -0.9478 -0.4708
 9364TIP3    H249508   0.315   2.717   3.907 -1.2621 -2.0463  0.5451
 9365TIP3   OH249509   2.715   4.343  16.655 -0.2899 -0.0568 -0.0279
 9365TIP3    H149510   2.662   4.419  16.632 -0.6662  0.1200  1.3690
 9365TIP3    H249511   2.795   4.353  16.603  0.1920  1.9549  1.0001
 9366TIP3   OH249512   5.888   3.425  11.578 -0.6240 -0.2281  0.1858
 9366TIP3    H149513   5.926   3.403  11.493 -0.1778  0.3122  0.2391
 9366TIP3    H249514   5.810   3.478  11.556  0.8800  2.1098  0.1136
 9367TIP3   OH249515   0.704   2.824  11.697  0.4783 -0.3424 -0.5669
 9367TIP3    H149516   0.663   2.739  11.680  0.8984 -0.4623 -0.9744
 9367TIP3    H249517   0.685   2.877  11.619  0.1178 -0.0214 -0.2660
 9368TIP3   OH249518   4.134   5.454  16.829  0.7600 -0.1090  0.2414
 9368TIP3    H149519   4.193   5.441  16.755  2.4273 -0.3018  1.5415
 9368TIP3    H249520   4.051   5.416  16.801  1.6513 -1.1003 -1.1416
 9369TIP3   OH249521   0.814   1.688   0.277  0.4663 -0.2656  0.0052
 9369TIP3    H149522   0.817   1.719   0.368  2.2606  2.5987 -0.8992
 9369TIP3    H249523   0.877   1.744   0.231 -0.2327 -1.7669 -2.9849
 9370TIP3   OH249524   3.743   4.341   4.974 -0.0895 -0.0342  0.6403
 9370TIP3    H149525   3.761   4.398   4.899  1.6563 -2.3402 -0.8782
 9370TIP3    H249526   3.826   4.336   5.021 -0.8696  0.4968  2.1198
 9371TIP3   OH249527   4.074   4.671   1.435  0.3492  0.3417 -0.4223
 9371TIP3    H149528   4.031   4.756   1.420 -2.8805 -0.9636  0.6860
 9371TIP3    H249529   4.096   4.672   1.528 -1.5353 -0.7267  0.0792
 9372TIP3   OH249530   6.488   2.503   4.203  0.2065  0.3869  0.0860
 9372TIP3    H149531   6.580   2.477   4.200  0.2518  0.6318 -1.0521
 9372TIP3    H249532   6.479   2.568   4.133 -1.4755 -1.7186 -1.8117
 9373TIP3   OH249533   1.730   2.496   1.743 -0.7737  0.1408  0.3526
 9373TIP3    H149534   1.807   2.550   1.724 -0.1363 -0.8447  0.0408
 9373TIP3    H249535   1.715   2.447   1.663 -0.7112 -0.8823  0.9514
 9374TIP3   OH249536   6.223   0.770  14.938  0.3586  0.0530  0.0578
 9374TIP3    H149537   6.178   0.695  14.900  0.0716  0.0792  0.3422
 9374TIP3    H249538   6.171   0.846  14.912  0.8424  0.1963 -0.5269
 9375TIP3   OH249539   4.668   4.160   4.004  0.2093 -0.0491 -0.1025
 9375TIP3    H149540   4.631   4.234   4.053 -0.9242  0.0755 -1.0957
 9375TIP3    H249541   4.598   4.095   4.004 -0.3351  0.4155 -2.5244
 9376TIP3   OH249542   5.171   4.067  16.232  0.1830 -0.1781 -0.0176
 9376TIP3    H149543   5.102   4.113  16.184  0.1080  1.2183  1.3351
 9376TIP3    H249544   5.247   4.124  16.227 -0.2772  0.8532  2.7805
 9377TIP3   OH249545   4.782   1.916  14.399  0.2909  0.0328 -0.2276
 9377TIP3    H149546   4.863   1.957  14.428  0.7492  0.6218 -2.2491
 9377TIP3    H249547   4.719   1.988  14.392 -0.0477 -0.2285  0.0509
 9378TIP3   OH249548   4.942   6.481  14.042  0.0390 -0.2983  0.4861
 9378TIP3    H149549   4.861   6.532  14.037 -0.6546 -1.4784 -0.8907
 9378TIP3    H249550   4.995   6.513  13.969  1.3187  1.1766  1.9559
 9379TIP3   OH249551   1.727   2.761  12.591 -0.7499 -0.0458  0.1243
 9379TIP3    H149552   1.747   2.829  12.527 -0.7934  0.3907  0.5629
 9379TIP3    H249553   1.735   2.679  12.543 -2.2652  0.3302 -0.8452
 9380TIP3   OH249554   5.823   6.401   3.651 -0.5861 -0.4338  0.0840
 9380TIP3    H149555   5.815   6.438   3.738  2.2658  1.2640 -0.2388
 9380TIP3    H249556   5.763   6.452   3.597  1.5564  2.3389  0.1128
 9381TIP3   OH249557   6.713   2.491   0.536 -0.4183  0.0544 -0.3826
 9381TIP3    H149558   6.643   2.549   0.507 -0.5190 -0.0365 -0.3210
 9381TIP3    H249559   6.792   2.545   0.531 -0.8184  0.9994  2.0329
 9382TIP3   OH249560   5.501   2.762   0.346 -0.1585  0.1431  0.5724
 9382TIP3    H149561   5.576   2.772   0.288  0.7591 -1.6019  1.3756
 9382TIP3    H249562   5.428   2.740   0.287  0.6650 -1.2038  0.0030
 9383TIP3   OH249563   2.691   3.272   4.741 -0.3807  0.2620  0.2642
 9383TIP3    H149564   2.766   3.330   4.732  0.1860 -0.4432  0.3087
 9383TIP3    H249565   2.615   3.328   4.725  0.1820  0.8558 -0.4142
 9384TIP3   OH249566   0.101   5.429  16.243 -0.2148 -0.1337 -0.0945
 9384TIP3    H149567   0.144   5.512  16.263 -1.4335  0.3765  0.4825
 9384TIP3    H249568   0.082   5.433  16.150 -1.8933  1.0589  0.2491
 9385TIP3   OH249569   6.323   6.221   5.433 -0.5089  0.5065 -0.2650
 9385TIP3    H149570   6.362   6.141   5.468  1.0940  1.0895 -0.6484
 9385TIP3    H249571   6.278   6.193   5.354  1.7234  0.2190 -1.5210
 9386TIP3   OH249572   6.564   0.934  13.060  0.1604 -0.8283 -0.4723
 9386TIP3    H149573   6.575   0.937  12.965 -0.8417 -0.1690 -0.5850
 9386TIP3    H249574   6.529   0.847  13.078  1.9605 -1.5942 -0.4984
 9387TIP3   OH249575   5.645   6.005  15.441 -0.0665 -0.0812  0.6173
 9387TIP3    H149576   5.668   5.927  15.491  1.2165  0.4288  0.8470
 9387TIP3    H249577   5.721   6.022  15.386 -1.1028 -0.1099 -0.8810
 9388TIP3   OH249578   3.033   0.231  13.524  0.0384 -0.0734  0.1076
 9388TIP3    H149579   2.969   0.251  13.456 -0.1389 -0.1496  0.2523
 9388TIP3    H249580   2.981   0.205  13.600  0.2242  0.4218  0.4069
 9389TIP3   OH249581   2.721   5.224  15.807 -0.1769  0.1868 -0.2040
 9389TIP3    H149582   2.697   5.140  15.770 -1.7069  0.2679  0.4924
 9389TIP3    H249583   2.703   5.215  15.901  1.7263  0.6056  0.2468
 9390TIP3   OH249584   1.820   0.563   2.987  0.2419  0.2024  0.3443
 9390TIP3    H149585   1.899   0.523   3.023 -0.2240  2.2008  4.0386
 9390TIP3    H249586   1.845   0.653   2.969 -0.3932  0.0192 -1.7928
 9391TIP3   OH249587   0.740   2.823  13.557 -0.2058  0.6501  0.4890
 9391TIP3    H149588   0.665   2.770  13.581  0.2797 -0.2548  0.0490
 9391TIP3    H249589   0.802   2.762  13.518  0.0844  1.6540 -0.6833
 9392TIP3   OH249590   6.734   4.873   4.927  0.7700  0.2291 -0.1941
 9392TIP3    H149591   6.764   4.792   4.886 -1.6483 -0.8490 -0.0172
 9392TIP3    H249592   6.719   4.933   4.854 -0.7849 -0.7115 -0.6894
 9393TIP3   OH249593   0.259   6.168   6.007  0.2160 -0.6617  0.0077
 9393TIP3    H149594   0.278   6.218   6.086 -0.1482 -1.7254  0.8038
 9393TIP3    H249595   0.329   6.102   6.003  0.7943  0.0039 -1.1197
 9394TIP3   OH249596   2.462   4.045   3.996  0.2611  0.0560  0.7895
 9394TIP3    H149597   2.388   4.075   3.945  0.6158 -0.7198 -0.2297
 9394TIP3    H249598   2.428   4.032   4.085 -0.9246 -0.6925  0.2403
 9395TIP3   OH249599   1.233   0.756   5.448 -0.8102 -0.2619 -0.1109
 9395TIP3    H149600   1.150   0.804   5.449 -2.0076 -2.1314 -2.0393
 9395TIP3    H249601   1.267   0.769   5.360  1.2047  0.7899  0.7710
 9396TIP3   OH249602   5.910   5.483  14.800 -0.3399 -0.0889 -0.2707
 9396TIP3    H149603   5.913   5.410  14.861 -0.9990  0.9340  1.0433
 9396TIP3    H249604   5.886   5.559  14.854  1.8434  1.4374 -1.2624
 9397TIP3   OH249605   0.297   3.102  13.397  0.4659  0.1977  0.3269
 9397TIP3    H149606   0.249   3.021  13.414  1.8524 -0.5843  0.7121
 9397TIP3    H249607   0.252   3.142  13.323  0.1987 -1.3317 -0.3765
 9398TIP3   OH249608   4.109   1.114   5.322  0.4297  0.7832 -0.5029
 9398TIP3    H149609   4.125   1.020   5.323  0.4519  0.7900  0.4282
 9398TIP3    H249610   4.137   1.143   5.235  0.2187 -0.1018 -0.8684
 9399TIP3   OH249611   6.197   2.811  11.823  0.3810  0.7813  0.4432
 9399TIP3    H149612   6.167   2.759  11.748 -2.2954 -0.7966  2.3984
 9399TIP3    H249613   6.283   2.775  11.845  1.0151  0.9848 -1.5272
 9400TIP3   OH249614   4.850   6.177   5.794  0.5064  0.1214 -0.0008
 9400TIP3    H149615   4.814   6.153   5.879  1.0740  1.8140  0.7559
 9400TIP3    H249616   4.926   6.119   5.783 -0.5879 -1.3390 -0.2153
 9401TIP3   OH249617   6.446   3.605   2.171  0.1096 -0.3789 -0.7911
 9401TIP3    H149618   6.372   3.578   2.226 -0.7760 -0.5759 -2.0372
 9401TIP3    H249619   6.472   3.526   2.125 -0.7137  0.2582 -2.4186
 9402TIP3   OH249620   2.873   4.317   4.907 -0.2272  0.0435  0.1392
 9402TIP3    H149621   2.918   4.316   4.991 -0.9459 -0.9715  0.5179
 9402TIP3    H249622   2.903   4.239   4.862  0.6592  0.9158 -0.8432
 9403TIP3   OH249623   3.993   3.969   3.803 -0.5026  0.0823  0.1355
 9403TIP3    H149624   3.905   4.000   3.783 -0.4922  0.8622  1.1782
 9403TIP3    H249625   3.982   3.911   3.879 -0.2334 -0.6039 -0.3437
 9404TIP3   OH249626   3.179   0.248  14.560 -0.3070 -0.3538  0.2520
 9404TIP3    H149627   3.227   0.173  14.525 -0.4843 -0.1390 -0.4783
 9404TIP3    H249628   3.241   0.291  14.618  0.3405 -0.1854 -0.5345
 9405TIP3   OH249629   4.102   0.496   2.572  0.3508  0.1160  0.4599
 9405TIP3    H149630   4.101   0.401   2.561  2.6554 -0.2721  2.7364
 9405TIP3    H249631   4.192   0.522   2.553 -0.0848  1.7713  0.5127
 9406TIP3   OH249632   5.355   0.240  11.437  0.3802  0.7507 -0.4189
 9406TIP3    H149633   5.335   0.269  11.348  1.7704  1.0488 -0.6521
 9406TIP3    H249634   5.418   0.170  11.426 -0.6277 -0.3077  0.2869
 9407TIP3   OH249635   1.899   0.895   4.839  0.1943  0.6004  0.9440
 9407TIP3    H149636   1.941   0.894   4.925  0.9404 -1.7358  0.6168
 9407TIP3    H249637   1.966   0.863   4.779 -1.0356 -0.0806 -0.1156
 9408TIP3   OH249638   3.575   5.811   2.651  0.0700  0.2383  1.2128
 9408TIP3    H149639   3.588   5.863   2.730  0.0217 -0.2487  1.5437
 9408TIP3    H249640   3.481   5.792   2.649  0.3589 -1.4590  2.1368
 9409TIP3   OH249641   1.927   5.041  15.720 -0.3548 -0.1520 -0.0266
 9409TIP3    H149642   1.864   5.018  15.789  0.9613  0.9283  1.6271
 9409TIP3    H249643   1.984   4.965  15.714  0.2601  0.2040  0.9981
 9410TIP3   OH249644   1.139   0.535   4.977  0.7410  0.7353 -0.7228
 9410TIP3    H149645   1.198   0.564   4.908  0.2739 -2.7632 -2.8081
 9410TIP3    H249646   1.066   0.493   4.931 -0.1154 -0.8412  1.8622
 9411TIP3   OH249647   2.345   0.939  11.565 -0.0217 -0.0384  0.2982
 9411TIP3    H149648   2.287   0.882  11.615  0.0076 -0.4977 -0.1803
 9411TIP3    H249649   2.405   0.878  11.520 -1.2018  0.2170 -1.7714
 9412TIP3   OH249650   1.984   1.735   4.631  0.5340 -0.6027 -0.1811
 9412TIP3    H149651   1.909   1.737   4.691 -0.6453  1.2449 -1.5898
 9412TIP3    H249652   1.990   1.644   4.604 -0.8463 -0.9086  0.4227
 9413TIP3   OH249653   1.993   4.525   5.861  1.0393  0.2524  0.0575
 9413TIP3    H149654   2.004   4.438   5.900 -0.9536 -0.5393 -1.0059
 9413TIP3    H249655   2.026   4.516   5.771  0.1592  0.3812 -0.2827
 9414TIP3   OH249656   2.872   0.053  16.533 -0.2131  0.1279 -0.0303
 9414TIP3    H149657   2.868  -0.038  16.504  1.4931 -0.7378  2.1867
 9414TIP3    H249658   2.797   0.063  16.591 -1.2565  0.6314 -1.4155
 9415TIP3   OH249659   2.622   5.569   3.996  0.1026 -0.0928 -0.1861
 9415TIP3    H149660   2.637   5.588   3.904  2.9340 -0.8389  0.0143
 9415TIP3    H249661   2.638   5.475   4.005  1.0401  0.1611  1.2205
 9416TIP3   OH249662   3.993   0.805  12.935  0.1981  0.2088 -0.7155
 9416TIP3    H149663   3.976   0.720  12.976  1.0414 -0.5323 -1.8669
 9416TIP3    H249664   4.079   0.831  12.968  0.0502  0.5149 -0.5629
 9417TIP3   OH249665   2.674   4.962  15.672  0.4719 -0.3626 -0.0713
 9417TIP3    H149666   2.580   4.962  15.655  0.5536  1.3646 -0.6734
 9417TIP3    H249667   2.703   4.873  15.650 -0.8133 -0.5510 -1.0545
 9418TIP3   OH249668   5.306   3.163   3.119 -0.6946  0.1768 -1.1474
 9418TIP3    H149669   5.380   3.145   3.062 -1.0136 -1.2679 -1.1444
 9418TIP3    H249670   5.344   3.169   3.207 -0.4687  0.3249 -1.2566
 9419TIP3   OH249671   1.886   1.960   0.494  0.0729  0.5961  0.4995
 9419TIP3    H149672   1.872   2.019   0.420 -0.9274  2.1631  1.8667
 9419TIP3    H249673   1.945   2.008   0.552  0.9482 -0.6621  0.6817
 9420TIP3   OH249674   1.643   3.594  11.059  0.3509  0.3617 -0.2578
 9420TIP3    H149675   1.593   3.514  11.075  2.6011 -1.0319  0.1535
 9420TIP3    H249676   1.582   3.665  11.082 -0.7081 -1.2774  2.5676
 9421TIP3   OH249677   0.917   2.121  13.127 -0.0576 -0.1268 -0.6908
 9421TIP3    H149678   0.867   2.110  13.208 -0.3025  0.8205 -0.6994
 9421TIP3    H249679   0.980   2.050  13.128 -1.8796 -1.8446 -1.0458
 9422TIP3   OH249680   5.278   1.198  16.049  0.5623  0.1464  0.1620
 9422TIP3    H149681   5.297   1.281  16.004 -0.2342  0.3639  0.2111
 9422TIP3    H249682   5.185   1.202  16.068  0.8889  0.1346  1.9870
 9423TIP3   OH249683   3.611   4.247  11.782 -0.2966 -0.2959  0.3062
 9423TIP3    H149684   3.691   4.207  11.816  0.2088 -0.0555 -0.5514
 9423TIP3    H249685   3.641   4.303  11.710 -1.1665  0.3505  0.4327
 9424TIP3   OH249686   4.334   3.009   1.511 -0.8869 -0.0150 -0.6678
 9424TIP3    H149687   4.285   3.024   1.430 -0.4418  2.0001 -0.6168
 9424TIP3    H249688   4.412   3.063   1.502  0.1530 -1.2926  0.2905
 9425TIP3   OH249689   4.867   6.234  13.523 -0.0008 -0.9524 -0.3382
 9425TIP3    H149690   4.921   6.253  13.446  1.1074  0.5417  0.7364
 9425TIP3    H249691   4.859   6.318  13.568 -2.0337 -1.4413  0.3250
 9426TIP3   OH249692   1.843   6.489   1.081 -0.0679  0.0234 -0.4462
 9426TIP3    H149693   1.762   6.536   1.067  0.8640  1.1559 -2.4762
 9426TIP3    H249694   1.858   6.494   1.176 -2.8183 -1.1392  0.1424
 9427TIP3   OH249695   2.491   1.549   3.541 -0.2411  0.3204  0.3353
 9427TIP3    H149696   2.577   1.586   3.564 -0.6631  0.4134  1.8817
 9427TIP3    H249697   2.496   1.458   3.571 -0.5828  0.2360  0.1433
 9428TIP3   OH249698   2.848   3.395   4.233 -0.1033  0.0146 -0.3126
 9428TIP3    H149699   2.910   3.424   4.300  1.8407 -3.6029 -0.2960
 9428TIP3    H249700   2.762   3.412   4.271  0.9276  0.2484  2.0846
 9429TIP3   OH249701   4.642   5.689  16.336  0.6506  0.2379  0.4108
 9429TIP3    H149702   4.730   5.674  16.303  0.4625 -1.1227  0.4694
 9429TIP3    H249703   4.649   5.675  16.431  0.2663 -0.4518  0.3440
 9430TIP3   OH249704   4.660   1.344   3.112 -0.1412 -0.3513 -0.0853
 9430TIP3    H149705   4.669   1.331   3.018 -0.0528 -0.1748 -0.1006
 9430TIP3    H249706   4.726   1.410   3.134 -0.6491  0.1333 -0.0184
 9431TIP3   OH249707   6.019   0.547  11.646 -0.4909 -0.8097  0.1933
 9431TIP3    H149708   6.100   0.575  11.688 -1.7731  2.2357  0.8727
 9431TIP3    H249709   5.981   0.485  11.708 -1.0352  1.5694  2.4010
 9432TIP3   OH249710   5.569   0.240  16.627 -0.7781 -0.5463  0.6111
 9432TIP3    H149711   5.538   0.273  16.542  0.4519 -1.9942 -0.4653
 9432TIP3    H249712   5.618   0.313  16.665 -5.0822  1.8426  2.3576
 9433TIP3   OH249713   5.896   5.279   3.779 -0.2524  0.1774 -0.2311
 9433TIP3    H149714   5.955   5.332   3.726  0.2188  0.1150  0.2211
 9433TIP3    H249715   5.856   5.340   3.841  2.0970 -0.2994  1.9183
 9434TIP3   OH249716   6.735   6.081   4.786 -0.0444  0.0784  0.3057
 9434TIP3    H149717   6.758   5.990   4.767 -1.0506 -0.0408 -0.3802
 9434TIP3    H249718   6.778   6.099   4.870 -0.5581 -1.3102  0.9019
 9435TIP3   OH249719   3.419   1.313  14.005  0.1504  0.6236 -0.1502
 9435TIP3    H149720   3.329   1.342  14.021  1.0307  2.3019  2.5337
 9435TIP3    H249721   3.449   1.367  13.933 -0.6438  0.8727 -0.3098
 9436TIP3   OH249722   1.235   2.282  11.065 -0.3223 -0.5594 -0.0999
 9436TIP3    H149723   1.313   2.321  11.104 -0.3407 -0.4459 -0.1773
 9436TIP3    H249724   1.162   2.314  11.118 -0.3802 -0.1305 -0.4378
 9437TIP3   OH249725   3.259   5.772   3.640 -0.1896  0.2077  0.5290
 9437TIP3    H149726   3.240   5.838   3.572  0.7326  0.1111  0.1629
 9437TIP3    H249727   3.187   5.781   3.702 -0.4342  1.1119  0.1425
 9438TIP3   OH249728   5.022   1.658   0.207  0.4865 -0.5010  0.0850
 9438TIP3    H149729   5.057   1.649   0.118  1.0870  1.4445  0.0811
 9438TIP3    H249730   4.962   1.584   0.216 -1.2803  0.3912 -2.7702
 9439TIP3   OH249731   6.730   6.043   3.307  0.1990  0.2512 -0.2423
 9439TIP3    H149732   6.726   6.138   3.305 -0.8602  0.2157 -0.4151
 9439TIP3    H249733   6.810   6.023   3.355  0.5356  1.2258 -0.3799
 9440TIP3   OH249734   0.513   5.836   1.544 -0.3319  0.2566  0.3371
 9440TIP3    H149735   0.462   5.763   1.510  1.5538 -0.4683 -1.0953
 9440TIP3    H249736   0.447   5.900   1.573 -2.1490  0.2107 -3.1454
 9441TIP3   OH249737   0.794   3.651   3.294 -0.2940 -0.4591  0.3116
 9441TIP3    H149738   0.824   3.631   3.382 -0.7139  0.3263  0.6421
 9441TIP3    H249739   0.722   3.713   3.306 -0.9356 -1.0068 -0.5394
 9442TIP3   OH249740   2.926   0.752   3.134  0.1758 -0.5376  0.2243
 9442TIP3    H149741   2.965   0.838   3.119 -0.6619  0.0976  1.4633
 9442TIP3    H249742   2.895   0.724   3.048  1.0975  0.0770 -0.3154
 9443TIP3   OH249743   0.169   0.499   5.288  0.3706 -0.4194 -0.4963
 9443TIP3    H149744   0.138   0.541   5.368  0.5553 -1.4419  0.1287
 9443TIP3    H249745   0.093   0.497   5.230  0.3551  0.7239 -0.5244
 9444TIP3   OH249746   6.073   2.023  10.887  0.2844 -0.0497 -0.3989
 9444TIP3    H149747   6.154   2.033  10.837 -0.9172 -1.3601 -2.7845
 9444TIP3    H249748   6.005   2.058  10.830 -0.9918 -0.0286  1.0660
 9445TIP3   OH249749   5.516   6.486  15.116 -0.2695 -0.8459 -0.0702
 9445TIP3    H149750   5.457   6.412  15.106 -2.2553  0.7085 -0.4864
 9445TIP3    H249751   5.581   6.475  15.048 -0.2643 -2.4105  0.1528
 9446TIP3   OH249752   5.015   6.220   6.331 -0.3358 -0.4944 -0.0024
 9446TIP3    H149753   4.956   6.162   6.379 -0.6826  0.5769  0.9009
 9446TIP3    H249754   5.088   6.163   6.306 -0.4814 -1.2481  1.1788
 9447TIP3   OH249755   6.281   5.352   4.174  0.5607  0.6717 -0.2748
 9447TIP3    H149756   6.303   5.422   4.235  1.5842  1.0554 -1.0556
 9447TIP3    H249757   6.307   5.271   4.220 -0.2752  0.8177  0.4744
 9448TIP3   OH249758   1.721   2.671  13.764 -0.1384  0.4858  0.0850
 9448TIP3    H149759   1.716   2.683  13.859  3.0016 -0.1856  0.4459
 9448TIP3    H249760   1.729   2.759  13.729 -0.1821  0.6753  0.5459
 9449TIP3   OH249761   2.693   5.085  13.389  0.3580 -0.1021 -0.1234
 9449TIP3    H149762   2.700   5.090  13.294  1.9962  1.9353  0.0277
 9449TIP3    H249763   2.605   5.116  13.408  0.1519 -0.1453 -0.9723
 9450TIP3   OH249764   1.254   3.790  16.338  0.2423 -0.4814  0.2200
 9450TIP3    H149765   1.302   3.858  16.385  0.0426  0.3657 -0.7587
 9450TIP3    H249766   1.234   3.724  16.405 -1.2281  1.3044  1.6331
 9451TIP3   OH249767   5.009   4.994  12.617  0.0311  0.0166 -0.2785
 9451TIP3    H149768   5.086   4.979  12.672 -1.6808 -0.5778  2.0729
 9451TIP3    H249769   4.970   5.074  12.651  0.0286  0.7970 -2.0142
 9452TIP3   OH249770   5.947   2.407  16.065 -0.2318 -0.8671  0.3293
 9452TIP3    H149771   5.998   2.466  16.120  0.8230 -0.9034 -0.5675
 9452TIP3    H249772   6.011   2.370  16.004 -1.5471  0.0307 -1.6697
 9453TIP3   OH249773   5.020   4.951   0.017  0.2729 -0.5910 -0.6436
 9453TIP3    H149774   5.023   4.913   0.105  0.1025 -0.3409 -0.5291
 9453TIP3    H249775   4.975   4.886  -0.036  2.3815 -1.7888 -1.0746
 9454TIP3   OH249776   6.491   4.706  10.847  0.4600 -0.0141 -0.9176
 9454TIP3    H149777   6.577   4.680  10.814  1.1002  1.4501 -0.5300
 9454TIP3    H249778   6.475   4.792  10.806 -1.6192 -0.9832 -2.3171
 9455TIP3   OH249779   0.597   1.979   5.350  0.0402  0.2842 -0.2695
 9455TIP3    H149780   0.595   2.062   5.398  0.3589  1.1095 -1.6399
 9455TIP3    H249781   0.652   1.997   5.274  0.1238 -1.2017 -0.5861
 9456TIP3   OH249782   5.934   0.626   1.095 -0.2569  0.2983 -0.1409
 9456TIP3    H149783   5.937   0.619   1.000 -2.2445  2.4958 -0.4627
 9456TIP3    H249784   5.851   0.584   1.119  0.0881  0.0197  0.5961
 9457TIP3   OH249785   4.031   6.281   1.419  0.1031 -0.0205 -0.1535
 9457TIP3    H149786   4.048   6.188   1.435  1.1963  0.1257 -0.4129
 9457TIP3    H249787   4.117   6.319   1.401 -0.2176  1.2075  0.7544
 9458TIP3   OH249788   1.756   3.505   5.271  0.8243  0.4791 -0.2379
 9458TIP3    H149789   1.821   3.506   5.200 -1.5549  1.2149 -2.5764
 9458TIP3    H249790   1.744   3.597   5.294  1.4410  0.2534  1.0402
 9459TIP3   OH249791   0.877   6.456   3.990  0.4610 -0.5754  0.4458
 9459TIP3    H149792   0.803   6.459   4.050 -0.8069 -1.0144 -1.0367
 9459TIP3    H249793   0.862   6.528   3.928 -0.4972 -2.5147 -1.7546
 9460TIP3   OH249794   1.399   1.860   0.282 -0.0527 -0.5115  0.4656
 9460TIP3    H149795   1.471   1.886   0.340  1.0421  1.0813 -1.5030
 9460TIP3    H249796   1.438   1.795   0.224 -1.0575 -1.8442  1.2263
 9461TIP3   OH249797   2.175   0.770  11.711 -0.1215  0.3371 -0.4870
 9461TIP3    H149798   2.243   0.765  11.778  0.2071 -0.1303 -0.8493
 9461TIP3    H249799   2.114   0.700  11.733 -1.5339  1.8978  0.9362
 9462TIP3   OH249800   1.823   0.786  16.225  0.2756 -0.1443  0.0253
 9462TIP3    H149801   1.907   0.825  16.201  0.0089  0.3957 -0.0363
 9462TIP3    H249802   1.805   0.723  16.154  0.3561  0.1463 -0.2545
 9463TIP3   OH249803   6.145   5.031   1.602  0.1591 -0.5122 -0.7201
 9463TIP3    H149804   6.142   4.936   1.590  2.2312 -0.5802 -1.0580
 9463TIP3    H249805   6.058   5.061   1.574 -0.7524 -2.3285 -0.0610
 9464TIP3   OH249806   0.899   5.345   5.073  0.4275  0.1758  0.1487
 9464TIP3    H149807   0.849   5.312   4.998 -1.1417  1.6219  0.4995
 9464TIP3    H249808   0.836   5.351   5.144  0.4663  3.9915  0.0617
 9465TIP3   OH249809   1.242   1.014   2.665 -0.5589 -0.2649  0.3421
 9465TIP3    H149810   1.327   1.058   2.661 -0.2793 -0.8510 -0.9206
 9465TIP3    H249811   1.188   1.061   2.601 -0.6107 -0.9919 -0.1662
 9466TIP3   OH249812   2.931   1.711  15.160  0.2335  0.0648  0.4813
 9466TIP3    H149813   2.867   1.778  15.183 -0.2927 -0.0939 -0.4417
 9466TIP3    H249814   3.016   1.754  15.165 -0.2323  1.6125 -2.6166
 9467TIP3   OH249815   4.252   1.896  15.250  0.3087  0.4224 -0.0358
 9467TIP3    H149816   4.221   1.846  15.325  0.2603 -0.1080 -0.3997
 9467TIP3    H249817   4.174   1.936  15.213  0.6394  2.8608  1.7167
 9468TIP3   OH249818   2.365   0.577   6.489 -0.4570  0.0521  0.0057
 9468TIP3    H149819   2.309   0.612   6.559  0.6801 -0.2260  1.0906
 9468TIP3    H249820   2.403   0.497   6.527  1.9655  1.0985 -0.0429
 9469TIP3   OH249821   1.604   5.985  16.337 -0.0883  0.4726  0.4480
 9469TIP3    H149822   1.534   5.921  16.323 -0.9882  0.9526  2.3169
 9469TIP3    H249823   1.659   5.946  16.405  1.4723  0.1270 -0.9612
 9470TIP3   OH249824   1.448   5.167  14.922 -0.1042  0.0844  0.3263
 9470TIP3    H149825   1.462   5.243  14.866  2.0067  0.2797  1.0160
 9470TIP3    H249826   1.432   5.095  14.861 -2.3597  1.0517 -0.3272
 9471TIP3   OH249827   6.054   5.622   3.574 -0.0615  0.0399  0.1515
 9471TIP3    H149828   5.980   5.643   3.631 -1.1854 -0.1789 -1.1697
 9471TIP3    H249829   6.092   5.543   3.612 -1.4963 -0.7572  0.0012
 9472TIP3   OH249830   4.736   3.590   3.587 -0.3764 -0.2337  0.1018
 9472TIP3    H149831   4.686   3.529   3.641 -1.2701 -0.7273 -1.2386
 9472TIP3    H249832   4.828   3.566   3.602 -0.6257 -0.5681  1.1317
 9473TIP3   OH249833   6.462   0.728  17.169 -0.0862 -0.4120 -0.2280
 9473TIP3    H149834   6.496   0.659  17.111 -0.1972 -0.0408 -0.7428
 9473TIP3    H249835   6.447   0.683  17.252 -0.7256 -1.1537 -0.7208
 9474TIP3   OH249836   1.121   0.253  14.155  0.4017 -0.4246 -0.1309
 9474TIP3    H149837   1.148   0.345  14.154  1.5347 -0.7405 -0.8965
 9474TIP3    H249838   1.054   0.248  14.224 -2.3310  1.6801 -2.3939
 9475TIP3   OH249839   0.654   1.792  12.798 -0.2490  0.4233 -0.0617
 9475TIP3    H149840   0.564   1.815  12.777 -0.6795 -0.4571  0.7110
 9475TIP3    H249841   0.672   1.715  12.744 -0.1315  0.3015  0.1489
 9476TIP3   OH249842   0.510   2.082  10.467 -0.0546  0.5642 -0.3334
 9476TIP3    H149843   0.502   2.017  10.537  0.6115  0.1700 -0.6130
 9476TIP3    H249844   0.441   2.059  10.405 -0.5837  0.8540  0.1338
 9477TIP3   OH249845   3.943   4.331  14.042 -0.6304  0.1435 -0.0516
 9477TIP3    H149846   3.994   4.284  13.976 -2.3857 -0.4074 -1.0935
 9477TIP3    H249847   3.972   4.422  14.035  0.8642 -0.2943  0.0824
 9478TIP3   OH249848   2.857   0.493  12.246 -0.0824 -0.1635  0.3397
 9478TIP3    H149849   2.894   0.406  12.229 -1.8336 -0.8944 -0.0031
 9478TIP3    H249850   2.853   0.499  12.341 -0.1931 -0.5911  0.3668
 9479TIP3   OH249851   6.632   5.205  13.340 -0.3205  0.2203 -0.1404
 9479TIP3    H149852   6.576   5.283  13.340 -0.7231 -0.0628 -0.6184
 9479TIP3    H249853   6.612   5.161  13.258  0.3831 -0.0549 -0.1705
 9480TIP3   OH249854   1.266   2.521  14.195 -0.2606 -0.3572 -0.7512
 9480TIP3    H149855   1.306   2.549  14.277  0.3063 -0.0612 -1.1223
 9480TIP3    H249856   1.194   2.583  14.180  0.5669  0.5041 -1.2272
 9481TIP3   OH249857   3.355   4.150  11.835  0.5881 -0.2712  0.2506
 9481TIP3    H149858   3.302   4.230  11.828 -0.9282 -1.0239  2.2961
 9481TIP3    H249859   3.445   4.181  11.824  0.0585  1.7440  1.0433
 9482TIP3   OH249860   4.216   5.789  13.071  0.4732  0.3402  0.4230
 9482TIP3    H149861   4.214   5.806  13.165 -1.9063 -0.0501  0.5180
 9482TIP3    H249862   4.154   5.852  13.034 -1.5673 -1.9655 -0.3447
 9483TIP3   OH249863   0.733   0.207   4.091  0.2715 -0.6156  0.4129
 9483TIP3    H149864   0.688   0.234   4.011  0.3560 -3.0608 -0.5342
 9483TIP3    H249865   0.698   0.266   4.159 -1.1691  0.3122 -1.0599
 9484TIP3   OH249866   3.169   4.969  13.988  0.2634 -0.0333 -0.0964
 9484TIP3    H149867   3.199   5.039  14.046 -0.1157  0.4450 -0.4744
 9484TIP3    H249868   3.133   5.014  13.912 -0.9314 -0.5904  0.1008
 9485TIP3   OH249869   6.415   3.129  17.326  0.5042  0.2199 -0.0304
 9485TIP3    H149870   6.488   3.093  17.376  0.1854 -1.8417 -0.9959
 9485TIP3    H249871   6.337   3.108  17.378  0.5315  2.9038  1.2862
 9486TIP3   OH249872   1.612   3.878  15.230  0.0618 -0.3008  0.4949
 9486TIP3    H149873   1.618   3.958  15.176 -2.1783  0.9702  1.9751
 9486TIP3    H249874   1.693   3.879  15.282  1.5676 -0.7777 -1.6905
 9487TIP3   OH249875   2.867   6.675  17.192  0.4779  0.7081 -0.2090
 9487TIP3    H149876   2.779   6.711  17.199  1.1922  2.4986  0.0537
 9487TIP3    H249877   2.857   6.597  17.138 -1.1504  1.3097 -0.8339
 9488TIP3   OH249878   0.268   5.002   1.297  0.0096  0.0058 -0.2775
 9488TIP3    H149879   0.178   5.016   1.268 -0.3479 -1.5947 -0.0530
 9488TIP3    H249880   0.314   4.972   1.218 -0.0442 -0.6602 -0.0661
 9489TIP3   OH249881   6.600   0.770   1.642 -0.3119 -0.1882 -0.1176
 9489TIP3    H149882   6.544   0.754   1.718 -0.5279 -2.2650 -0.6528
 9489TIP3    H249883   6.619   0.864   1.645  1.1455 -0.4346  3.4917
 9490TIP3   OH249884   2.161   5.273   4.638  0.4301 -0.0934 -0.2331
 9490TIP3    H149885   2.121   5.188   4.658 -1.1171  0.4791 -0.7300
 9490TIP3    H249886   2.229   5.284   4.704  0.9210 -1.8870 -0.3919
 9491TIP3   OH249887   3.910   3.943   1.226  0.1794 -0.4615 -0.1147
 9491TIP3    H149888   3.838   3.936   1.289  0.2550  1.8314  0.3161
 9491TIP3    H249889   3.871   3.984   1.149  0.9138  0.4635 -0.0110
 9492TIP3   OH249890   5.574   3.947   5.232  0.0568  0.1070  0.0289
 9492TIP3    H149891   5.483   3.975   5.241  0.4690  1.6045 -0.1868
 9492TIP3    H249892   5.575   3.857   5.264 -1.7447 -0.3752 -1.1687
 9493TIP3   OH249893   1.805   4.675   1.499 -0.4689  0.0051 -0.1127
 9493TIP3    H149894   1.734   4.728   1.537 -0.0660  2.5378 -2.5193
 9493TIP3    H249895   1.869   4.667   1.570 -0.8781  2.2507  0.5976
 9494TIP3   OH249896   1.872   2.338   4.894 -0.6243 -0.2344  0.0642
 9494TIP3    H149897   1.864   2.254   4.849 -2.5563 -0.6151  0.9925
 9494TIP3    H249898   1.798   2.390   4.861  0.3960  1.0164 -0.3089
 9495TIP3   OH249899   5.989   6.398   2.830 -0.0470 -0.0921  0.4153
 9495TIP3    H149900   6.055   6.329   2.818  0.6885  0.9060 -1.9540
 9495TIP3    H249901   5.932   6.391   2.753 -0.9892  0.8825  0.9840
 9496TIP3   OH249902   1.888   6.572   1.352 -0.6805  0.2109  0.7792
 9496TIP3    H149903   1.843   6.624   1.419 -0.0123  0.7953  0.7910
 9496TIP3    H249904   1.981   6.592   1.366 -0.3832 -1.1746  0.9422
 9497TIP3   OH249905   6.655   0.073  12.482 -0.7484 -0.2682  0.6399
 9497TIP3    H149906   6.616   0.047  12.398  0.8862 -0.4077 -0.1076
 9497TIP3    H249907   6.582   0.109  12.531 -1.8233 -0.4872 -0.7114
 9498TIP3   OH249908   5.227   3.356   6.015 -0.0775  0.0595 -0.5298
 9498TIP3    H149909   5.312   3.352   5.972 -0.7616 -2.1478 -1.8291
 9498TIP3    H249910   5.191   3.441   5.990  2.0234  1.3923  0.7162
 9499TIP3   OH249911   4.329   1.140   5.166  0.5367  0.2837  0.1429
 9499TIP3    H149912   4.371   1.077   5.108  0.2967 -1.4197  1.6964
 9499TIP3    H249913   4.398   1.167   5.227  0.5128  1.1550 -0.2065
 9500TIP3   OH249914   2.265   5.810   1.937  0.2535 -0.4076 -0.4606
 9500TIP3    H149915   2.245   5.820   1.844  0.0163 -0.4123 -0.4109
 9500TIP3    H249916   2.222   5.885   1.979  0.7644 -0.1387 -0.4109
 9501TIP3   OH249917   5.472   2.364   3.651 -0.1720  0.3643 -0.0197
 9501TIP3    H149918   5.442   2.452   3.625  1.3908  0.5011 -1.5684
 9501TIP3    H249919   5.535   2.379   3.721  0.1460  0.4972 -0.3313
 9502TIP3   OH249920   0.155   5.564  13.793 -0.2950  0.2177 -0.2250
 9502TIP3    H149921   0.082   5.545  13.852 -1.3680  0.9855 -1.2684
 9502TIP3    H249922   0.141   5.508  13.717 -0.8045  1.5984 -1.1958
 9503TIP3   OH249923   5.862   1.341  12.201  0.1073 -0.2645 -0.3316
 9503TIP3    H149924   5.870   1.333  12.106 -0.8772 -2.6130 -0.3036
 9503TIP3    H249925   5.882   1.253  12.234 -0.0806  0.3594  1.6023
 9504TIP3   OH249926   6.222   1.918   1.400 -0.0916 -0.4098 -0.3778
 9504TIP3    H149927   6.193   1.855   1.467 -0.6967 -0.0777 -0.3158
 9504TIP3    H249928   6.317   1.919   1.408 -0.0648 -1.4304 -0.4853
 9505TIP3   OH249929   0.214   0.906   0.421  0.1839  0.0326  0.3278
 9505TIP3    H149930   0.199   0.955   0.502 -1.8546  0.2309 -0.1287
 9505TIP3    H249931   0.145   0.840   0.420  2.2200 -2.2561  0.3958
 9506TIP3   OH249932   5.278   1.712   4.491 -0.0117 -0.1806  0.1404
 9506TIP3    H149933   5.308   1.635   4.443 -0.6136 -1.5691  1.8744
 9506TIP3    H249934   5.303   1.695   4.582 -3.4722 -0.1860  1.2575
 9507TIP3   OH249935   3.928   5.485   0.798 -0.1365 -0.0534 -0.0820
 9507TIP3    H149936   3.976   5.486   0.715 -0.8047 -0.6542 -0.4805
 9507TIP3    H249937   3.842   5.523   0.777  0.1298  0.9924  0.6200
 9508TIP3   OH249938   6.057   3.757  15.535  0.2139 -0.3552 -0.6892
 9508TIP3    H149939   6.049   3.792  15.624  1.0452  0.0630 -0.7644
 9508TIP3    H249940   5.972   3.771  15.496  0.3363  1.0116 -0.5011
 9509TIP3   OH249941   5.639   3.160  15.037  0.2448  0.1587 -0.6304
 9509TIP3    H149942   5.640   3.073  15.078 -0.4064  0.2600 -0.3783
 9509TIP3    H249943   5.652   3.221  15.110 -1.3536  0.3606 -0.4832
 9510TIP3   OH249944   0.202   1.780  13.550  0.4598 -0.2401 -0.8366
 9510TIP3    H149945   0.205   1.861  13.602 -1.5650 -1.4529  1.3374
 9510TIP3    H249946   0.292   1.746  13.553  0.5740  0.1236  1.2939
 9511TIP3   OH249947   3.989   5.845   5.575 -0.4157 -0.5346  0.3877
 9511TIP3    H149948   4.025   5.917   5.626  1.1040 -0.3364 -0.8842
 9511TIP3    H249949   3.906   5.878   5.540  0.3148  0.6498 -0.2654
 9512TIP3   OH249950   6.148   0.867   6.175 -0.0160 -0.3654 -0.0862
 9512TIP3    H149951   6.104   0.786   6.151 -1.0812  0.2508 -0.2852
 9512TIP3    H249952   6.185   0.900   6.093 -2.3568  0.9677 -0.6756
 9513TIP3   OH249953   2.693   2.325   4.147  1.2367  0.4975 -0.1296
 9513TIP3    H149954   2.728   2.281   4.070 -0.1308  0.8192 -0.9633
 9513TIP3    H249955   2.655   2.255   4.200  0.8363  0.4484 -0.4826
 9514TIP3   OH249956   6.052   6.154  13.286  0.2458 -0.1592 -0.6155
 9514TIP3    H149957   6.116   6.083  13.296 -0.6947 -1.0239 -0.4863
 9514TIP3    H249958   5.980   6.113  13.237 -0.7446  0.4265  0.3200
 9515TIP3   OH249959   3.015   1.888   2.945 -0.3361  0.3256 -0.4096
 9515TIP3    H149960   3.094   1.877   2.999 -1.0720 -0.0388  0.6384
 9515TIP3    H249961   3.025   1.823   2.875  1.3054  1.7545 -1.5814
 9516TIP3   OH249962   2.411   3.112   1.954 -0.0243  0.1089  0.3775
 9516TIP3    H149963   2.407   3.135   2.047  1.6679  1.8193  0.0930
 9516TIP3    H249964   2.358   3.180   1.911  0.4960  0.2528 -0.0338
 9517TIP3   OH249965   6.379   1.070  16.170  0.3490  0.8972 -0.1739
 9517TIP3    H149966   6.441   1.018  16.120  0.4571 -0.2914  1.1434
 9517TIP3    H249967   6.399   1.161  16.147  0.7667  0.4167 -1.8050
 9518TIP3   OH249968   0.492   0.940   1.827  0.7596  0.1500  0.2176
 9518TIP3    H149969   0.549   0.963   1.901 -0.6674  1.3922  0.9856
 9518TIP3    H249970   0.439   0.868   1.860  1.0280 -0.1890 -0.0795
 9519TIP3   OH249971   0.992   1.726  10.575 -0.1282 -0.5762  0.2102
 9519TIP3    H149972   0.949   1.664  10.517  1.0960 -0.4950 -0.8227
 9519TIP3    H249973   1.070   1.755  10.527 -0.6533  1.7717  0.6347
 9520TIP3   OH249974   0.858   2.134  12.590 -0.3728 -0.0926 -0.2013
 9520TIP3    H149975   0.924   2.134  12.659  0.1677 -1.0356 -0.7080
 9520TIP3    H249976   0.813   2.218  12.600 -0.7614 -0.4830  1.7289
 9521TIP3   OH249977   2.705   5.639  14.523 -0.7906 -0.9136  0.0992
 9521TIP3    H149978   2.728   5.617  14.433  0.6060  1.3425 -0.1810
 9521TIP3    H249979   2.629   5.584  14.543 -0.2993 -2.4439 -1.9624
 9522TIP3   OH249980   2.021   2.475   0.604 -0.4389 -0.2128 -0.1567
 9522TIP3    H149981   2.029   2.431   0.689  2.0615  0.9803  0.3148
 9522TIP3    H249982   2.036   2.567   0.622 -0.8616  0.2142 -1.7771
 9523TIP3   OH249983   4.260   0.646  14.388  0.0646 -0.1171  0.6872
 9523TIP3    H149984   4.266   0.552  14.374 -3.3058 -0.1279 -2.2486
 9523TIP3    H249985   4.194   0.656  14.456 -0.1947  0.1164  0.4041
 9524TIP3   OH249986   2.885   3.258   3.075 -0.0126  0.1709 -0.1568
 9524TIP3    H149987   2.797   3.278   3.107 -0.3203  1.1392 -1.5126
 9524TIP3    H249988   2.930   3.343   3.077  0.2002  0.1067 -1.4704
 9525TIP3   OH249989   4.196   6.305  12.683 -0.4261 -0.2035  0.6799
 9525TIP3    H149990   4.247   6.263  12.613  0.4116  0.1029  1.0934
 9525TIP3    H249991   4.191   6.239  12.752 -0.2961 -0.1150  0.7747
 9526TIP3   OH249992   4.339   4.012  14.912  0.2574  0.2569 -0.5569
 9526TIP3    H149993   4.340   3.918  14.893  2.0268  0.2642 -0.7053
 9526TIP3    H249994   4.405   4.023  14.981  0.7173  1.4897 -1.1688
 9527TIP3   OH249995   2.583   2.850  15.833  0.4772  1.1022  0.1391
 9527TIP3    H149996   2.670   2.813  15.816  0.4921  1.9099 -1.8285
 9527TIP3    H249997   2.532   2.777  15.870  1.0910 -0.3129 -1.6562
 9528TIP3   OH249998   6.275   1.705   1.821  0.7737  0.1833 -0.2421
 9528TIP3    H149999   6.340   1.648   1.780 -0.0727  0.1130 -1.5450
 9528TIP3    H250000   6.230   1.747   1.747 -1.0833 -0.2537  0.5946
 9529TIP3   OH250001   4.138   5.015  14.784 -0.4444 -0.8395  0.2073
 9529TIP3    H150002   4.151   4.966  14.703 -0.7311  2.2583 -1.9005
 9529TIP3    H250003   4.226   5.031  14.817 -0.0593  0.6256 -1.3779
 9530TIP3   OH250004   3.912   2.585   4.674 -0.0173 -0.2941  0.2201
 9530TIP3    H150005   3.931   2.508   4.621 -0.8049  0.8703 -1.8719
 9530TIP3    H250006   3.817   2.586   4.682 -0.2650  1.5886 -1.7701
 9531TIP3   OH250007   6.205   2.733  11.536 -0.0248 -0.4280 -0.2675
 9531TIP3    H150008   6.136   2.709  11.474 -0.1689  1.5589 -0.9615
 9531TIP3    H250009   6.286   2.731  11.484 -0.3484  2.9553 -1.1602
 9532TIP3   OH250010   2.091   3.821  15.923 -0.2725  0.3446 -0.1563
 9532TIP3    H150011   2.104   3.808  16.017  2.5492  1.3769 -0.3262
 9532TIP3    H250012   2.059   3.911  15.914  0.0692  0.4636 -0.2048
 9533TIP3   OH250013   5.136   2.397  13.992 -0.4639  0.0436 -0.0665
 9533TIP3    H150014   5.138   2.385  13.897  1.2805  2.0696 -0.3503
 9533TIP3    H250015   5.135   2.307  14.027  1.9941 -0.8583 -2.0064
 9534TIP3   OH250016   5.269   6.340   1.637 -0.4479  0.0358  0.3833
 9534TIP3    H150017   5.303   6.256   1.668  0.7851  0.3580 -0.0154
 9534TIP3    H250018   5.255   6.392   1.716 -0.8763 -0.4221  0.6078
 9535TIP3   OH250019   4.934   3.861   3.555  0.4107 -0.4808  0.3344
 9535TIP3    H150020   4.854   3.889   3.601 -0.1343  0.7057 -1.2627
 9535TIP3    H250021   4.928   3.765   3.555  0.0169 -0.4959  1.9660
 9536TIP3   OH250022   6.191   4.151   6.041  0.4879 -0.0223  0.2269
 9536TIP3    H150023   6.208   4.086   5.973 -1.1191 -1.4191  1.0705
 9536TIP3    H250024   6.106   4.187   6.020  0.1211 -0.2305  1.2799
 9537TIP3   OH250025   1.657   3.158  16.086  0.3434 -0.3340 -0.4268
 9537TIP3    H150026   1.620   3.073  16.108  0.4505 -0.1045  0.7015
 9537TIP3    H250027   1.654   3.162  15.991  0.1942 -1.5358 -0.4830
 9538TIP3   OH250028   5.783   2.841  15.655  0.5351 -0.3369  0.2220
 9538TIP3    H150029   5.759   2.761  15.609  1.1143  0.3134 -1.2742
 9538TIP3    H250030   5.808   2.902  15.586 -0.9748  1.5287  1.1986
 9539TIP3   OH250031   5.691   6.679   4.233 -0.0172  0.0413 -0.5906
 9539TIP3    H150032   5.601   6.665   4.262  0.9112 -0.1125  2.6614
 9539TIP3    H250033   5.744   6.651   4.307  2.7316  0.4111 -2.2798
 9540TIP3   OH250034   1.881   3.484  12.521 -0.2139 -0.2419  0.3562
 9540TIP3    H150035   1.859   3.460  12.611 -1.6327 -0.5174 -0.0407
 9540TIP3    H250036   1.797   3.500  12.479  0.4923  2.0828 -0.3585
 9541TIP3   OH250037   1.690   4.914  13.719  0.2306  0.1002  0.0859
 9541TIP3    H150038   1.693   4.967  13.639 -0.5508 -0.0968 -0.0796
 9541TIP3    H250039   1.601   4.880  13.722  0.3934 -0.2798  0.7971
 9542TIP3   OH250040   2.741   5.158   2.595  0.9802  0.4786 -0.4383
 9542TIP3    H150041   2.761   5.065   2.584 -0.6429 -0.1744  1.6694
 9542TIP3    H250042   2.655   5.170   2.554  0.8045  0.8637  0.0269
 9543TIP3   OH250043   3.833   0.124   2.440 -0.3491 -0.0537 -0.0600
 9543TIP3    H150044   3.786   0.116   2.357  0.3921 -1.9150 -0.3571
 9543TIP3    H250045   3.773   0.172   2.497 -1.7913 -0.6241 -1.0333
 9544TIP3   OH250046   2.655   5.110   0.200 -0.4122  1.0263 -0.5635
 9544TIP3    H150047   2.714   5.059   0.144 -0.8464 -0.4973  0.3327
 9544TIP3    H250048   2.615   5.046   0.259 -2.5382  2.0720 -0.7403
 9545TIP3   OH250049   3.719   4.359   2.248  0.5282  0.3603 -0.6524
 9545TIP3    H150050   3.711   4.419   2.173 -1.8978 -1.6487 -2.1609
 9545TIP3    H250051   3.668   4.282   2.222  1.3108 -1.2802  2.2831
 9546TIP3   OH250052   3.864   5.383  12.401 -0.3876  0.3189  0.1944
 9546TIP3    H150053   3.823   5.366  12.316 -2.3659 -0.0230  1.1595
 9546TIP3    H250054   3.793   5.416  12.455  1.4159  3.2070  0.9875
 9547TIP3   OH250055   0.229   2.276  16.889 -0.3074  0.3782 -0.0394
 9547TIP3    H150056   0.143   2.244  16.863 -0.7071  0.2059  1.3712
 9547TIP3    H250057   0.249   2.228  16.969  0.2534  1.7314  0.6755
 9548TIP3   OH250058   2.524   2.103   4.213  0.5078  0.0768  0.4338
 9548TIP3    H150059   2.438   2.090   4.174  0.7714 -0.3584 -0.0300
 9548TIP3    H250060   2.576   2.030   4.179  0.9114  0.0366  1.1328
 9549TIP3   OH250061   6.388   5.145  12.978 -0.3758  0.4162  0.3079
 9549TIP3    H150062   6.454   5.079  13.001 -0.3886  0.5400  0.7160
 9549TIP3    H250063   6.407   5.169  12.888 -0.1320  0.1329  0.2852
 9550TIP3   OH250064   5.968   6.447   6.190  0.2432  0.8656  0.2682
 9550TIP3    H150065   6.024   6.444   6.112 -0.1366  2.3840 -0.1000
 9550TIP3    H250066   5.971   6.358   6.225 -0.5597 -0.2012 -2.1543
 9551TIP3   OH250067   2.300   4.839   4.376 -0.1202  0.4610  0.3960
 9551TIP3    H150068   2.343   4.765   4.333 -0.1532  0.1326  0.9190
 9551TIP3    H250069   2.353   4.915   4.353  0.1015  0.2272  0.1278
 9552TIP3   OH250070   4.800   5.159  13.165 -0.0339  0.0998 -0.0808
 9552TIP3    H150071   4.715   5.201  13.150  0.3872  0.8167 -0.5161
 9552TIP3    H250072   4.797   5.079  13.111 -0.2645  0.3481 -0.4436
 9553TIP3   OH250073   6.442   1.118   4.778 -0.0155 -0.0940  0.6657
 9553TIP3    H150074   6.389   1.186   4.820  0.8966  0.9187  0.2388
 9553TIP3    H250075   6.519   1.165   4.745  0.9186 -1.4406  0.8511
 9554TIP3   OH250076   1.316   0.095  13.620 -0.0478  0.2018  0.1547
 9554TIP3    H150077   1.300   0.002  13.602  1.3545 -0.0799  0.2486
 9554TIP3    H250078   1.291   0.140  13.539 -0.9239 -0.2237  0.1762
 9555TIP3   OH250079   3.117   4.587   2.611  1.0372  0.4661 -0.3437
 9555TIP3    H150080   3.114   4.498   2.577 -1.8197  0.1788  0.4311
 9555TIP3    H250081   3.028   4.621   2.600  1.5053  2.4743  1.2901
 9556TIP3   OH250082   5.493   6.241   0.088 -0.2437  0.4650 -0.0126
 9556TIP3    H150083   5.509   6.327   0.127  0.0378 -0.4194  1.9673
 9556TIP3    H250084   5.402   6.245   0.059 -0.1290  1.5382 -0.2941
 9557TIP3   OH250085   6.418   1.361   2.493 -0.0451  0.4736  0.3263
 9557TIP3    H150086   6.328   1.330   2.493 -0.0824  0.5210  1.8274
 9557TIP3    H250087   6.436   1.383   2.401 -0.9770 -1.1489 -0.2688
 9558TIP3   OH250088   1.335   1.314   5.946 -0.0144 -0.5153 -0.0407
 9558TIP3    H150089   1.411   1.340   5.999 -0.4119 -0.9854  0.7853
 9558TIP3    H250090   1.353   1.349   5.859  1.1034 -0.5236  0.1715
 9559TIP3   OH250091   6.032   5.946   4.075  0.0235  0.0227 -0.2816
 9559TIP3    H150092   6.111   5.902   4.105  0.4699 -0.7973 -2.4904
 9559TIP3    H250093   6.037   6.034   4.113  0.5375 -0.8943  1.8995
 9560TIP3   OH250094   4.381   0.795   2.896  0.4934 -0.0019  0.2451
 9560TIP3    H150095   4.475   0.801   2.915  1.1704 -2.5438 -1.6469
 9560TIP3    H250096   4.376   0.796   2.800 -1.6951  2.2127  0.2711
 9561TIP3   OH250097   3.731   2.718  15.885 -0.1740  0.2632  0.5435
 9561TIP3    H150098   3.681   2.786  15.841 -1.3380 -0.8269  0.1228
 9561TIP3    H250099   3.674   2.690  15.957  1.1227  1.0706  1.9582
 9562TIP3   OH250100   2.560   4.292   5.811 -0.3746  0.0627 -0.2399
 9562TIP3    H150101   2.507   4.236   5.754 -0.2084 -0.0892 -0.2449
 9562TIP3    H250102   2.637   4.239   5.832 -1.2678 -0.6175  1.6027
 9563TIP3   OH250103   6.594   0.206  12.219  0.2009  0.4991  0.9940
 9563TIP3    H150104   6.592   0.292  12.178  0.7690  0.5698  1.1062
 9563TIP3    H250105   6.657   0.156  12.167 -1.1282 -0.2881  0.0855
 9564TIP3   OH250106   2.267   4.978  13.923 -0.5436  0.3463 -0.2373
 9564TIP3    H150107   2.356   4.998  13.896 -0.4953 -0.6657 -0.8969
 9564TIP3    H250108   2.224   5.063  13.931  0.2822  0.8068 -0.6180
 9565TIP3   OH250109   5.975   5.703  16.132  0.0229 -0.1531  0.2218
 9565TIP3    H150110   5.972   5.715  16.037  0.0074 -0.1664  0.2210
 9565TIP3    H250111   6.014   5.616  16.144  0.6841  0.1396  0.2407
 9566TIP3   OH250112   4.720   1.233  17.441 -0.0649  0.2587 -0.2776
 9566TIP3    H150113   4.738   1.228  17.347  0.1533 -0.5771 -0.2003
 9566TIP3    H250114   4.769   1.159  17.479  1.1777  1.5279  0.7104
 9567TIP3   OH250115   0.096   0.892  12.258  0.2726  0.2894  0.1990
 9567TIP3    H150116   0.180   0.924  12.225 -0.5150  1.4409 -0.7864
 9567TIP3    H250117   0.119   0.824  12.321  1.9441  0.6946  0.0699
 9568TIP3   OH250118   2.083   5.786  13.096  0.0431 -0.0383 -0.2218
 9568TIP3    H150119   2.036   5.867  13.078  0.2272  0.1805  0.2809
 9568TIP3    H250120   2.147   5.779  13.025  0.9838  0.9865  0.4894
 9569TIP3   OH250121   1.301   1.867  17.231 -0.1548 -0.3070  0.3208
 9569TIP3    H150122   1.328   1.865  17.139 -0.1637  0.2494  0.3032
 9569TIP3    H250123   1.286   1.775  17.254  3.1855 -0.8639  0.7610
 9570TIP3   OH250124   0.112   2.023  12.191 -0.2505 -0.1310 -0.9601
 9570TIP3    H150125   0.158   2.107  12.182 -1.1606  0.8591  2.0990
 9570TIP3    H250126   0.166   1.960  12.144  4.1827  1.0046  1.9376
 9571TIP3   OH250127   6.561   4.266  14.346  0.1526  0.1910  0.7105
 9571TIP3    H150128   6.540   4.233  14.434 -0.5519 -1.5822 -0.0777
 9571TIP3    H250129   6.478   4.300  14.313  0.2531  0.1831  0.4482
 9572TIP3   OH250130   0.547   6.052   2.258 -0.2439  0.2662  0.4397
 9572TIP3    H150131   0.524   6.007   2.340 -0.9414 -0.8926 -0.3500
 9572TIP3    H250132   0.479   6.119   2.247 -1.7225 -1.2817 -0.4477
 9573TIP3   OH250133   4.689   1.515  13.317 -0.6588  0.2128 -0.1331
 9573TIP3    H150134   4.674   1.576  13.245 -0.0818  0.3890 -0.1106
 9573TIP3    H250135   4.603   1.502  13.356 -0.6133  2.0098  0.6573
 9574TIP3   OH250136   2.186   2.060  13.073  0.0151 -0.1433  0.0132
 9574TIP3    H150137   2.205   2.148  13.106  0.5956  0.0843 -0.8741
 9574TIP3    H250138   2.269   2.012  13.082  0.0553 -0.2167 -0.6387
 9575TIP3   OH250139   0.743   6.106  11.509  0.0231 -0.5422  0.0505
 9575TIP3    H150140   0.712   6.078  11.423 -2.3880  0.0861  0.6455
 9575TIP3    H250141   0.757   6.200  11.500  1.9819 -0.8181 -0.2240
 9576TIP3   OH250142   1.273   0.401   4.452  0.0459  0.0702  0.2238
 9576TIP3    H150143   1.269   0.316   4.496  1.1841  0.1163  0.4388
 9576TIP3    H250144   1.259   0.381   4.360  1.2272 -0.4820  0.1459
 9577TIP3   OH250145   4.483   1.038  11.455  0.4391  0.7759  0.2609
 9577TIP3    H150146   4.558   0.984  11.431 -0.6064 -0.3323 -0.6398
 9577TIP3    H250147   4.455   1.078  11.373  0.3867  1.6308  0.6897
 9578TIP3   OH250148   2.592   5.899   1.965 -0.3497  0.1691 -0.2235
 9578TIP3    H150149   2.524   5.961   1.992  2.3817  3.4314 -0.1130
 9578TIP3    H250150   2.604   5.842   2.041 -1.3593  1.0297  0.6171
 9579TIP3   OH250151   0.985   3.103  12.714 -0.5049 -0.5657 -0.1897
 9579TIP3    H150152   1.062   3.057  12.747 -0.6881 -0.3584  0.5577
 9579TIP3    H250153   1.021   3.166  12.651  0.2134  0.9050  1.5704
 9580TIP3   OH250154   0.220   5.182  15.936 -0.1672 -0.0104 -0.0749
 9580TIP3    H150155   0.303   5.191  15.982 -0.0550 -4.0382  0.9022
 9580TIP3    H250156   0.227   5.100  15.887 -2.4088  1.2123 -2.7453
 9581TIP3   OH250157   4.153   5.462  15.543  0.6112  0.2049 -0.1381
 9581TIP3    H150158   4.126   5.374  15.570  1.1823 -0.3429 -1.2982
 9581TIP3    H250159   4.203   5.495  15.618 -1.1874  0.3140  1.0779
 9582TIP3   OH250160   3.356   1.469  11.708  0.3346  1.3256  0.0200
 9582TIP3    H150161   3.324   1.489  11.619  2.3825  1.9294 -0.6328
 9582TIP3    H250162   3.344   1.551  11.756 -0.8108  0.9877  0.3303
 9583TIP3   OH250163   4.703   4.897  16.948 -0.0696  0.5493  0.1020
 9583TIP3    H150164   4.771   4.830  16.940 -1.1103 -0.9053  2.3811
 9583TIP3    H250165   4.751   4.979  16.948  1.7345 -0.4196  1.3527
 9584TIP3   OH250166   5.311   4.595   1.852  0.2300 -0.0829 -0.1614
 9584TIP3    H150167   5.394   4.561   1.820  1.0261  1.1319  0.5455
 9584TIP3    H250168   5.283   4.531   1.918  0.6050 -0.4852 -0.3862
 9585TIP3   OH250169   1.573   1.497  10.920 -0.3041 -0.5472 -0.5918
 9585TIP3    H150170   1.579   1.407  10.952  1.3306  0.1715  1.3901
 9585TIP3    H250171   1.491   1.530  10.958 -0.8615 -1.1591 -1.2489
 9586TIP3   OH250172   4.223   0.211  12.270 -1.0888  0.1276 -0.0600
 9586TIP3    H150173   4.196   0.300  12.248 -2.4073 -0.2188  0.0609
 9586TIP3    H250174   4.305   0.222  12.318 -0.2873  1.1496 -1.5702
 9587TIP3   OH250175   3.903   0.223  17.001  0.5748  0.0656 -0.2760
 9587TIP3    H150176   3.851   0.265  16.932 -1.0796  0.7824  1.3377
 9587TIP3    H250177   3.951   0.296  17.042  0.9164 -0.2334 -0.1415
 9588TIP3   OH250178   1.773   5.376   5.091  0.2907 -0.2097 -0.0522
 9588TIP3    H150179   1.822   5.296   5.112 -0.3058 -0.3257  0.9794
 9588TIP3    H250180   1.748   5.365   5.000 -0.9194 -1.8597  0.4198
 9589TIP3   OH250181   0.798   1.281  16.386  0.2248 -0.5034 -0.3866
 9589TIP3    H150182   0.880   1.332  16.384 -0.5030  0.6873 -0.5713
 9589TIP3    H250183   0.747   1.314  16.312  0.1419 -2.2496 -1.1552
 9590TIP3   OH250184   2.288   1.075   4.726 -0.3738 -0.6029  0.5931
 9590TIP3    H150185   2.362   1.042   4.675  0.2016  2.3804 -0.7803
 9590TIP3    H250186   2.329   1.124   4.798 -1.0449 -0.3706  0.8225
 9591TIP3   OH250187   5.724   2.955  16.723  0.8854 -0.2126 -0.5051
 9591TIP3    H150188   5.699   3.007  16.647 -1.1555 -2.3678 -1.4699
 9591TIP3    H250189   5.693   3.005  16.798  0.1511  0.5758 -1.3120
 9592TIP3   OH250190   4.116   1.578  14.562 -0.2134  0.3128  0.3026
 9592TIP3    H150191   4.149   1.519  14.630 -0.1354 -1.7433 -1.4437
 9592TIP3    H250192   4.118   1.527  14.482 -2.4484  1.9155 -0.8909
 9593TIP3   OH250193   0.849   1.050  17.071  0.0051 -0.4301  0.3675
 9593TIP3    H150194   0.904   0.980  17.035  1.2757 -0.1134  1.5750
 9593TIP3    H250195   0.759   1.023  17.052  0.5532 -0.1994 -3.0760
 9594TIP3   OH250196   0.286   6.079  12.264 -0.1354 -0.1534 -0.4017
 9594TIP3    H150197   0.334   6.110  12.186  0.1715  2.3896  0.7163
 9594TIP3    H250198   0.220   6.146  12.280 -0.2208 -0.6461  1.5014
 9595TIP3   OH250199   2.372   0.577  15.418  0.2021 -0.0124 -0.0406
 9595TIP3    H150200   2.285   0.558  15.382 -0.1557 -0.5589  1.0836
 9595TIP3    H250201   2.416   0.626  15.348 -0.7391 -0.3742 -0.9176
 9596TIP3   OH250202   1.464   4.657  11.897 -0.2701 -0.3754  0.2200
 9596TIP3    H150203   1.409   4.587  11.860  0.8720 -0.9396 -0.4444
 9596TIP3    H250204   1.532   4.610  11.946 -0.9779  0.3318  1.9655
 9597TIP3   OH250205   4.064   3.622   1.211 -0.0753  0.2050 -0.3708
 9597TIP3    H150206   4.136   3.640   1.151  0.8673 -0.1837  0.6019
 9597TIP3    H250207   4.099   3.647   1.297 -1.5911  1.3112 -0.0349
 9598TIP3   OH250208   5.925   0.992  15.110  0.6328 -0.1684  0.6197
 9598TIP3    H150209   5.977   1.068  15.137 -0.0911  0.5486  0.0199
 9598TIP3    H250210   5.933   0.931  15.184  0.5661  0.8125  1.4618
 9599TIP3   OH250211   3.761   1.049   5.456 -0.1767 -0.5390  0.1693
 9599TIP3    H150212   3.843   1.000   5.464  1.2582  1.7811  0.4385
 9599TIP3    H250213   3.700   1.003   5.514  0.8530 -2.3974 -0.1378
 9600TIP3   OH250214   4.474   4.265   2.086 -0.0740 -0.1718 -0.5554
 9600TIP3    H150215   4.440   4.297   2.002  1.7536 -1.1294 -1.7293
 9600TIP3    H250216   4.434   4.178   2.096  1.2603 -0.9353 -1.5118
 9601TIP3   OH250217   4.605   5.759   3.894  0.0990 -0.5431  0.0587
 9601TIP3    H150218   4.688   5.793   3.859 -0.0965 -2.2736 -2.3885
 9601TIP3    H250219   4.629   5.717   3.976  1.1473  1.2394  0.7238
 9602TIP3   OH250220   3.199   3.746  13.125 -0.0366 -0.5885 -0.3406
 9602TIP3    H150221   3.209   3.840  13.115 -2.3558 -0.4261 -1.8764
 9602TIP3    H250222   3.259   3.708  13.061  1.3640 -0.2258  0.7124
 9603TIP3   OH250223   0.208   2.847  14.836  0.6186  0.7525 -0.2832
 9603TIP3    H150224   0.138   2.882  14.782 -0.8576 -1.2128  0.2234
 9603TIP3    H250225   0.247   2.778  14.783 -0.0860 -0.4170  0.6561
 9604TIP3   OH250226   2.758   0.089   0.206 -0.3015 -0.0441  0.4320
 9604TIP3    H150227   2.846   0.059   0.229 -0.4079 -0.6013  0.1144
 9604TIP3    H250228   2.754   0.178   0.241 -0.3930 -0.7812  2.4434
 9605TIP3   OH250229   1.592   1.460  16.729 -0.1573  0.2719 -0.3499
 9605TIP3    H150230   1.627   1.468  16.640 -1.0261 -0.4833 -0.7727
 9605TIP3    H250231   1.533   1.385  16.725  1.2802 -1.0273  1.3724
 9606TIP3   OH250232   2.963   4.041  17.403 -0.3351  0.1342 -0.0478
 9606TIP3    H150233   2.981   4.128  17.438 -0.4555  0.7751 -1.4962
 9606TIP3    H250234   3.010   4.039  17.319  1.2678 -1.9143  0.8101
 9607TIP3   OH250235   4.244   3.200  14.700  0.2182  1.0496 -0.2133
 9607TIP3    H150236   4.173   3.199  14.764  1.0648  2.3879  0.8018
 9607TIP3    H250237   4.199   3.211  14.616 -0.9034 -0.6478  0.1185
 9608TIP3   OH250238   3.446   1.333  12.705 -0.2395  0.8443  0.2537
 9608TIP3    H150239   3.391   1.271  12.753  1.6996 -2.5038 -1.4433
 9608TIP3    H250240   3.531   1.327  12.748  0.6569  0.2669 -1.5042
 9609TIP3   OH250241   1.389   3.791  14.332 -0.1972  0.2004 -0.0309
 9609TIP3    H150242   1.318   3.726  14.332 -0.3263  0.3428  0.8747
 9609TIP3    H250243   1.346   3.873  14.308 -0.1746  0.1181 -0.3660
 9610TIP3   OH250244   4.196   4.528   5.907 -0.1740 -0.1216 -0.2866
 9610TIP3    H150245   4.273   4.475   5.886  2.6243  3.0012  1.1924
 9610TIP3    H250246   4.209   4.555   5.998 -1.2716  3.1522 -0.9678
 9611TIP3   OH250247   0.999   1.721  11.350 -0.3178 -0.2582  0.1995
 9611TIP3    H150248   0.948   1.640  11.361 -0.2609 -0.1610  1.2907
 9611TIP3    H250249   1.005   1.757  11.438  0.0811  0.6890 -0.2051
 9612TIP3   OH250250   5.052   5.349  13.081  0.8081  0.9764 -0.0648
 9612TIP3    H150251   5.099   5.384  13.156  1.1814 -2.4094  1.4659
 9612TIP3    H250252   4.991   5.285  13.118  0.3886 -0.2243 -2.5839
 9613TIP3   OH250253   0.971   6.318  16.002 -0.5737 -0.6304 -0.0928
 9613TIP3    H150254   0.931   6.399  15.970 -2.0194 -0.5366  1.7544
 9613TIP3    H250255   1.002   6.274  15.924  0.5346  1.8333 -1.1515
 9614TIP3   OH250256   3.461   4.077   5.260  0.1657  0.3812  0.2320
 9614TIP3    H150257   3.389   4.015   5.250 -0.4494  1.3851 -2.7319
 9614TIP3    H250258   3.427   4.145   5.318 -0.3597 -0.3550  0.8081
 9615TIP3   OH250259   3.588   0.555   4.029  0.5748  0.6120  0.5857
 9615TIP3    H150260   3.605   0.628   3.969  2.2928  1.5598  2.0990
 9615TIP3    H250261   3.656   0.564   4.097  0.9185 -2.4597  0.7888
 9616TIP3   OH250262   0.142   3.424  14.663 -0.3772  0.2316 -0.0383
 9616TIP3    H150263   0.192   3.343  14.651 -1.4456 -0.7281  1.4907
 9616TIP3    H250264   0.099   3.413  14.748 -0.7925  2.3015  0.0794
 9617TIP3   OH250265   2.394   4.124   6.456 -0.1905 -0.1294 -0.0630
 9617TIP3    H150266   2.373   4.090   6.543  0.9702 -0.9601 -0.0740
 9617TIP3    H250267   2.366   4.054   6.396 -1.6979  0.7579 -0.4467
 9618TIP3   OH250268   1.716   0.261   6.342  0.6635 -0.1171  0.1142
 9618TIP3    H150269   1.626   0.292   6.334  0.6258 -0.3226 -0.2759
 9618TIP3    H250270   1.769   0.332   6.305  0.7855  0.6751  1.7207
 9619TIP3   OH250271   2.179   4.652   2.488  0.0209 -0.4025  0.5202
 9619TIP3    H150272   2.195   4.746   2.492 -1.9744 -0.0463  1.9016
 9619TIP3    H250273   2.093   4.644   2.446  0.7928 -1.7504 -0.9464
 9620TIP3   OH250274   5.478   1.211  12.298  0.2392  0.1875 -0.3127
 9620TIP3    H150275   5.399   1.163  12.275  0.6453 -0.5083 -0.2704
 9620TIP3    H250276   5.496   1.266  12.222  0.2122 -0.3142 -0.6847
 9621TIP3   OH250277   0.785   3.168   2.915 -0.2779  0.5764  0.4744
 9621TIP3    H150278   0.777   3.151   2.821 -0.7605  0.2221  0.5762
 9621TIP3    H250279   0.724   3.240   2.931 -0.0590  0.7599  0.4848
 9622TIP3   OH250280   5.232   0.284  15.020  0.0554  0.4171 -0.1994
 9622TIP3    H150281   5.317   0.276  15.062  0.0479 -1.2626 -0.4295
 9622TIP3    H250282   5.250   0.329  14.938  0.8678 -0.5401 -0.5707
 9623TIP3   OH250283   2.652   1.484  12.789  0.1980 -0.1974 -0.2365
 9623TIP3    H150284   2.724   1.427  12.816  0.3200  0.4607  0.8574
 9623TIP3    H250285   2.674   1.569  12.826  0.9387  1.0909 -3.2559
 9624TIP3   OH250286   6.118   3.083   0.699  0.0541  0.3316 -0.0106
 9624TIP3    H150287   6.165   3.118   0.775  1.6577 -0.8870 -0.4076
 9624TIP3    H250288   6.026   3.092   0.723  0.5021 -0.1137  2.1470
 9625TIP3   OH250289   2.507   0.919   3.060  0.2224 -0.2868  0.1921
 9625TIP3    H150290   2.595   0.905   3.025 -0.4623 -1.3189 -1.2004
 9625TIP3    H250291   2.507   0.875   3.145  1.1409  0.0198  0.3626
 9626TIP3   OH250292   4.896   3.821   2.192 -0.2365 -0.3962 -0.5149
 9626TIP3    H150293   4.843   3.794   2.267  0.1472  0.0300 -0.0852
 9626TIP3    H250294   4.921   3.911   2.211  1.1514 -0.7813 -0.4182
 9627TIP3   OH250295   1.318   2.685   1.369  0.4194  0.5939 -0.3036
 9627TIP3    H150296   1.343   2.770   1.404  0.9821  0.6434 -0.8008
 9627TIP3    H250297   1.366   2.622   1.422  1.0718  0.6575 -0.7985
 9628TIP3   OH250298   2.418   3.994  13.236  0.4047 -0.2201  0.5052
 9628TIP3    H150299   2.437   4.049  13.312  0.0609  1.0642 -0.3105
 9628TIP3    H250300   2.411   4.055  13.163  1.1534 -1.4629 -0.6581
 9629TIP3   OH250301   5.357   0.371   0.347  0.4930 -0.1096 -0.8980
 9629TIP3    H150302   5.335   0.290   0.393 -0.3197  0.8014  0.4190
 9629TIP3    H250303   5.450   0.362   0.325  1.0551 -0.4464  1.3566
 9630TIP3   OH250304   5.725   2.875  11.034  0.4993 -0.0940  0.6582
 9630TIP3    H150305   5.690   2.826  10.959  1.9128  1.1656 -0.9352
 9630TIP3    H250306   5.670   2.953  11.039  0.5360 -0.0777  0.8016
 9631TIP3   OH250307   1.852   6.314   0.423 -0.1172 -0.0637  0.3021
 9631TIP3    H150308   1.875   6.256   0.350  1.3093 -0.1510  0.8026
 9631TIP3    H250309   1.934   6.354   0.449 -1.0009  1.8016  0.3347
 9632TIP3   OH250310   6.427   2.205  12.648 -0.7017 -0.4854 -0.1925
 9632TIP3    H150311   6.362   2.154  12.696 -1.1541 -0.3454 -0.6414
 9632TIP3    H250312   6.398   2.296  12.657 -0.1516 -0.3440  0.2262
 9633TIP3   OH250313   0.411   2.027   0.752  0.1127 -0.7913  0.4040
 9633TIP3    H150314   0.494   2.022   0.799 -0.0131  0.1934  0.7542
 9633TIP3    H250315   0.434   2.063   0.666 -0.0127  0.0230  0.7015
 9634TIP3   OH250316   4.763   5.603   3.546 -0.0140 -0.4665  0.6634
 9634TIP3    H150317   4.740   5.679   3.493 -2.8349 -2.1346 -0.7695
 9634TIP3    H250318   4.680   5.575   3.585  0.9799 -2.5500  1.4392
 9635TIP3   OH250319   5.795   5.115   2.911  0.1006  0.3364 -0.0093
 9635TIP3    H150320   5.710   5.082   2.940  0.2149  0.0361 -0.0114
 9635TIP3    H250321   5.829   5.164   2.986 -0.6729  1.6278 -0.4655
 9636TIP3   OH250322   1.345   1.058  15.885  0.6527 -0.0129  0.1486
 9636TIP3    H150323   1.289   1.102  15.820 -0.7506 -0.6661  0.8685
 9636TIP3    H250324   1.400   1.128  15.920  0.1788  0.6885 -0.4655
 9637TIP3   OH250325   2.698   1.212  17.180 -0.1864 -0.2677  0.2221
 9637TIP3    H150326   2.629   1.164  17.134  1.0014 -1.5181 -0.3236
 9637TIP3    H250327   2.741   1.146  17.235 -1.6172  1.1564  3.3444
 9638TIP3   OH250328   5.262   5.430  15.513  0.0049  0.0862 -0.5613
 9638TIP3    H150329   5.256   5.400  15.423  0.7826  1.1831 -0.9915
 9638TIP3    H250330   5.331   5.376  15.551 -0.9913 -1.0631 -0.3111
 9639TIP3   OH250331   2.240   5.702  16.135  0.0570 -0.0835  0.3911
 9639TIP3    H150332   2.207   5.673  16.220  0.9914  0.1580  0.8471
 9639TIP3    H250333   2.226   5.627  16.077  1.9781 -1.3382  1.4404
 9640TIP3   OH250334   0.612   1.005   2.863  0.1447  0.3596  0.0841
 9640TIP3    H150335   0.687   0.957   2.826 -0.6664  0.2519 -1.5256
 9640TIP3    H250336   0.551   0.937   2.889  0.4217  0.4599  1.0417
 9641TIP3   OH250337   2.808   4.996  12.115  0.0802 -0.0238  0.1499
 9641TIP3    H150338   2.715   5.007  12.133 -0.1575 -1.5742  0.0006
 9641TIP3    H250339   2.813   4.978  12.021  0.3477 -1.4960  0.4180
 9642TIP3   OH250340   2.545   0.567   4.702 -0.3012 -0.1922 -0.1970
 9642TIP3    H150341   2.541   0.471   4.704 -1.5827 -0.1778 -1.1593
 9642TIP3    H250342   2.639   0.587   4.699 -0.0258 -1.4210 -0.1849
 9643TIP3   OH250343   6.401   4.269   3.330 -0.5019  0.7477  0.0181
 9643TIP3    H150344   6.403   4.174   3.339  0.3581  0.9157  2.1294
 9643TIP3    H250345   6.373   4.284   3.239  3.0988 -1.5508 -1.7286
 9644TIP3   OH250346   5.150   2.030  15.677 -0.3189 -0.4807 -0.1856
 9644TIP3    H150347   5.232   1.991  15.708  0.5076  1.0866 -0.3084
 9644TIP3    H250348   5.085   2.005  15.744  0.6092 -0.3760  0.7880
 9645TIP3   OH250349   1.544   5.195   0.791 -0.3163 -0.0534 -0.0710
 9645TIP3    H150350   1.548   5.256   0.718 -1.3818 -0.4866 -0.5141
 9645TIP3    H250351   1.511   5.114   0.752  0.7216 -0.7965  0.5754
 9646TIP3   OH250352   6.214   1.928  11.219  0.1627  0.0183  0.1817
 9646TIP3    H150353   6.225   1.833  11.224 -1.5250 -0.1460  2.2954
 9646TIP3    H250354   6.225   1.958  11.309 -0.6395  1.6477 -0.2233
 9647TIP3   OH250355   1.923   1.306   0.670  0.1288  0.4120 -0.4880
 9647TIP3    H150356   2.013   1.326   0.647  0.1245  0.4348 -0.4857
 9647TIP3    H250357   1.876   1.304   0.586 -0.3678  2.9175 -0.3451
 9648TIP3   OH250358   1.748   2.404   2.901  0.0325 -0.3301 -0.4834
 9648TIP3    H150359   1.664   2.370   2.933 -0.1242 -1.8881 -2.3627
 9648TIP3    H250360   1.724   2.460   2.827  0.5895  0.2640 -0.2177
 9649TIP3   OH250361   1.626   0.567  12.453  0.5999 -0.3478 -0.3743
 9649TIP3    H150362   1.553   0.528  12.502  3.3804 -1.8641  3.0768
 9649TIP3    H250363   1.618   0.661  12.469 -1.7497 -0.1915 -2.0119
 9650TIP3   OH250364   4.128   1.626  15.360 -0.1143  0.1265 -0.2576
 9650TIP3    H150365   4.116   1.531  15.360 -1.2915  0.2415 -1.5486
 9650TIP3    H250366   4.179   1.644  15.439 -2.1927 -1.2844  1.5082
 9651TIP3   OH250367   1.827   6.375  15.223 -0.1765 -0.0444  0.4242
 9651TIP3    H150368   1.824   6.309  15.154 -1.0033  0.3413  0.0819
 9651TIP3    H250369   1.890   6.341  15.286 -1.0005 -1.4396  0.5331
 9652TIP3   OH250370   3.607   0.840   0.577  0.5597 -0.6293 -0.1331
 9652TIP3    H150371   3.633   0.865   0.489 -1.8999  1.7084 -0.3282
 9652TIP3    H250372   3.564   0.755   0.566  1.6114 -1.0848 -0.8930
 9653TIP3   OH250373   2.960   5.786  17.054 -0.3238  0.3732  0.5067
 9653TIP3    H150374   3.008   5.820  17.130  3.7634  1.4570 -2.2101
 9653TIP3    H250375   2.926   5.864  17.010  1.3055  0.2747 -1.0423
 9654TIP3   OH250376   0.322   1.444  13.534 -0.0821  0.4602 -0.4135
 9654TIP3    H150377   0.358   1.357  13.549 -1.4495 -0.0187  0.2258
 9654TIP3    H250378   0.353   1.496  13.609 -0.1368  0.2476 -0.2431
 9655TIP3   OH250379   4.399   4.736  17.135  0.8268 -0.3948 -0.3355
 9655TIP3    H150380   4.469   4.760  17.196  3.7951 -1.3313 -3.1114
 9655TIP3    H250381   4.392   4.811  17.075 -0.5253 -0.3688 -0.1828
 9656TIP3   OH250382   2.167   0.522   1.891 -0.3898  0.2536 -0.0404
 9656TIP3    H150383   2.144   0.460   1.822  0.7799 -1.2582  0.8527
 9656TIP3    H250384   2.109   0.597   1.877 -0.8337 -0.4010 -2.0616
 9657TIP3   OH250385   4.736   4.553  14.065  0.5956  0.2818 -0.5298
 9657TIP3    H150386   4.749   4.460  14.082  0.8136  0.3590 -0.2630
 9657TIP3    H250387   4.641   4.563  14.060  0.6009 -0.2684 -2.3784
 9658TIP3   OH250388   4.814   3.989  17.082 -0.0489 -0.3521  0.3048
 9658TIP3    H150389   4.848   4.044  17.153 -0.2835  0.3574 -0.1242
 9658TIP3    H250390   4.777   3.913  17.127  1.5065 -0.8494  0.8361
 9659TIP3   OH250391   2.911   1.852   4.657  0.1239  0.0330 -0.1392
 9659TIP3    H150392   2.994   1.864   4.703  0.2894  0.6954 -0.5951
 9659TIP3    H250393   2.881   1.765   4.683 -0.1624  0.6674  1.8403
 9660TIP3   OH250394   3.300   6.006  15.313  0.1630 -0.3915 -0.6405
 9660TIP3    H150395   3.358   6.053  15.373 -0.3699  0.9048 -1.0994
 9660TIP3    H250396   3.346   6.008  15.229 -0.8116  1.3174 -1.1945
 9661TIP3   OH250397   1.365   5.312   5.176 -0.4982  0.1527  0.3395
 9661TIP3    H150398   1.427   5.265   5.120  0.5238  0.8378  0.8643
 9661TIP3    H250399   1.390   5.404   5.167 -1.1007  0.3874  0.9916
 9662TIP3   OH250400   5.130   3.986  11.564 -0.3623  0.0588 -0.4466
 9662TIP3    H150401   5.077   3.909  11.543  0.3206  0.0698 -2.5036
 9662TIP3    H250402   5.216   3.951  11.587 -0.3343  0.1636 -0.3908
 9663TIP3   OH250403   6.165   1.601  16.589  0.3743  0.9916 -0.6678
 9663TIP3    H150404   6.224   1.529  16.570  0.0092  0.4411  0.2527
 9663TIP3    H250405   6.179   1.663  16.517  1.2550  0.3675 -1.0447
 9664TIP3   OH250406   4.352   6.532   0.918  0.2703 -0.0933 -0.0238
 9664TIP3    H150407   4.267   6.570   0.897  0.2174  0.8887  1.7393
 9664TIP3    H250408   4.346   6.441   0.888 -1.3082  0.0278 -0.1495
 9665TIP3   OH250409   1.418   6.332  13.920  0.0498  0.2107  0.0857
 9665TIP3    H150410   1.380   6.419  13.927 -1.1055 -0.3384  1.0009
 9665TIP3    H250411   1.351   6.274  13.955  0.1738 -1.2383 -1.9135
 9666TIP3   OH250412   3.914   4.278   4.039  0.5040  0.1553 -0.5806
 9666TIP3    H150413   3.878   4.337   4.104 -0.0264 -0.3075 -0.4436
 9666TIP3    H250414   3.908   4.326   3.956  0.0706  0.2961 -0.4713
 9667TIP3   OH250415   5.256   5.489   5.038 -0.5222  0.1945  0.2673
 9667TIP3    H150416   5.198   5.498   5.115 -0.0416  0.7163  0.5753
 9667TIP3    H250417   5.227   5.558   4.979  0.9115  1.6491  1.1703
 9668TIP3   OH250418   5.625   6.502   0.528 -0.0859 -0.1543 -0.2128
 9668TIP3    H150419   5.678   6.571   0.569  0.5031 -1.4014  1.2177
 9668TIP3    H250420   5.674   6.477   0.450  0.7828 -0.4160  0.4108
 9669TIP3   OH250421   1.251   5.832  14.269 -0.4615  0.6252 -0.0313
 9669TIP3    H150422   1.295   5.917  14.275 -0.8821  0.7511  1.5343
 9669TIP3    H250423   1.259   5.809  14.176  1.7212  1.2532 -0.0705
 9670TIP3   OH250424   6.292   2.131   3.059  0.2967 -0.2821 -0.1513
 9670TIP3    H150425   6.333   2.055   3.018  0.5815  0.4332 -1.2118
 9670TIP3    H250426   6.225   2.160   2.997  1.1015  1.1453 -0.4004
 9671TIP3   OH250427   3.113   2.390  15.839 -0.7607 -0.0871 -0.3074
 9671TIP3    H150428   3.111   2.394  15.935  0.6460 -0.4941 -0.2359
 9671TIP3    H250429   3.043   2.449  15.811 -0.4081  0.9847  0.9739
 9672TIP3   OH250430   5.280   0.639   6.676 -0.1623 -0.4191  0.2780
 9672TIP3    H150431   5.314   0.550   6.684  0.6644 -0.2357 -0.9173
 9672TIP3    H250432   5.200   0.629   6.624 -1.0685 -0.6492  1.6610
 9673TIP3   OH250433   6.670   5.701   1.296 -0.0819 -0.6897 -0.3973
 9673TIP3    H150434   6.734   5.731   1.361 -0.3814  2.0958 -1.2205
 9673TIP3    H250435   6.723   5.660   1.227  0.9590  1.6430 -1.1105
 9674TIP3   OH250436   3.753   4.006  13.280  0.3292 -0.1623 -0.1266
 9674TIP3    H150437   3.667   4.031  13.248 -0.7613 -3.0019  0.2700
 9674TIP3    H250438   3.782   4.081  13.333 -1.3870  1.2814 -1.1269
 9675TIP3   OH250439   5.812   2.154   1.559 -0.0649  0.2599  0.6587
 9675TIP3    H150440   5.875   2.123   1.493 -1.7204 -0.4168 -0.6634
 9675TIP3    H250441   5.851   2.235   1.592  1.9672 -0.6316  0.6034
 9676TIP3   OH250442   1.019   2.832   2.865  0.2039 -0.1642 -0.1637
 9676TIP3    H150443   0.984   2.754   2.907  0.5970 -0.6100 -0.6528
 9676TIP3    H250444   1.063   2.800   2.787  1.9190  0.3438  0.5513
 9677TIP3   OH250445   4.104   0.084   0.156 -0.7606  0.1140  0.7640
 9677TIP3    H150446   4.024   0.034   0.173 -0.1396 -1.1510  0.0936
 9677TIP3    H250447   4.175   0.021   0.170  0.0148  0.6087 -0.7733
 9678TIP3   OH250448   0.789   4.647   0.257 -0.4839  0.1011  0.1559
 9678TIP3    H150449   0.754   4.562   0.233 -3.9057  1.0981  1.0644
 9678TIP3    H250450   0.730   4.710   0.216  0.9528  2.0140  0.8786
 9679TIP3   OH250451   1.409   2.697   0.019 -0.2389 -0.1297  0.9436
 9679TIP3    H150452   1.342   2.721   0.083 -2.2936  0.1925 -1.1943
 9679TIP3    H250453   1.442   2.781  -0.013 -1.1435 -0.2257 -0.2888
 9680TIP3   OH250454   3.542   5.214   5.487 -0.0200  0.3418  0.4778
 9680TIP3    H150455   3.563   5.188   5.576  1.9710  0.6811  0.1488
 9680TIP3    H250456   3.581   5.145   5.432 -0.4612  0.5925 -0.1692
 9681TIP3   OH250457   4.506   4.805  12.689 -0.1868  1.0358  0.4492
 9681TIP3    H150458   4.594   4.843  12.685  0.0344  0.4956  0.0722
 9681TIP3    H250459   4.519   4.712  12.670 -0.6474  0.6415  1.8633
 9682TIP3   OH250460   3.507   2.238  16.406  0.3065  0.5245  0.0968
 9682TIP3    H150461   3.457   2.261  16.485  0.4899  3.1359 -0.4460
 9682TIP3    H250462   3.512   2.142  16.408 -2.0237  0.3351  1.8098
 9683TIP3   OH250463   0.876   5.135   0.076  0.2460  0.3532  0.1800
 9683TIP3    H150464   0.967   5.145   0.049  0.0548  2.3401  0.1342
 9683TIP3    H250465   0.879   5.141   0.171  0.2174 -0.0954  0.2093
 9684TIP3   OH250466   2.107   3.038   4.840  0.0890  0.2496 -0.1278
 9684TIP3    H150467   2.062   3.017   4.921  0.2230 -0.6543 -0.2842
 9684TIP3    H250468   2.198   3.051   4.866  0.2574 -0.6872 -0.2193
 9685TIP3   OH250469   4.064   1.329  15.059  0.1785  0.4689  0.6272
 9685TIP3    H150470   4.057   1.323  14.963 -0.0950  0.3086  0.6552
 9685TIP3    H250471   3.997   1.269  15.091 -0.2051  1.0334  0.9179
 9686TIP3   OH250472   4.092   3.100  11.055 -0.9407 -0.0044  0.1153
 9686TIP3    H150473   4.172   3.070  11.013  0.0806  1.4065  0.9342
 9686TIP3    H250474   4.029   3.109  10.984 -0.2324 -0.6848 -0.6182
 9687TIP3   OH250475   2.616   1.216  13.617 -0.1391 -0.2791 -0.1858
 9687TIP3    H150476   2.615   1.293  13.674  0.8273  0.8526 -1.5984
 9687TIP3    H250477   2.530   1.218  13.574  0.0328  0.2855 -0.5252
 9688TIP3   OH250478   1.779   6.694   5.240  0.1449  0.0492 -0.8341
 9688TIP3    H150479   1.702   6.740   5.273  0.0540 -0.3544 -0.4875
 9688TIP3    H250480   1.853   6.737   5.283  0.0866  0.1522 -0.8365
 9689TIP3   OH250481   2.149   2.361   0.834  0.2421 -0.3468 -0.5137
 9689TIP3    H150482   2.190   2.307   0.902 -0.2230 -1.3273 -0.9835
 9689TIP3    H250483   2.145   2.448   0.872  0.8092 -0.6871  0.3663
 9690TIP3   OH250484   5.990   1.805  11.039 -0.2849 -0.0146 -0.2202
 9690TIP3    H150485   6.022   1.866  10.973  0.9144 -0.7277 -0.3285
 9690TIP3    H250486   5.984   1.721  10.993  0.3371 -0.4686  0.4991
 9691TIP3   OH250487   5.381   1.948   0.563  0.3520 -0.1432 -0.2962
 9691TIP3    H150488   5.331   1.967   0.642  1.9339 -2.0464  1.2710
 9691TIP3    H250489   5.371   2.026   0.509 -0.4767  1.3975  1.9398
 9692TIP3   OH250490   6.174   3.986   4.299  0.1267 -0.3961  0.0771
 9692TIP3    H150491   6.221   4.068   4.285  0.2751 -0.5584 -0.3855
 9692TIP3    H250492   6.094   3.995   4.248 -0.1199 -0.3213  0.4679
 9693TIP3   OH250493   6.030   1.713   3.709 -0.3457 -0.0382 -0.0132
 9693TIP3    H150494   5.963   1.746   3.649 -0.9940 -0.9114  0.2050
 9693TIP3    H250495   6.100   1.778   3.705  0.6130 -1.0695 -3.3349
 9694TIP3   OH250496   1.781   3.793   5.301 -0.4495  0.3587 -0.2681
 9694TIP3    H150497   1.864   3.784   5.347  1.0680 -0.2725 -2.8856
 9694TIP3    H250498   1.798   3.858   5.233 -1.6093 -0.8407 -1.7893
 9695TIP3   OH250499   3.119   1.629   2.833  0.4168 -0.2261  0.3524
 9695TIP3    H150500   3.100   1.555   2.775  0.5859 -0.5597  0.7136
 9695TIP3    H250501   3.193   1.674   2.792 -1.5008  1.4993 -1.4406
 9696TIP3   OH250502   2.443   2.975   5.699 -0.8426  0.1461  0.4472
 9696TIP3    H150503   2.492   2.909   5.748 -0.3177  0.5169  0.4303
 9696TIP3    H250504   2.448   2.945   5.608 -1.7074 -0.4727  0.5948
 9697TIP3   OH250505   5.287   1.108  11.629 -0.1602  0.0474  0.5289
 9697TIP3    H150506   5.340   1.044  11.676 -0.1376 -0.0622  0.3565
 9697TIP3    H250507   5.239   1.155  11.697 -0.1459 -0.1274  0.6595
 9698TIP3   OH250508   5.893   0.074   4.158  0.6140 -0.2197  0.1839
 9698TIP3    H150509   5.807   0.042   4.186  0.3919  0.4694  0.2999
 9698TIP3    H250510   5.884   0.169   4.154  1.6449 -0.0489  1.1402
 9699TIP3   OH250511   1.761   1.674  13.259  0.5600  0.0404  0.1777
 9699TIP3    H150512   1.794   1.699  13.346  1.6461 -1.0591  0.0939
 9699TIP3    H250513   1.839   1.653  13.209  0.0794  2.1441 -1.5895
 9700TIP3   OH250514   5.341   4.670  16.380 -0.0573 -0.0490 -0.1898
 9700TIP3    H150515   5.301   4.640  16.462  0.7139  1.4083  0.7888
 9700TIP3    H250516   5.435   4.669  16.398  0.0786  1.0708 -0.7463
 9701TIP3   OH250517   4.826   3.405  14.807  0.0068 -0.1115 -0.2252
 9701TIP3    H150518   4.911   3.378  14.772 -0.4285 -0.7918 -0.7944
 9701TIP3    H250519   4.781   3.446  14.733 -0.5125 -0.5920 -0.1872
 9702TIP3   OH250520   0.370   6.751  15.097  0.2931  0.6762 -0.0394
 9702TIP3    H150521   0.442   6.776  15.039 -0.8596 -0.3053 -2.0462
 9702TIP3    H250522   0.296   6.737  15.037 -0.7589 -1.2688  1.5873
 9703TIP3   OH250523   5.671   1.782   4.600 -0.0628 -0.0400 -0.4655
 9703TIP3    H150524   5.699   1.866   4.638  2.0405 -1.0016  0.2727
 9703TIP3    H250525   5.752   1.731   4.594 -0.6907 -0.8800 -3.9997
 9704TIP3   OH250526   3.373   0.676   3.069  0.3836  0.0471  0.3627
 9704TIP3    H150527   3.314   0.740   3.108 -1.5253 -2.0246  1.0943
 9704TIP3    H250528   3.459   0.718   3.070 -1.2248  3.9880 -2.4866
 9705TIP3   OH250529   5.673   3.642   2.098 -0.4910 -0.0095  0.5703
 9705TIP3    H150530   5.736   3.656   2.168  0.2765 -0.2753 -0.0549
 9705TIP3    H250531   5.604   3.708   2.114  1.8048  3.0091 -0.8625
 9706TIP3   OH250532   0.048   6.726   4.186 -0.1751  0.0584 -0.1053
 9706TIP3    H150533   0.040   6.798   4.124 -1.5593  0.1269  0.1273
 9706TIP3    H250534   0.064   6.649   4.132  0.1863  0.3652 -0.4353
 9707TIP3   OH250535   2.173   4.889  14.323  0.1290 -0.3359  0.1221
 9707TIP3    H150536   2.256   4.923  14.291 -0.1690  0.7684  0.4864
 9707TIP3    H250537   2.119   4.879  14.245 -0.1315  1.0539  0.0898
 9708TIP3   OH250538   4.733   0.902  14.282  0.0518 -0.0651  0.3176
 9708TIP3    H150539   4.660   0.852  14.319  1.3869 -1.1883  1.5227
 9708TIP3    H250540   4.694   0.949  14.209 -1.1964 -3.2655 -1.2711
 9709TIP3   OH250541   3.493   2.515  14.507 -0.5998 -0.5742 -0.4756
 9709TIP3    H150542   3.448   2.460  14.572 -0.6903  2.9650  2.8227
 9709TIP3    H250543   3.586   2.506  14.528 -0.5737  0.0627 -0.3158
 9710TIP3   OH250544   0.925   1.601  17.308 -0.2242  0.2285 -0.4122
 9710TIP3    H150545   0.947   1.678  17.361  0.3244 -0.3680  0.2526
 9710TIP3    H250546   0.946   1.626  17.219 -1.0849  1.2327 -0.3529
 9711TIP3   OH250547   4.351   4.699   6.732 -0.0054 -0.2891 -0.4680
 9711TIP3    H150548   4.402   4.780   6.741 -0.5994  0.0915 -0.4671
 9711TIP3    H250549   4.354   4.680   6.638 -0.5347  0.1854 -0.5889
 9712TIP3   OH250550   1.725   3.147  12.517  0.2570 -0.2073 -0.2416
 9712TIP3    H150551   1.780   3.205  12.571 -1.3696  0.8287  0.3807
 9712TIP3    H250552   1.783   3.075  12.493  1.9783  0.9967  0.0912
 9713TIP3   OH250553   2.132   2.986  12.674 -0.4336 -0.4192 -0.5482
 9713TIP3    H150554   2.182   2.916  12.717  2.9597  2.2347  0.2433
 9713TIP3    H250555   2.137   2.964  12.580  1.5015 -0.7128 -0.4088
 9714TIP3   OH250556   0.819   2.535  16.719 -0.2511 -0.5639  0.1122
 9714TIP3    H150557   0.822   2.484  16.800  1.1130  0.0618  0.4857
 9714TIP3    H250558   0.828   2.470  16.649 -1.6698 -1.1317  0.4221
 9715TIP3   OH250559   5.237   4.717   4.211  0.0562 -0.1248  0.2050
 9715TIP3    H150560   5.177   4.661   4.162  0.1461  1.3732 -1.7886
 9715TIP3    H250561   5.320   4.669   4.213 -0.7952 -1.6290  1.8251
 9716TIP3   OH250562   2.700   1.284  14.219  0.1336 -0.6841 -0.5712
 9716TIP3    H150563   2.626   1.227  14.200 -0.2346  0.2522 -2.0685
 9716TIP3    H250564   2.777   1.233  14.194  0.0324 -1.6026  0.8573
 9717TIP3   OH250565   2.742   4.593   4.237 -0.0911  0.1994 -0.1545
 9717TIP3    H150566   2.819   4.636   4.275 -0.6886  1.0702  0.1136
 9717TIP3    H250567   2.673   4.660   4.242 -1.1969 -0.9712  0.7605
 9718TIP3   OH250568   4.582   1.571  14.790 -0.0544  0.2522  0.5922
 9718TIP3    H150569   4.626   1.626  14.726 -0.0933 -0.0080  0.3370
 9718TIP3    H250570   4.589   1.482  14.754 -1.6434  0.3243  0.0475
 9719TIP3   OH250571   5.141   2.989   4.779  0.5650  0.2203  0.7733
 9719TIP3    H150572   5.093   2.907   4.765  0.6863  0.1854  0.5596
 9719TIP3    H250573   5.228   2.971   4.743  0.3298  0.7403 -0.0756
 9720TIP3   OH250574   4.392   3.073  14.245 -0.0967 -0.4652  0.2077
 9720TIP3    H150575   4.328   3.019  14.199 -0.5811  0.2757  0.0102
 9720TIP3    H250576   4.447   3.109  14.176 -0.5019  0.2289  0.2451
 9721TIP3   OH250577   2.782   2.967  15.496  0.0464 -0.6415  0.4097
 9721TIP3    H150578   2.741   3.047  15.464  0.5350 -0.8717 -0.8821
 9721TIP3    H250579   2.713   2.922  15.545 -0.5569  0.0387  0.1959
 9722TIP3   OH250580   6.123   2.840  12.931  0.0363 -0.4480 -0.0332
 9722TIP3    H150581   6.049   2.884  12.974  0.2133 -2.7250  2.8780
 9722TIP3    H250582   6.087   2.756  12.903  0.8354 -0.3694 -1.3956
 9723TIP3   OH250583   2.186   5.209   5.111  1.0600  0.0776 -0.0254
 9723TIP3    H150584   2.277   5.206   5.142  0.5106 -0.6550  1.6499
 9723TIP3    H250585   2.142   5.141   5.161 -0.5517  0.8464 -0.3372
 9724TIP3   OH250586   3.018   1.982   1.291  0.2971 -0.5477 -0.3319
 9724TIP3    H150587   3.035   2.052   1.353  0.7423  0.5638 -1.6480
 9724TIP3    H250588   3.102   1.969   1.246  0.0452 -1.4559 -0.5696
 9725TIP3   OH250589   4.052   2.388   5.949 -0.5518  0.5097 -0.4887
 9725TIP3    H150590   4.026   2.466   5.997  0.2717  1.3361 -1.3488
 9725TIP3    H250591   3.978   2.370   5.890 -1.3823 -0.2628  0.7264
 9726TIP3   OH250592   1.679   3.223   3.743  0.6367 -0.2499  0.2761
 9726TIP3    H150593   1.717   3.303   3.779  1.6910  0.0257 -1.3586
 9726TIP3    H250594   1.744   3.155   3.761  0.3750 -0.4671  0.4193
 9727TIP3   OH250595   0.731   0.311   1.456 -0.2928 -0.3839  0.1032
 9727TIP3    H150596   0.740   0.393   1.504  0.0746 -0.3031 -0.0995
 9727TIP3    H250597   0.789   0.250   1.501 -0.6268 -0.5616  0.3041
 9728TIP3   OH250598   6.149   4.695  16.074  0.7659 -0.5599 -0.3992
 9728TIP3    H150599   6.197   4.774  16.048 -0.8101 -0.0203 -1.7930
 9728TIP3    H250600   6.088   4.725  16.142 -0.2603 -0.4182 -1.3579
 9729TIP3   OH250601   1.752   1.685  14.923 -0.0448 -0.2252  0.2405
 9729TIP3    H150602   1.767   1.595  14.894 -1.8516 -0.5793  0.2865
 9729TIP3    H250603   1.700   1.725  14.854  2.3899  1.4919 -0.7707
 9730TIP3   OH250604   2.198   5.748  11.425  0.0874  0.0244  0.0884
 9730TIP3    H150605   2.263   5.803  11.469  0.1269  0.2209 -0.2132
 9730TIP3    H250606   2.215   5.761  11.332 -1.0989  0.9412 -0.0284
 9731TIP3   OH250607   4.347   1.981   5.113  0.0505  0.1883 -0.1830
 9731TIP3    H150608   4.288   1.909   5.091  0.7028 -0.5986  0.5909
 9731TIP3    H250609   4.341   2.041   5.038  0.0447 -1.0101 -1.1555
 9732TIP3   OH250610   3.344   2.111   3.689 -0.5815 -0.5642 -0.2630
 9732TIP3    H150611   3.388   2.031   3.720  0.9226  0.7643  1.2181
 9732TIP3    H250612   3.282   2.132   3.759 -0.5708 -0.1266 -0.3858
 9733TIP3   OH250613   3.714   1.030  12.937 -0.0113  0.4651 -0.2139
 9733TIP3    H150614   3.683   0.964  12.999  0.0960 -0.8613 -1.5186
 9733TIP3    H250615   3.798   1.059  12.972 -0.2259  0.1766  0.5590
 9734TIP3   OH250616   4.404   4.497   1.474  0.5053  0.1420 -0.5282
 9734TIP3    H150617   4.329   4.540   1.518  0.7880  0.4232 -0.3156
 9734TIP3    H250618   4.376   4.489   1.383  0.3001  0.4427 -0.4951
 9735TIP3   OH250619   0.389   2.643   3.317 -0.1584  0.0060 -0.7621
 9735TIP3    H150620   0.458   2.585   3.284 -0.9493 -1.1156 -0.5010
 9735TIP3    H250621   0.319   2.636   3.253 -0.9300 -0.6762  0.1145
 9736TIP3   OH250622   2.808   0.374  16.116 -0.5896  0.2186 -0.6506
 9736TIP3    H150623   2.882   0.370  16.176 -0.0059  1.1739 -1.2815
 9736TIP3    H250624   2.790   0.283  16.093 -1.7251 -0.3174  2.0031
 9737TIP3   OH250625   4.168   5.921  11.831 -0.0450  0.7090  0.4545
 9737TIP3    H150626   4.204   5.846  11.879 -1.4372 -0.2800  0.0247
 9737TIP3    H250627   4.194   5.997  11.882  0.3596 -0.1682  1.5923
 9738TIP3   OH250628   2.150   6.013   6.037 -0.3508  0.5607  0.4025
 9738TIP3    H150629   2.165   5.929   6.079 -0.4523 -0.2659 -1.1594
 9738TIP3    H250630   2.141   6.075   6.110 -0.7724 -0.8464  1.5875
 9739TIP3   OH250631   1.894   2.741  14.336 -0.1433 -0.5637 -0.5166
 9739TIP3    H150632   1.919   2.824  14.377 -0.7265  0.1210 -1.5067
 9739TIP3    H250633   1.860   2.688  14.408  0.3505  0.0093  0.1509
 9740TIP3   OH250634   0.242   2.771   4.863 -0.6028 -0.1808  0.1894
 9740TIP3    H150635   0.263   2.839   4.926 -0.2998  1.9519 -2.0316
 9740TIP3    H250636   0.268   2.689   4.905 -0.0136  1.1391  2.5785
 9741TIP3   OH250637   5.925   4.654   0.913  0.1652  0.0425 -0.7253
 9741TIP3    H150638   5.878   4.600   0.977  2.6464 -1.5281 -0.0607
 9741TIP3    H250639   5.930   4.741   0.953  0.7638 -0.6565  0.8034
 9742TIP3   OH250640   0.013   3.898  13.747  0.1392  0.2989 -0.2768
 9742TIP3    H150641   0.078   3.929  13.809  1.4725 -0.3725 -1.2974
 9742TIP3    H250642  -0.065   3.883  13.800  1.7252 -1.9369  1.5805
 9743TIP3   OH250643   0.743   2.290   2.006 -0.2440 -0.1596  0.5022
 9743TIP3    H150644   0.743   2.380   1.973  0.1297 -0.0444  0.8125
 9743TIP3    H250645   0.824   2.252   1.973 -0.4738 -0.4371  0.2415
 9744TIP3   OH250646   0.242   4.650  12.833  0.8204  0.6659 -0.0651
 9744TIP3    H150647   0.332   4.624  12.813  0.2842 -0.3712 -1.3047
 9744TIP3    H250648   0.244   4.746  12.832  2.1727  0.6912  1.3040
 9745TIP3   OH250649   0.682   0.499  12.391 -0.4371  0.2645 -0.0254
 9745TIP3    H150650   0.706   0.416  12.431 -0.6488  0.7035  1.0648
 9745TIP3    H250651   0.600   0.524  12.434  0.7969  2.1482  1.4282
 9746TIP3   OH250652   3.850   1.471   0.604 -0.5739  0.1114 -0.7420
 9746TIP3    H150653   3.769   1.442   0.647 -0.5277  1.0549  0.0177
 9746TIP3    H250654   3.858   1.414   0.528 -2.1534  0.2457 -1.0414
 9747TIP3   OH250655   2.228   2.048  12.743  0.3734  0.1959  0.2874
 9747TIP3    H150656   2.174   2.041  12.822 -1.5297 -0.0954 -0.9719
 9747TIP3    H250657   2.267   2.135  12.747 -1.2769  0.9451  0.6049
 9748TIP3   OH250658   4.977   2.233   2.586 -0.5378 -0.3788 -0.6648
 9748TIP3    H150659   5.042   2.245   2.655 -0.9356 -0.0096 -0.3459
 9748TIP3    H250660   4.962   2.322   2.552 -1.5341 -0.3222 -0.1171
 9749TIP3   OH250661   1.877   0.911   5.528 -0.0156 -0.2868 -0.5067
 9749TIP3    H150662   1.928   0.874   5.601  0.4540 -0.8627 -1.1194
 9749TIP3    H250663   1.868   0.840   5.466  1.1341  0.6824 -1.8367
 9750TIP3   OH250664   0.208   5.067   2.325 -0.6525  0.2647  0.7298
 9750TIP3    H150665   0.189   5.064   2.231  1.1741  0.7825  0.3117
 9750TIP3    H250666   0.237   4.978   2.346 -0.5825  0.2789  0.6942
 9751TIP3   OH250667   1.595   1.010   1.643  0.7804  0.1753  0.0611
 9751TIP3    H150668   1.662   1.060   1.690  1.6840  0.2985 -1.2652
 9751TIP3    H250669   1.592   1.051   1.556 -1.7242  0.7690  0.3539
 9752TIP3   OH250670   1.963   0.979  13.205 -0.2607 -0.3705 -0.0474
 9752TIP3    H150671   2.035   1.016  13.154 -0.0464  1.4364  1.4628
 9752TIP3    H250672   1.886   0.989  13.148  0.0721  1.0797 -0.2701
 9753TIP3   OH250673   1.698   6.247  14.871  0.4733 -0.0596 -0.1063
 9753TIP3    H150674   1.779   6.298  14.875  1.3663 -1.5037  1.5911
 9753TIP3    H250675   1.715   6.180  14.805  0.2076  0.2902 -0.5458
 9754TIP3   OH250676   4.808   6.591   5.939 -0.2627  0.5207  0.1570
 9754TIP3    H150677   4.873   6.542   5.889  1.8507  1.9016  1.3930
 9754TIP3    H250678   4.794   6.540   6.018  0.1360  0.7295  0.3657
 9755TIP3   OH250679   3.181   1.316   2.936  0.0601 -0.1322 -0.6059
 9755TIP3    H150680   3.140   1.391   2.978 -0.9793 -0.5416 -0.8517
 9755TIP3    H250681   3.117   1.287   2.871  1.6940  0.6415 -2.6985
 9756TIP3   OH250682   5.343   0.468  16.137 -0.1748 -0.6176 -0.2242
 9756TIP3    H150683   5.262   0.421  16.156 -0.9294 -0.1801 -2.1496
 9756TIP3    H250684   5.319   0.560  16.140  0.4022 -0.4663 -0.1430
 9757TIP3   OH250685   0.771   0.843  13.519  0.1673 -0.2040  0.5601
 9757TIP3    H150686   0.764   0.863  13.426 -1.7127 -0.2460  0.6663
 9757TIP3    H250687   0.842   0.779  13.524 -0.7393 -1.4002 -1.0353
 9758TIP3   OH250688   3.209   2.963   6.113 -0.1760 -0.4011  0.1759
 9758TIP3    H150689   3.255   2.898   6.167 -0.5545  0.6033  1.7863
 9758TIP3    H250690   3.120   2.965   6.148 -0.7944 -0.5782 -1.3163
 9759TIP3   OH250691   0.704   0.835  11.565 -0.8538  0.2192  0.3871
 9759TIP3    H150692   0.639   0.874  11.625 -0.5433  0.3662  0.6340
 9759TIP3    H250693   0.754   0.775  11.620  0.6425  1.7071  0.7387
 9760TIP3   OH250694   3.016   4.480   1.001  0.1552 -0.4450 -0.2370
 9760TIP3    H150695   3.028   4.497   0.908 -0.4581 -0.3135 -0.3009
 9760TIP3    H250696   3.089   4.423   1.025  1.8934  1.6996 -0.1586
 9761TIP3   OH250697   6.389   5.393   4.913  0.0673 -0.2104  0.6017
 9761TIP3    H150698   6.296   5.415   4.917 -0.1282 -1.0055  0.6414
 9761TIP3    H250699   6.430   5.469   4.870 -0.8889 -0.6965 -1.2834
 9762TIP3   OH250700   6.137   2.124  12.121 -0.0539  0.1215 -0.1135
 9762TIP3    H150701   6.156   2.212  12.152 -0.8170  0.8652 -1.6732
 9762TIP3    H250702   6.063   2.135  12.061  1.1873 -1.2862 -1.9849
 9763TIP3   OH250703   0.240   0.597  11.721  0.4142  0.4809  0.4149
 9763TIP3    H150704   0.299   0.669  11.699  2.3374 -1.2711 -0.4864
 9763TIP3    H250705   0.294   0.518  11.714 -2.0265 -1.2551 -0.4757
 9764TIP3   OH250706   0.497   4.342   1.195 -0.6308  0.1308  0.2503
 9764TIP3    H150707   0.492   4.264   1.139 -1.2655  0.4857 -0.1973
 9764TIP3    H250708   0.583   4.379   1.176  0.3719 -1.3150  1.6527
 9765TIP3   OH250709   6.552   4.569  14.042  0.3518  0.0450 -0.5047
 9765TIP3    H150710   6.597   4.484  14.048 -0.3858 -0.2547  1.2834
 9765TIP3    H250711   6.460   4.548  14.054  0.3247  1.2457  2.0887
 9766TIP3   OH250712   4.789   0.646  13.502  0.5912 -0.1251 -0.3214
 9766TIP3    H150713   4.787   0.558  13.466  0.2687  0.1435 -0.9747
 9766TIP3    H250714   4.870   0.685  13.467 -0.1638  0.4360 -1.5156
 9767TIP3   OH250715   5.429   1.069  14.782  0.4226  0.4377  0.0234
 9767TIP3    H150716   5.391   1.151  14.811  3.0169  1.4937  0.6741
 9767TIP3    H250717   5.408   1.064  14.689 -1.2877  0.8845  0.3460
 9768TIP3   OH250718   2.113   0.425  11.362  0.1216 -0.3900 -0.9010
 9768TIP3    H150719   2.121   0.373  11.442  1.1843 -0.4537 -1.0348
 9768TIP3    H250720   2.062   0.502  11.389  0.3012 -0.5038 -0.2145
 9769TIP3   OH250721   1.198   4.587   6.090 -0.7902 -0.1064  0.1930
 9769TIP3    H150722   1.195   4.491   6.094  1.2775 -0.4167 -2.8407
 9769TIP3    H250723   1.156   4.615   6.172 -1.7844 -3.5487  1.0448
 9770TIP3   OH250724   2.581   3.248  11.071  0.6484  0.3494  0.1742
 9770TIP3    H150725   2.550   3.321  11.125  1.6679  0.9120  0.0156
 9770TIP3    H250726   2.572   3.279  10.981  0.8772  0.1981  0.0978
 9771TIP3   OH250727   0.051   3.790  14.148 -0.3882  0.0727  0.3408
 9771TIP3    H150728  -0.029   3.823  14.106  1.3592  1.6337 -2.0443
 9771TIP3    H250729   0.080   3.718  14.092  1.0000  0.9455 -0.1045
 9772TIP3   OH250730   5.467   6.055  16.896  0.1778 -0.3067 -0.4290
 9772TIP3    H150731   5.485   6.086  16.807  1.4868 -0.6996 -0.3219
 9772TIP3    H250732   5.462   6.134  16.948 -0.3596 -0.0863 -0.7976
 9773TIP3   OH250733   4.286   0.563  12.461  0.3782  0.0926  0.2621
 9773TIP3    H150734   4.279   0.523  12.375 -1.7858  0.4594  0.2188
 9773TIP3    H250735   4.267   0.492  12.522  3.1510 -0.4833  0.5804
 9774TIP3   OH250736   2.275   2.632  16.614 -0.5508  0.1840  0.2399
 9774TIP3    H150737   2.192   2.620  16.567 -1.0796 -2.2617  1.6072
 9774TIP3    H250738   2.293   2.546  16.652  2.7348  0.5984 -0.1330
 9775TIP3   OH250739   0.582   3.381   5.097 -0.6324  0.2011  0.5896
 9775TIP3    H150740   0.599   3.410   5.186  0.1819  0.3324  0.3984
 9775TIP3    H250741   0.634   3.301   5.088  0.1449  0.7675 -0.1038
 9776TIP3   OH250742   1.398   2.937   2.920  0.4369  0.1380  0.1528
 9776TIP3    H150743   1.404   3.015   2.976  0.6541  1.0524 -1.1130
 9776TIP3    H250744   1.432   2.866   2.975  2.0291  1.2709  0.7229
 9777TIP3   OH250745   4.503   5.316   5.749  0.2195 -0.1989  0.2716
 9777TIP3    H150746   4.577   5.265   5.784  0.4098 -0.9573 -1.1339
 9777TIP3    H250747   4.494   5.285   5.659 -2.2142 -0.5515  0.5790
 9778TIP3   OH250748   2.939   1.236  16.567 -0.2181  0.0201 -0.4436
 9778TIP3    H150749   3.001   1.175  16.526 -0.5909 -0.8349  0.2134
 9778TIP3    H250750   2.994   1.300  16.611  0.1939  1.0510 -2.3543
 9779TIP3   OH250751   2.421   5.610   5.631 -0.3917 -0.0496  0.1793
 9779TIP3    H150752   2.348   5.636   5.686  0.2166  0.5276  0.7319
 9779TIP3    H250753   2.449   5.525   5.666 -1.4386 -0.7877 -0.6940
 9780TIP3   OH250754   3.983   5.726  16.681  0.0516  0.3277  1.2323
 9780TIP3    H150755   4.076   5.745  16.667 -0.3518  1.9048  0.3340
 9780TIP3    H250756   3.959   5.780  16.756 -0.9289  3.0948 -0.8560
 9781TIP3   OH250757   2.671   0.408   5.546  0.6257 -0.5615  0.3046
 9781TIP3    H150758   2.662   0.493   5.588  0.0472  0.1212 -1.1596
 9781TIP3    H250759   2.582   0.375   5.537  0.7867 -0.9602  0.1237
 9782TIP3   OH250760   3.574   4.306  14.901 -0.8214  0.0838  0.3233
 9782TIP3    H150761   3.606   4.378  14.955 -0.9300  1.3413 -1.2175
 9782TIP3    H250762   3.546   4.347  14.819 -2.4873 -1.4935  0.0233
 9783TIP3   OH250763   1.658   2.068   1.956  0.4734 -0.1371  0.0613
 9783TIP3    H150764   1.567   2.063   1.986  0.4505  4.4124  1.5500
 9783TIP3    H250765   1.710   2.076   2.036  2.1989 -1.9832 -0.7894
 9784TIP3   OH250766   4.179   0.435  15.718  0.1614 -0.3835 -0.1364
 9784TIP3    H150767   4.138   0.353  15.745 -0.5790 -0.6649 -1.9962
 9784TIP3    H250768   4.108   0.499  15.719  0.3077 -0.2122 -0.5536
 9785TIP3   OH250769   3.683   1.631   3.252 -0.1744  0.4409 -0.2257
 9785TIP3    H150770   3.609   1.599   3.304  1.3022  0.5073  2.0970
 9785TIP3    H250771   3.695   1.722   3.279 -0.1803  0.9120 -1.7347
 9786TIP3   OH250772   2.300   3.547   5.541  0.1446 -0.6347 -0.5485
 9786TIP3    H150773   2.330   3.480   5.603  0.7334 -0.0731 -0.2162
 9786TIP3    H250774   2.208   3.563   5.565 -0.0060 -1.3352 -0.6437
 9787TIP3   OH250775   3.404   0.072  16.367  0.1405  0.0287  0.7715
 9787TIP3    H150776   3.418   0.120  16.449 -1.2703  2.1352 -0.1271
 9787TIP3    H250777   3.374  -0.014  16.394 -0.1809  0.6375  2.4727
 9788TIP3   OH250778   4.145   4.210  13.859  0.2039  0.0815  0.9751
 9788TIP3    H150779   4.186   4.267  13.795 -0.9095  1.1926  1.2154
 9788TIP3    H250780   4.209   4.141  13.875  1.2131  0.7736  0.0137
 9789TIP3   OH250781   2.662   2.489  14.907  0.0385  0.1446 -0.0955
 9789TIP3    H150782   2.621   2.506  14.992 -0.3049 -1.2390  0.0372
 9789TIP3    H250783   2.681   2.576  14.872 -0.2804  0.7457  1.1674
 9790TIP3   OH250784   4.331   3.960   0.767  0.0066  0.1194  0.4033
 9790TIP3    H150785   4.279   4.011   0.829 -0.1920  0.0945  0.2584
 9790TIP3    H250786   4.293   3.979   0.681 -1.5411 -2.0100  0.5430
 9791TIP3   OH250787   6.671   3.235  12.397  0.6016 -0.6558  0.2097
 9791TIP3    H150788   6.702   3.310  12.347  1.2203 -0.9882  0.0806
 9791TIP3    H250789   6.600   3.198  12.345 -0.6740  0.6519  0.9424
 9792TIP3   OH250790   5.595   2.845  16.174  0.7420  0.5765 -0.2751
 9792TIP3    H150791   5.550   2.779  16.226  2.5086  0.9321  1.8846
 9792TIP3    H250792   5.682   2.808  16.159  0.9414  1.3781 -1.2225
 9793TIP3   OH250793   2.343   2.592  15.228 -0.7459 -0.1953 -0.2997
 9793TIP3    H150794   2.423   2.621  15.185 -1.1045 -1.5803 -1.9947
 9793TIP3    H250795   2.326   2.659  15.294  0.2709  1.6153 -1.7834
 9794TIP3   OH250796   0.520   4.673   4.733  0.4493  0.2419  0.2944
 9794TIP3    H150797   0.568   4.592   4.715  1.0350  0.2678  1.6188
 9794TIP3    H250798   0.486   4.700   4.648  0.0046 -1.5386 -0.1256
 9795TIP3   OH250799   6.741   2.891   5.468 -0.3828 -0.8119  0.2523
 9795TIP3    H150800   6.812   2.954   5.465  0.5896 -1.9039 -0.1819
 9795TIP3    H250801   6.670   2.932   5.417 -0.5662  0.8277  1.7116
 9796TIP3   OH250802   1.232   1.757   2.534 -0.1318  0.5392  0.0312
 9796TIP3    H150803   1.229   1.853   2.528  1.7007  0.5757 -0.8776
 9796TIP3    H250804   1.189   1.726   2.454 -1.3060  0.5517  0.6262
 9797TIP3   OH250805   5.773   0.446   6.423 -0.2367  0.4809 -0.1388
 9797TIP3    H150806   5.851   0.400   6.391 -0.2856 -1.1950  1.9712
 9797TIP3    H250807   5.796   0.539   6.416  1.9083  0.0358  0.3270
 9798TIP3   OH250808   3.435   2.386   1.830  0.4173 -0.2997 -0.4876
 9798TIP3    H150809   3.467   2.456   1.774 -1.3414  1.8644  1.0246
 9798TIP3    H250810   3.502   2.377   1.898 -0.9148  2.7075  1.4515
 9799TIP3   OH250811   3.857   4.679  11.189 -0.0244 -0.3424  0.3816
 9799TIP3    H150812   3.875   4.596  11.233  0.6131 -0.4927 -0.1336
 9799TIP3    H250813   3.810   4.653  11.109  0.8035 -0.2815 -0.1361
 9800TIP3   OH250814   0.090   0.216   1.817  0.1869 -0.5683 -0.0071
 9800TIP3    H150815   0.064   0.295   1.769  0.1947 -0.1318  0.6830
 9800TIP3    H250816   0.185   0.212   1.808  0.0876 -1.0964 -0.9276
 9801TIP3   OH250817   0.142   0.487  12.576 -0.2048  0.0337  0.0461
 9801TIP3    H150818   0.208   0.549  12.545 -0.4938  0.3948  0.1404
 9801TIP3    H250819   0.145   0.495  12.671 -0.0522 -0.3013  0.0699
 9802TIP3   OH250820   0.621   0.469  15.758  0.5153  0.1883  0.0609
 9802TIP3    H150821   0.564   0.480  15.682 -0.0781 -1.3102  0.2513
 9802TIP3    H250822   0.585   0.528  15.824 -0.2181 -0.0170 -0.1485
 9803TIP3   OH250823   2.358   4.551  16.869 -0.1061 -0.2545  0.6855
 9803TIP3    H150824   2.322   4.467  16.897  0.7901 -1.1985 -0.8999
 9803TIP3    H250825   2.284   4.612  16.875 -0.7337 -1.0960  1.9825
 9804TIP3   OH250826   1.213   5.727  13.488 -0.5625 -0.1756 -0.6906
 9804TIP3    H150827   1.253   5.750  13.403 -0.6781  2.3670 -0.1564
 9804TIP3    H250828   1.267   5.656  13.521  1.4178  0.8149 -1.5673
 9805TIP3   OH250829   6.270   0.689   2.485  0.0980 -0.4795 -0.0947
 9805TIP3    H150830   6.317   0.619   2.440 -0.1574 -1.9435  1.8056
 9805TIP3    H250831   6.183   0.690   2.445  0.8290  0.4126 -1.7606
 9806TIP3   OH250832   2.749   1.973  15.668 -0.4505 -0.0301 -0.0915
 9806TIP3    H150833   2.772   1.994  15.758  0.2174  2.3974 -0.7356
 9806TIP3    H250834   2.667   2.020  15.652 -0.5277 -0.3724 -0.7748
 9807TIP3   OH250835   0.103   5.877   2.591  0.1853 -0.2010 -0.1383
 9807TIP3    H150836   0.117   5.897   2.498 -1.1180  2.0934  0.1153
 9807TIP3    H250837   0.011   5.851   2.597  0.5307 -1.3797  0.3840
 9808TIP3   OH250838   6.294   1.048  16.478 -0.9705  0.1677 -0.1905
 9808TIP3    H150839   6.277   1.050  16.384 -1.3383  0.4045 -0.1210
 9808TIP3    H250840   6.389   1.054  16.486 -0.9844  0.8355 -0.5272
 9809TIP3   OH250841   1.712   1.931   2.517 -0.0897  0.5016  0.1275
 9809TIP3    H150842   1.657   1.860   2.549 -2.3992  1.8983 -0.4296
 9809TIP3    H250843   1.750   1.898   2.436 -1.2145 -0.1166 -0.1757
 9810TIP3   OH250844   1.241   2.963  15.408 -0.2688 -0.9270 -0.5788
 9810TIP3    H150845   1.319   3.011  15.381  0.4113 -1.9597 -0.5126
 9810TIP3    H250846   1.187   2.958  15.329 -1.5171  1.9991 -0.0422
 9811TIP3   OH250847   5.273   4.745  13.753 -0.1495 -0.0196  0.6059
 9811TIP3    H150848   5.354   4.787  13.781 -0.7138  0.4056  1.6873
 9811TIP3    H250849   5.211   4.818  13.741  0.1525 -0.1243 -2.2699
 9812TIP3   OH250850   0.901   3.811  13.168  0.2393 -0.3085 -0.0659
 9812TIP3    H150851   0.822   3.758  13.182 -0.0324  0.5341  1.8836
 9812TIP3    H250852   0.953   3.797  13.247  2.0814 -0.8479 -1.3229
 9813TIP3   OH250853   6.324   2.337  17.253  0.2307  0.0115  0.1865
 9813TIP3    H150854   6.372   2.283  17.316  1.2609  1.5170  0.7418
 9813TIP3    H250855   6.301   2.276  17.182  1.6109 -1.0938  0.6380
 9814TIP3   OH250856   2.812   2.184   5.189  0.0530  0.1035  0.0274
 9814TIP3    H150857   2.737   2.195   5.247 -0.2776  0.6011 -0.4907
 9814TIP3    H250858   2.823   2.090   5.181 -1.2620  0.0107 -0.8473
 9815TIP3   OH250859   4.523   6.235  13.127  0.1367  0.3367 -0.3445
 9815TIP3    H150860   4.448   6.287  13.156  0.0882  1.0544 -1.6961
 9815TIP3    H250861   4.599   6.290  13.143  0.4593 -0.5164  1.3293
 9816TIP3   OH250862   2.960   6.040  14.749  0.1323  0.5665  0.1615
 9816TIP3    H150863   2.917   6.043  14.834 -1.0500 -0.0274 -0.3883
 9816TIP3    H250864   3.052   6.022  14.769 -0.3402 -0.7620  1.2643
 9817TIP3   OH250865   0.971   0.719   5.917  0.2333 -0.6971  0.1275
 9817TIP3    H150866   0.921   0.783   5.867  0.6483  0.7566  1.4554
 9817TIP3    H250867   1.058   0.718   5.876  0.3690 -0.0214  0.3843
 9818TIP3   OH250868   1.559   1.502  13.160 -0.2931  0.4229  0.4424
 9818TIP3    H150869   1.604   1.581  13.189 -0.2409  0.0617  1.3746
 9818TIP3    H250870   1.622   1.431  13.173  0.5935  0.4685 -2.6834
 9819TIP3   OH250871   1.213   6.715  10.869 -0.5698  0.0548  0.7211
 9819TIP3    H150872   1.208   6.647  10.803 -0.0555 -0.4457  1.1819
 9819TIP3    H250873   1.272   6.781  10.832  2.2354 -1.6357  1.8468
 9820TIP3   OH250874   2.932   6.542  14.340 -0.4586 -0.1087 -0.1998
 9820TIP3    H150875   2.934   6.577  14.430 -0.7759 -1.8316  0.5155
 9820TIP3    H250876   3.017   6.500  14.329 -1.3054 -2.0524  0.2393
 9821TIP3   OH250877   6.282   1.330  14.583 -0.1164 -0.5774  0.1708
 9821TIP3    H150878   6.343   1.289  14.523  0.0601 -1.2762  0.8049
 9821TIP3    H250879   6.295   1.283  14.666 -2.2966 -1.5592  0.0408
 9822TIP3   OH250880   2.304   2.059   5.512  0.3167  0.3442  0.5037
 9822TIP3    H150881   2.374   2.090   5.568  0.6870  1.6033 -0.6049
 9822TIP3    H250882   2.244   2.134   5.505 -0.3157 -0.1854  0.1651
 9823TIP3   OH250883   1.502   5.247  11.795  0.4911  0.1205  0.2428
 9823TIP3    H150884   1.579   5.227  11.742 -0.2247 -0.8501 -0.4676
 9823TIP3    H250885   1.515   5.338  11.824  1.2958  0.3915 -0.9178
 9824TIP3   OH250886   2.355   6.210   2.848  0.2893  0.1357  0.2105
 9824TIP3    H150887   2.333   6.278   2.912 -3.4902 -0.7096  0.0276
 9824TIP3    H250888   2.329   6.247   2.764  0.6692 -0.5731 -0.2310
 9825TIP3   OH250889   2.712   0.953   5.441  0.0798 -0.2752 -0.7688
 9825TIP3    H150890   2.765   0.901   5.503  0.4374 -3.3795 -3.4075
 9825TIP3    H250891   2.623   0.947   5.475  0.8085  2.4782  2.0937
 9826TIP3   OH250892   1.539   2.059  15.550  0.1527 -0.5925 -0.1170
 9826TIP3    H150893   1.447   2.063  15.524 -0.0102  0.7450  0.5653
 9826TIP3    H250894   1.582   2.014  15.478 -0.9015 -0.4615 -0.8582
 9827TIP3   OH250895   5.066   3.821   1.815 -0.0676  0.2147  0.1288
 9827TIP3    H150896   5.058   3.840   1.722  0.2262  2.3177  0.4826
 9827TIP3    H250897   4.989   3.861   1.855 -0.2146 -0.6931  0.8146
 9828TIP3   OH250898   4.519   4.539  13.801  0.0974  0.0045 -0.2113
 9828TIP3    H150899   4.604   4.583  13.805 -0.4443  1.1998 -1.2238
 9828TIP3    H250900   4.511   4.510  13.710 -0.6717  0.0992 -0.1793
 9829TIP3   OH250901   6.751   5.635  13.294 -0.4750 -0.0958 -0.0470
 9829TIP3    H150902   6.692   5.693  13.246 -1.6960 -1.6143 -0.4929
 9829TIP3    H250903   6.783   5.573  13.229 -0.0951 -0.6027  0.6036
 9830TIP3   OH250904   1.888   1.469  14.151  0.1022 -0.0213  0.2241
 9830TIP3    H150905   1.919   1.403  14.213 -1.8261 -2.2842 -1.1081
 9830TIP3    H250906   1.832   1.526  14.204  1.2052  0.1552  1.2383
 9831TIP3   OH250907   4.085   4.640   1.720 -0.5783  0.1773  0.0676
 9831TIP3    H150908   4.039   4.558   1.739 -0.7599 -0.0386 -1.2392
 9831TIP3    H250909   4.016   4.706   1.714 -0.5405  0.1989 -0.1145
 9832TIP3   OH250910   3.274   0.051  17.296  0.0614 -0.6007  0.4822
 9832TIP3    H150911   3.193   0.070  17.250 -1.7522 -1.5400  3.0644
 9832TIP3    H250912   3.339   0.107  17.253 -1.6823 -0.4495 -2.2651
 9833TIP3   OH250913   2.063   3.462  11.424 -0.1831 -0.0436 -0.2876
 9833TIP3    H150914   2.025   3.382  11.386 -0.3801  0.4327 -1.1282
 9833TIP3    H250915   2.143   3.477  11.373 -1.0486  1.2452 -1.3196
 9834TIP3   OH250916   4.509   2.523  10.595 -0.7477  0.3303 -0.3715
 9834TIP3    H150917   4.537   2.614  10.600 -1.7194  0.5911  1.2352
 9834TIP3    H250918   4.572   2.481  10.536  1.3670  1.4579  0.9438
 9835TIP3   OH250919   6.244   5.501  15.447  0.7621  0.0998  0.3592
 9835TIP3    H150920   6.221   5.579  15.396 -2.3712 -0.0724  1.3135
 9835TIP3    H250921   6.303   5.534  15.515 -0.2771  1.6001  0.5775
 9836TIP3   OH250922   5.600   5.023   1.648 -0.0683 -0.0000 -0.2584
 9836TIP3    H150923   5.685   5.001   1.612 -0.1098  0.7688 -0.8584
 9836TIP3    H250924   5.585   4.958   1.716  1.5735  0.6227  0.7491
 9837TIP3   OH250925   2.014   3.241   6.531 -0.1593 -0.5617  0.2101
 9837TIP3    H150926   2.024   3.309   6.598  1.0092 -1.4603  1.0035
 9837TIP3    H250927   1.923   3.247   6.504 -0.0350  1.4444  0.1067
 9838TIP3   OH250928   6.408   1.245  16.765 -0.1411  0.0458  0.7994
 9838TIP3    H150929   6.479   1.234  16.702 -0.4119 -0.4130  0.5728
 9838TIP3    H250930   6.452   1.245  16.850  0.3391  1.7101  0.5763
 9839TIP3   OH250931   2.832   3.304   0.531  0.7885 -0.3021 -0.2256
 9839TIP3    H150932   2.870   3.317   0.618  0.7483 -1.1053 -0.0775
 9839TIP3    H250933   2.871   3.373   0.478 -0.1426  0.9834  0.7066
 9840TIP3   OH250934   3.675   1.344   4.889 -0.3202 -0.0283  0.3862
 9840TIP3    H150935   3.618   1.269   4.872 -0.4557  0.2120 -0.2305
 9840TIP3    H250936   3.615   1.417   4.903 -0.1636  0.4929 -1.4996
 9841TIP3   OH250937   6.477   4.052  11.473  0.0356 -0.2283  0.2819
 9841TIP3    H150938   6.390   4.026  11.505 -0.6366  0.8979 -0.5816
 9841TIP3    H250939   6.469   4.053  11.378  0.0073  2.9490  0.2021
 9842TIP3   OH250940   2.754   1.545   6.618  0.1642  1.1379  0.1447
 9842TIP3    H150941   2.754   1.632   6.579 -0.1927  1.1878  0.2485
 9842TIP3    H250942   2.701   1.492   6.559 -0.1760  1.1557  0.4331
 9843TIP3   OH250943   6.624   3.080  15.228 -0.4497  0.3490 -0.4127
 9843TIP3    H150944   6.665   3.037  15.303 -0.7635  1.2730  0.3140
 9843TIP3    H250945   6.534   3.095  15.256 -0.7153  0.2282 -1.1836
 9844TIP3   OH250946   3.319   5.860   6.539  0.1873 -0.2261 -0.1609
 9844TIP3    H150947   3.253   5.791   6.533 -1.4831  1.3636 -0.5953
 9844TIP3    H250948   3.352   5.870   6.450 -2.7710  2.4845 -1.1068
 9845TIP3   OH250949   5.428   3.181  13.118  0.4588  0.3405  0.6113
 9845TIP3    H150950   5.333   3.175  13.113  0.4878  0.1977  0.2246
 9845TIP3    H250951   5.445   3.237  13.195  0.0902 -0.8459  1.5929
 9846TIP3   OH250952   3.580   2.973   3.883 -0.4124 -0.0154 -0.4260
 9846TIP3    H150953   3.621   2.905   3.937  2.1081  0.5824 -1.4510
 9846TIP3    H250954   3.522   2.925   3.824  1.7241 -1.3972 -1.4923
 9847TIP3   OH250955   4.318   2.995  16.359 -0.0152 -0.1329 -0.4958
 9847TIP3    H150956   4.377   2.979  16.286 -0.9213 -0.9960 -1.0807
 9847TIP3    H250957   4.231   2.979  16.322 -0.7694  2.6098 -0.0813
 9848TIP3   OH250958   1.972   0.626   1.386 -0.5020 -0.3149  0.1508
 9848TIP3    H150959   1.921   0.579   1.320  0.3979  0.9775 -1.5423
 9848TIP3    H250960   2.060   0.590   1.378 -0.1035  0.7298 -0.2468
 9849TIP3   OH250961   2.206   0.308   4.869  0.4170 -0.5736 -0.0287
 9849TIP3    H150962   2.300   0.289   4.866  0.4116 -0.4919 -2.7571
 9849TIP3    H250963   2.170   0.259   4.796 -1.1940  1.7716 -0.9090
 9850TIP3   OH250964   0.369   0.446   2.048 -0.1466  0.5297 -0.3843
 9850TIP3    H150965   0.352   0.540   2.047 -2.0471  0.3164  2.0334
 9850TIP3    H250966   0.285   0.407   2.073  1.2105 -1.6247  1.1340
 9851TIP3   OH250967   4.144   0.511   1.031  0.6476  0.2511 -0.0290
 9851TIP3    H150968   4.077   0.502   1.099  0.0765  0.7823 -0.5044
 9851TIP3    H250969   4.218   0.552   1.075  0.3402  0.4451  0.3107
 9852TIP3   OH250970   4.578   0.731   3.429 -0.1472  0.0952  0.0805
 9852TIP3    H150971   4.601   0.823   3.425  0.7796 -0.1752 -1.8033
 9852TIP3    H250972   4.533   0.721   3.513  2.3238  1.6482  1.7228
 9853TIP3   OH250973   5.555   1.753   2.997  0.1738 -0.4298 -0.2684
 9853TIP3    H150974   5.565   1.671   2.949  1.6734  0.7777 -2.1667
 9853TIP3    H250975   5.467   1.783   2.974 -0.0326 -1.0344 -0.2994
 9854TIP3   OH250976   6.267   3.969  14.231 -0.1003 -0.1339  0.1001
 9854TIP3    H150977   6.275   3.994  14.323  1.4443 -0.7930  0.1585
 9854TIP3    H250978   6.270   3.874  14.231 -1.1897 -0.1903 -0.5572
 9855TIP3   OH250979   5.841   0.677   3.319 -0.0232 -0.5920 -0.1824
 9855TIP3    H150980   5.796   0.622   3.383 -0.6521  0.6885  0.5361
 9855TIP3    H250981   5.923   0.632   3.301  1.2858  0.0373  3.3091
 9856TIP3   OH250982   5.565   0.440   6.181  0.1225 -0.1121  0.7480
 9856TIP3    H150983   5.540   0.423   6.090 -1.5266 -0.0991  1.1688
 9856TIP3    H250984   5.487   0.418   6.232  0.8651  0.3227  2.1266
 9857TIP3   OH250985   5.176   1.736  15.360 -0.0017 -0.3640  0.0190
 9857TIP3    H150986   5.260   1.781  15.365  0.3074 -0.8896 -0.3077
 9857TIP3    H250987   5.115   1.803  15.331  0.4760 -0.1799 -0.5979
 9858TIP3   OH250988   2.381   3.737  11.000  0.2095 -0.2620  0.0432
 9858TIP3    H150989   2.388   3.654  10.952 -0.4691 -1.3299  1.6858
 9858TIP3    H250990   2.404   3.714  11.090 -3.1389  0.5562  1.2635
 9859TIP3   OH250991   5.939   0.390  12.336 -0.0389  0.0469  0.2440
 9859TIP3    H150992   5.932   0.319  12.272  2.3645  0.9127 -1.0785
 9859TIP3    H250993   5.984   0.351  12.411  1.2662  0.1143 -0.4750
 9860TIP3   OH250994   5.294   2.914   1.338 -0.1999  0.2066 -0.3621
 9860TIP3    H150995   5.390   2.911   1.335 -0.2036 -0.5723  0.0768
 9860TIP3    H250996   5.274   2.951   1.424 -0.2993 -0.2807 -0.1755
 9861TIP3   OH250997   3.347   6.626  15.612  0.3362 -0.2278  0.0967
 9861TIP3    H150998   3.285   6.554  15.601 -1.4446  1.0637  1.2056
 9861TIP3    H250999   3.415   6.591  15.669 -3.2467  0.2732  5.4192
 9862TIP3   OH251000   5.648   0.287   5.791  0.5068 -0.0631 -0.1086
 9862TIP3    H151001   5.561   0.323   5.805 -0.0301 -1.4406  0.2170
 9862TIP3    H251002   5.702   0.363   5.770 -0.7179  0.8367 -0.1042
 9863TIP3   OH251003   1.637   1.687   4.334  0.2793 -0.3717 -0.5548
 9863TIP3    H151004   1.545   1.699   4.312 -0.1113  3.4481  2.1499
 9863TIP3    H251005   1.684   1.708   4.253 -1.1729  0.4371 -1.2266
 9864TIP3   OH251006   6.482   3.327  15.986  0.2530 -0.3730 -0.7662
 9864TIP3    H151007   6.433   3.394  15.937 -0.2383 -0.6575 -0.6714
 9864TIP3    H251008   6.542   3.291  15.921 -1.7816 -2.1757 -1.8020
 9865TIP3   OH251009   6.203   0.318  17.214 -0.0577  0.3738 -0.3020
 9865TIP3    H151010   6.138   0.256  17.247 -0.6138  0.3758 -1.3603
 9865TIP3    H251011   6.179   0.401  17.256  0.6661 -0.0942  1.0905
 9866TIP3   OH251012   5.013   2.940  15.761 -0.0827 -0.3127  0.5400
 9866TIP3    H151013   4.924   2.907  15.769  0.8130 -3.3279 -0.7531
 9866TIP3    H251014   5.069   2.863  15.770  2.5226  1.5738  2.2141
 9867TIP3   OH251015   0.503   2.687   5.152 -0.0338 -0.3060 -0.2971
 9867TIP3    H151016   0.521   2.654   5.064 -0.6224  2.0871 -1.4024
 9867TIP3    H251017   0.568   2.756   5.165  0.4583 -1.0386  1.4490
 9868TIP3   OH251018   4.719   4.470  15.181 -0.0606 -0.0484 -0.3257
 9868TIP3    H151019   4.644   4.516  15.142  0.1436  2.5235  1.9564
 9868TIP3    H251020   4.687   4.381  15.196 -2.0991  0.5205 -0.9485
 9869TIP3   OH251021   4.059   6.622   0.901 -0.1375 -0.3645 -0.5864
 9869TIP3    H151022   3.980   6.567   0.898  1.2990 -2.6010  0.1681
 9869TIP3    H251023   4.062   6.655   0.991 -0.4244  0.0979 -0.7409
 9870TIP3   OH251024   4.340   5.362  14.727  0.1224  0.3889 -0.4628
 9870TIP3    H151025   4.308   5.387  14.641 -0.2694 -0.8510 -0.6926
 9870TIP3    H251026   4.261   5.346  14.779  0.3070 -1.9918 -0.8281
 9871TIP3   OH251027   1.457   6.053  12.009 -0.4869  0.6554 -0.3844
 9871TIP3    H151028   1.504   5.970  12.017 -0.0990  1.0023  1.4033
 9871TIP3    H251029   1.492   6.092  11.928  2.1837  0.7592  0.7030
 9872TIP3   OH251030   6.283   0.032   2.414 -0.3156 -0.0037  0.3644
 9872TIP3    H151031   6.306  -0.057   2.386 -1.6875 -0.4539  0.5927
 9872TIP3    H251032   6.267   0.024   2.508 -0.1388  0.5592  0.4478
 9873TIP3   OH251033   2.467   0.640   2.888  0.0091 -0.5722  0.1696
 9873TIP3    H151034   2.426   0.591   2.818 -0.7086  0.4342 -0.1372
 9873TIP3    H251035   2.495   0.722   2.847  0.3403 -0.3271  0.8635
 9874TIP3   OH251036   5.019   6.472   6.449  0.5951  0.0011  0.8672
 9874TIP3    H151037   5.013   6.387   6.404  0.4452 -0.4633  1.7341
 9874TIP3    H251038   5.081   6.522   6.397  0.4657 -0.5377  0.1732
 9875TIP3   OH251039   2.076   1.018  17.170 -0.5208 -0.3478  0.5738
 9875TIP3    H151040   1.998   1.070  17.151 -0.0588 -0.3349 -1.5193
 9875TIP3    H251041   2.068   0.940  17.114  0.6182 -0.6932  0.8545
 9876TIP3   OH251042   5.244   4.422  11.573  0.2695  0.0454  0.0761
 9876TIP3    H151043   5.216   4.338  11.537  0.2484 -0.2252  0.7095
 9876TIP3    H251044   5.275   4.401  11.661 -0.0901  0.7558  0.3774
 9877TIP3   OH251045   0.281   3.840   5.769  0.1329  0.3877 -0.0296
 9877TIP3    H151046   0.331   3.793   5.703  0.9612 -0.3905  1.1070
 9877TIP3    H251047   0.239   3.771   5.821  0.7045  0.9120  1.1585
 9878TIP3   OH251048   2.708   1.163  15.558  0.2377  0.1205 -0.3534
 9878TIP3    H151049   2.802   1.173  15.540  0.5853 -0.6266  0.9790
 9878TIP3    H251050   2.685   1.080  15.517 -0.1191  0.8035 -1.6155
 9879TIP3   OH251051   0.874   3.523  14.819 -0.2567  0.4963  0.3109
 9879TIP3    H151052   0.831   3.470  14.887  1.1028  0.1200  0.9001
 9879TIP3    H251053   0.919   3.592  14.867  0.9367  0.0789 -0.1706
 9880TIP3   OH251054   0.635   3.838   0.947  0.2446 -0.1550  0.7144
 9880TIP3    H151055   0.727   3.864   0.947 -0.1184  1.1988  1.1671
 9880TIP3    H251056   0.611   3.835   0.855  0.0737  2.0860  0.6341
 9881TIP3   OH251057   4.441   3.456   4.042 -0.8383 -0.5385 -0.2433
 9881TIP3    H151058   4.409   3.367   4.059 -0.3066 -0.7488 -0.3211
 9881TIP3    H251059   4.375   3.495   3.985 -0.9642 -0.9612 -0.3919
 9882TIP3   OH251060   3.169   5.575  15.287  0.2060 -0.0552 -0.1826
 9882TIP3    H151061   3.182   5.650  15.345 -0.7980  0.5882 -0.7496
 9882TIP3    H251062   3.252   5.528  15.288  0.4343  0.3202  1.2262
 9883TIP3   OH251063   4.053   6.300   1.724  0.1808 -0.0235  0.6911
 9883TIP3    H151064   3.967   6.293   1.764  0.2706 -0.1217  0.8687
 9883TIP3    H251065   4.059   6.392   1.695 -0.8296 -0.5152 -1.2575
 9884TIP3   OH251066   3.650   2.628  10.677 -0.4240 -0.3464  0.6026
 9884TIP3    H151067   3.737   2.667  10.675 -0.3771 -0.3128  2.3128
 9884TIP3    H251068   3.662   2.544  10.721 -1.2794 -0.2394  1.0617
 9885TIP3   OH251069   0.940   1.083   6.117  0.1477  0.2997 -0.2606
 9885TIP3    H151070   1.016   1.130   6.154 -0.8748  2.1514 -0.3968
 9885TIP3    H251071   0.927   1.123   6.031 -0.4427 -0.6509 -0.6239
 9886TIP3   OH251072   0.723   6.131  12.768  0.0685  0.7275 -0.2396
 9886TIP3    H151073   0.699   6.061  12.707 -0.9550  0.7360  0.1263
 9886TIP3    H251074   0.779   6.088  12.833 -1.1954  0.0333  0.4384
 9887TIP3   OH251075   0.108   5.380  13.132 -0.0484 -0.1112 -0.3675
 9887TIP3    H151076   0.187   5.350  13.176  0.7643 -0.5131 -2.0337
 9887TIP3    H251077   0.043   5.312  13.151  0.6335 -0.8945 -0.7902
 9888TIP3   OH251078   0.810   5.606  17.319 -0.4869  0.2048 -0.2038
 9888TIP3    H151079   0.785   5.517  17.295 -0.5153  0.4123 -0.9772
 9888TIP3    H251080   0.866   5.636  17.247  0.7397  0.3033  0.7602
 9889TIP3   OH251081   3.066   0.843   6.113  0.2203  0.2642  0.4017
 9889TIP3    H151082   3.091   0.775   6.051 -1.4682 -1.7216  1.7890
 9889TIP3    H251083   2.979   0.818   6.143  0.7275  1.4179  3.1416
 9890TIP3   OH251084   4.591   1.199   5.324  0.0619  0.8117 -0.2943
 9890TIP3    H151085   4.640   1.117   5.315 -0.6714  0.4534 -1.2191
 9890TIP3    H251086   4.654   1.268   5.303  0.4505  0.4346 -0.3673
 9891TIP3   OH251087   4.725   6.566   3.158  0.3644 -0.5345  0.1414
 9891TIP3    H151088   4.815   6.594   3.145  0.0863 -0.1496 -1.1746
 9891TIP3    H251089   4.715   6.557   3.252  1.2556  1.1912  0.4415
 9892TIP3   OH251090   1.808   6.151   5.780 -0.3860 -0.6222 -0.4785
 9892TIP3    H151091   1.785   6.110   5.697  0.5939 -1.3552 -0.4089
 9892TIP3    H251092   1.883   6.207   5.760 -1.9792  1.5629 -0.6616
 9893TIP3   OH251093   1.107   0.876  12.521 -0.0514  0.0959 -0.0654
 9893TIP3    H151094   1.113   0.781  12.535 -2.5371 -0.4938 -2.2994
 9893TIP3    H251095   1.112   0.913  12.609 -0.2247 -2.1936  0.9894
 9894TIP3   OH251096   6.394   2.327  14.160 -0.2312  0.0410 -0.2892
 9894TIP3    H151097   6.453   2.360  14.092 -0.1861 -0.8783 -0.7143
 9894TIP3    H251098   6.309   2.364  14.139 -0.3479 -0.7028 -1.2138
 9895TIP3   OH251099   3.866   2.022  11.425  0.1562 -0.5900 -0.8049
 9895TIP3    H151100   3.792   1.974  11.389 -0.9535  1.1808 -0.9808
 9895TIP3    H251101   3.910   2.060  11.348  0.9948 -1.2427 -0.6657
 9896TIP3   OH251102   2.455   3.477  11.844 -0.7953  0.1002  0.7716
 9896TIP3    H151103   2.503   3.560  11.845  0.0242 -0.3447  0.1339
 9896TIP3    H251104   2.449   3.451  11.936 -1.7655  1.2513  1.0504
 9897TIP3   OH251105   3.319   1.553  16.440  0.1649 -0.2394  0.1221
 9897TIP3    H151106   3.225   1.545  16.424  0.1473  2.2314 -1.5760
 9897TIP3    H251107   3.355   1.468  16.414 -1.3916 -0.5518 -1.2072
 9898TIP3   OH251108   1.963   0.082  17.418  0.0013 -0.1004  0.2213
 9898TIP3    H151109   1.899   0.014  17.400  2.0845 -1.4699 -2.8900
 9898TIP3    H251110   1.928   0.161  17.376 -1.4962  0.3485  2.1658
 9899TIP3   OH251111   3.171   5.628   6.630 -0.0379 -0.0734  0.3546
 9899TIP3    H151112   3.184   5.664   6.717 -3.2478  0.8656  0.5449
 9899TIP3    H251113   3.106   5.559   6.642  0.1157 -0.5188 -1.1853
 9900TIP3   OH251114   2.883   1.154   2.815  0.3041  0.0108  0.0863
 9900TIP3    H151115   2.817   1.093   2.848 -0.1653 -0.3885 -1.5360
 9900TIP3    H251116   2.846   1.241   2.833 -0.3299 -0.2038 -0.1695
 9901TIP3   OH251117   5.692   1.248   5.542  0.0270 -0.0698  0.2406
 9901TIP3    H151118   5.736   1.189   5.481  0.0226  0.7676 -0.5999
 9901TIP3    H251119   5.763   1.287   5.593 -0.0097 -1.2192  1.2198
 9902TIP3   OH251120   3.731   0.080   2.183  0.4843  0.0966 -0.5053
 9902TIP3    H151121   3.698  -0.001   2.144  2.7512  0.2494 -2.9543
 9902TIP3    H251122   3.709   0.148   2.119 -1.9276  1.6814  1.7629
 9903TIP3   OH251123   1.844   3.253   4.839  0.4267 -0.1082 -0.8556
 9903TIP3    H151124   1.814   3.169   4.806  1.0600 -0.6392 -0.1213
 9903TIP3    H251125   1.884   3.233   4.924  0.4908  0.9457 -0.6172
 9904TIP3   OH251126   3.607   2.591  13.194 -0.4361 -0.0088 -0.1122
 9904TIP3    H151127   3.525   2.599  13.242 -0.1082 -2.4741  0.9862
 9904TIP3    H251128   3.675   2.591  13.261  0.1254 -2.0326 -0.5889
 9905TIP3   OH251129   5.874   1.017   6.309 -0.1335 -0.5563 -0.7477
 9905TIP3    H151130   5.792   0.976   6.334 -0.0243 -0.4199 -0.1372
 9905TIP3    H251131   5.862   1.110   6.329  0.5817 -0.7059  0.5340
 9906TIP3   OH251132   0.725   5.006   3.990  0.6519 -0.1727 -0.2726
 9906TIP3    H151133   0.659   4.960   4.042 -0.2479  0.2220 -1.0234
 9906TIP3    H251134   0.746   4.945   3.919  0.5351 -0.0070 -0.4517
 9907TIP3   OH251135   5.512   6.301  15.889 -0.2079  0.1266  0.4512
 9907TIP3    H151136   5.507   6.325  15.797 -0.6903 -1.7811 -0.0645
 9907TIP3    H251137   5.509   6.384  15.936 -0.3625  1.1101 -1.2318
 9908TIP3   OH251138   0.296   2.148  11.912  0.2791 -0.1824 -0.0925
 9908TIP3    H151139   0.283   2.089  11.839  3.0151 -0.3085 -0.5604
 9908TIP3    H251140   0.255   2.230  11.884  0.6938 -0.4296 -1.5000
 9909TIP3   OH251141   2.997   0.310  10.937 -0.4659  0.1253  0.5217
 9909TIP3    H151142   3.066   0.244  10.932 -1.4124 -0.8516 -0.2984
 9909TIP3    H251143   2.916   0.259  10.944 -1.1127  1.2398  1.3871
 9910TIP3   OH251144   1.029   5.642   6.678 -0.1680  1.0919 -0.1054
 9910TIP3    H151145   1.109   5.622   6.726 -0.1733  0.5857 -0.2964
 9910TIP3    H251146   0.981   5.703   6.734  0.4167  1.5201 -0.0587
 9911TIP3   OH251147   0.187   2.536   2.097 -0.3463 -0.4099  0.3071
 9911TIP3    H151148   0.188   2.445   2.068 -1.2563 -0.3671  0.1106
 9911TIP3    H251149   0.185   2.587   2.017 -0.2067 -0.2303  0.4190
 9912TIP3   OH251150   3.964   3.378   2.780 -0.5629  0.5798  0.1810
 9912TIP3    H151151   3.925   3.443   2.839  0.9127  0.1181  1.7272
 9912TIP3    H251152   4.058   3.393   2.784 -0.4055  1.4237 -3.1873
 9913TIP3   OH251153   1.476   6.374   1.814 -0.1114  0.0788 -0.2578
 9913TIP3    H151154   1.441   6.459   1.788 -1.1726 -0.5676 -1.0646
 9913TIP3    H251155   1.552   6.394   1.869  0.1190  1.5336 -1.0583
 9914TIP3   OH251156   5.561   2.370  16.021  0.1626  0.2765  0.3436
 9914TIP3    H151157   5.520   2.291  16.054 -0.6952  0.6739  0.2514
 9914TIP3    H251158   5.637   2.384  16.078 -0.1284 -0.1820  0.8415
 9915TIP3   OH251159   6.570   6.697  17.413 -0.1051  0.1764  0.3672
 9915TIP3    H151160   6.613   6.615  17.437 -0.7860 -0.3334 -0.1245
 9915TIP3    H251161   6.489   6.670  17.369  0.0334  1.0975 -0.5003
 9916TIP3   OH251162   4.518   2.387   1.731  0.2013  0.0362  0.2978
 9916TIP3    H151163   4.557   2.410   1.815  1.1932  0.8859 -0.3654
 9916TIP3    H251164   4.446   2.449   1.720 -0.8088 -0.9491  1.1109
 9917TIP3   OH251165   3.219   1.268  14.914 -0.3114  0.0599  0.1787
 9917TIP3    H151166   3.200   1.349  14.866  0.9361 -0.4326 -1.2273
 9917TIP3    H251167   3.173   1.279  14.998 -2.9344  0.7936 -1.2287
 9918TIP3   OH251168   0.728   6.129   1.685 -0.2825  0.0018  0.0331
 9918TIP3    H151169   0.737   6.214   1.730 -1.5616  0.1079  0.1184
 9918TIP3    H251170   0.687   6.151   1.601 -2.3334 -0.6852  0.7934
 9919TIP3   OH251171   6.474   2.643   4.879 -0.3952  0.8341 -0.4447
 9919TIP3    H151172   6.439   2.726   4.910 -0.3003  0.8265 -0.3153
 9919TIP3    H251173   6.565   2.662   4.855  0.3167  0.3195  1.6064
 9920TIP3   OH251174   3.210   5.320   0.146  0.1456  0.4827  0.5085
 9920TIP3    H151175   3.267   5.337   0.071 -1.0164  0.4190 -0.4207
 9920TIP3    H251176   3.236   5.233   0.176  0.1013  0.1534 -0.3476
 9921TIP3   OH251177   1.051   1.273  14.468  0.2863  0.1113 -0.1261
 9921TIP3    H151178   1.061   1.292  14.375 -1.5498 -1.4532 -0.7202
 9921TIP3    H251179   1.138   1.246  14.497  0.5072 -1.3411 -1.9215
 9922TIP3   OH251180   3.551   6.391   1.460 -0.4899 -0.2247 -0.8222
 9922TIP3    H151181   3.603   6.471   1.448 -1.0040  0.0597 -1.1749
 9922TIP3    H251182   3.616   6.321   1.463 -0.0151  0.2299 -0.2616
 9923TIP3   OH251183   4.230   5.950  11.578  0.2885 -0.2452 -0.0682
 9923TIP3    H151184   4.195   6.025  11.531 -0.4858 -0.2293  0.4999
 9923TIP3    H251185   4.208   5.968  11.670 -1.6923 -2.0646 -0.1068
 9924TIP3   OH251186   2.304   5.631   1.003  0.7111  0.5026  0.0450
 9924TIP3    H151187   2.262   5.697   0.949  0.9800  0.3711 -0.3290
 9924TIP3    H251188   2.397   5.636   0.980  0.5580 -0.9977 -1.0940
 9925TIP3   OH251189   2.415   2.468   4.122 -0.2267 -0.4228 -0.3767
 9925TIP3    H151190   2.438   2.399   4.060  0.8957 -2.0403  1.7213
 9925TIP3    H251191   2.479   2.537   4.106 -0.7708 -0.2218 -1.8550
 9926TIP3   OH251192   3.101   2.576   3.300  0.2816  0.3158 -0.1831
 9926TIP3    H151193   3.019   2.533   3.276  2.4044 -2.7548 -2.9736
 9926TIP3    H251194   3.106   2.652   3.242 -0.9160  1.0090  0.5948
 9927TIP3   OH251195   5.293   0.068   0.842 -0.0520  0.0281 -0.5145
 9927TIP3    H151196   5.331  -0.012   0.803  0.3770 -0.0754  0.1002
 9927TIP3    H251197   5.366   0.109   0.888 -0.9080 -0.8008  1.7375
 9928TIP3   OH251198   4.770   5.139  16.098 -0.3986 -0.2760  0.9535
 9928TIP3    H151199   4.860   5.146  16.129 -0.3507  2.7547  0.4774
 9928TIP3    H251200   4.769   5.064  16.039  2.2103  0.5180 -0.2203
 9929TIP3   OH251201   5.040   3.422   3.838 -0.3990  0.1655 -0.4992
 9929TIP3    H151202   5.074   3.445   3.751 -2.7473  1.7391 -1.0966
 9929TIP3    H251203   5.040   3.505   3.886 -1.0502 -0.2925  0.3085
 9930TIP3   OH251204   3.019   5.373   6.621  0.5629 -0.3868 -0.0857
 9930TIP3    H151205   3.056   5.293   6.660  1.5740 -0.0929 -0.3976
 9930TIP3    H251206   2.940   5.343   6.575 -1.2384 -0.5836  2.9193
 9931TIP3   OH251207   3.699   3.093   3.126  0.0547  0.0240  0.2099
 9931TIP3    H151208   3.612   3.054   3.137  0.2453 -0.3959  0.2062
 9931TIP3    H251209   3.711   3.146   3.205 -0.9329  1.4900 -0.5690
 9932TIP3   OH251210   1.559   5.021  11.956 -0.2876  0.1989 -0.3569
 9932TIP3    H151211   1.600   4.961  11.895  0.8710 -0.5563  1.0894
 9932TIP3    H251212   1.529   5.095  11.902  2.1129  0.3360 -1.6356
 9933TIP3   OH251213   5.179   0.895  12.576 -0.0296  0.1734  0.0920
 9933TIP3    H151214   5.264   0.901  12.619  0.6151 -4.3035 -0.0421
 9933TIP3    H251215   5.192   0.937  12.491  1.0128  2.3348  1.2627
 9934TIP3   OH251216   4.994   4.749   1.790 -0.0093 -0.0020 -0.0451
 9934TIP3    H151217   5.031   4.837   1.786 -1.7720  0.7671 -0.0959
 9934TIP3    H251218   4.985   4.731   1.884 -1.6664  0.7923 -0.0188
 9935TIP3   OH251219   1.383   6.222   2.785 -0.2936 -0.1841 -0.2019
 9935TIP3    H151220   1.394   6.142   2.734  3.5632 -1.2116  1.9199
 9935TIP3    H251221   1.361   6.192   2.873  0.3033  1.1451  0.4248
 9936TIP3   OH251222   5.056   4.510   3.516  0.9072 -0.4186  0.2235
 9936TIP3    H151223   5.075   4.602   3.502  3.4250 -0.6944  1.3683
 9936TIP3    H251224   5.073   4.468   3.432 -1.8845  0.2872 -0.8055
 9937TIP3   OH251225   3.300   2.178   5.834  0.4804  0.3800  0.3098
 9937TIP3    H151226   3.258   2.248   5.783 -0.3940  0.2258  0.7928
 9937TIP3    H251227   3.269   2.191   5.923 -2.5246 -2.5724 -0.0899
 9938TIP3   OH251228   3.524   0.516  16.684  0.2119 -0.6443 -0.3392
 9938TIP3    H151229   3.470   0.580  16.731  0.6207 -1.4068  1.2616
 9938TIP3    H251230   3.489   0.515  16.595  0.4989  2.1355 -0.5908
 9939TIP3   OH251231   3.857   0.087   6.684  0.5572  0.3182  0.5898
 9939TIP3    H151232   3.914   0.013   6.663 -1.1621 -0.1525 -3.4382
 9939TIP3    H251233   3.881   0.154   6.620 -2.3426  0.5601 -0.3958
 9940TIP3   OH251234   0.097   1.423  11.280 -0.2206  0.2426 -0.1473
 9940TIP3    H151235   0.029   1.417  11.347 -1.2139  0.7608 -1.0873
 9940TIP3    H251236   0.088   1.343  11.229  1.2453 -0.6723  0.9554
 9941TIP3   OH251237   3.344   5.284  16.141 -0.2050 -0.0423 -0.0035
 9941TIP3    H151238   3.337   5.360  16.198 -0.3622  0.2204 -0.3696
 9941TIP3    H251239   3.423   5.238  16.171  0.8091  1.1130 -0.7848
 9942TIP3   OH251240   5.044   2.655  11.465  0.0702  0.4241 -0.3257
 9942TIP3    H151241   4.998   2.599  11.527  1.1233 -0.1559 -0.0426
 9942TIP3    H251242   5.052   2.740  11.509 -1.4014  0.7791 -0.6984
 9943TIP3   OH251243   2.329   5.859  14.105 -0.1907  0.0801  0.6049
 9943TIP3    H151244   2.392   5.792  14.131  1.8774  1.9055  0.5366
 9943TIP3    H251245   2.345   5.932  14.165  1.0733  2.3895 -2.3007
 9944TIP3   OH251246   0.872   0.841  11.106  0.1443 -0.8531 -0.1839
 9944TIP3    H151247   0.868   0.893  11.027 -2.3894 -0.3494  0.1881
 9944TIP3    H251248   0.922   0.763  11.081  0.7888  0.0237 -1.7783
 9945TIP3   OH251249   0.584   1.863  13.064  0.0207  0.0103 -0.2194
 9945TIP3    H151250   0.664   1.885  13.112  0.2205  0.4435 -0.7427
 9945TIP3    H251251   0.613   1.804  12.994 -0.1090  0.2254 -0.4543
 9946TIP3   OH251252   5.298   0.349   5.106 -0.2915 -0.6801 -0.3751
 9946TIP3    H151253   5.357   0.358   5.180 -3.1489  1.5737  1.8653
 9946TIP3    H251254   5.289   0.254   5.093  1.7089 -1.0782  0.8921
 9947TIP3   OH251255   1.573   5.880   5.870 -0.5113  0.2424 -0.3205
 9947TIP3    H151256   1.657   5.836   5.864  1.1179  2.9145  0.9474
 9947TIP3    H251257   1.553   5.906   5.780  0.4063  0.2156 -0.5401
 9948TIP3   OH251258   0.353   2.144   1.721 -0.1006  0.2669  0.3959
 9948TIP3    H151259   0.401   2.105   1.794  0.8822 -0.4390 -0.5868
 9948TIP3    H251260   0.268   2.168   1.758 -0.6362 -2.4848  1.1881
 9949TIP3   OH251261   1.388   2.115  12.782 -0.2774 -0.7481 -0.3729
 9949TIP3    H151262   1.358   2.047  12.722 -1.4467 -1.9003  1.3982
 9949TIP3    H251263   1.431   2.180  12.727 -0.1390 -2.3734 -2.2622
 9950TIP3   OH251264   5.473   3.885  14.190  0.6030 -0.1325  0.1810
 9950TIP3    H151265   5.494   3.901  14.282 -0.8296  0.3095  0.4637
 9950TIP3    H251266   5.389   3.929  14.177  1.1112  0.4058 -1.5341
 9951TIP3   OH251267   3.598   4.122   0.403  0.0856  0.0828 -0.0580
 9951TIP3    H151268   3.553   4.205   0.385 -0.3375 -0.2042 -0.3178
 9951TIP3    H251269   3.529   4.064   0.436  0.7248  0.4477  2.1214
 9952TIP3   OH251270   1.201   6.357  16.455 -0.6407 -0.5548  0.2962
 9952TIP3    H151271   1.285   6.321  16.482  0.0639  2.0769  1.9473
 9952TIP3    H251272   1.213   6.378  16.362  0.1018 -1.2682  0.2178
 9953TIP3   OH251273   6.637   5.278  15.450  0.7340 -0.0881 -0.0729
 9953TIP3    H151274   6.579   5.318  15.385  1.0791  1.3448  0.4562
 9953TIP3    H251275   6.660   5.193  15.412 -0.0889  0.1703 -1.2217
 9954TIP3   OH251276   0.420   0.011   2.641  0.0643  0.9377 -0.3975
 9954TIP3    H151277   0.406  -0.083   2.632  1.8568  0.7542 -1.6946
 9954TIP3    H251278   0.332   0.047   2.652 -0.7281 -0.7897 -0.7284
 9955TIP3   OH251279   2.803   5.775  14.093 -0.5545 -0.1218  0.1514
 9955TIP3    H151280   2.747   5.852  14.098 -2.4568 -1.5441  2.9527
 9955TIP3    H251281   2.762   5.720  14.026 -0.9577  0.0014  0.2927
 9956TIP3   OH251282   3.585   3.017  16.394  0.0664  0.1344  0.1228
 9956TIP3    H151283   3.662   3.059  16.356 -0.5105  0.7475 -0.3935
 9956TIP3    H251284   3.576   2.935  16.345  0.4851 -0.0244  0.3064
 9957TIP3   OH251285   4.503   3.211   2.289 -0.0749 -0.2193 -0.0682
 9957TIP3    H151286   4.414   3.177   2.300 -1.0399  1.3460 -2.2749
 9957TIP3    H251287   4.558   3.133   2.290 -1.6619 -1.4136 -0.3452
 9958TIP3   OH251288   1.137   6.039  12.509 -0.3498 -0.5623 -0.0494
 9958TIP3    H151289   1.177   6.072  12.429 -1.9866 -1.3824 -1.2483
 9958TIP3    H251290   1.094   6.116  12.547 -1.0000 -0.5014 -0.8746
 9959TIP3   OH251291   2.545   4.235   2.637 -0.5668 -0.5144 -0.6295
 9959TIP3    H151292   2.634   4.233   2.603  0.1945 -3.5416  1.1761
 9959TIP3    H251293   2.517   4.326   2.624  3.0782  0.8190 -0.4450
 9960TIP3   OH251294   1.449   2.638  14.910  0.0416  0.9354 -0.3648
 9960TIP3    H151295   1.395   2.560  14.897 -1.4050  1.5579  1.4761
 9960TIP3    H251296   1.536   2.604  14.933 -0.6527 -0.1816  0.7539
 9961TIP3   OH251297   4.112   3.738   0.574  0.1365 -0.6203  0.0011
 9961TIP3    H151298   4.180   3.676   0.599  0.3796  0.1160  1.2333
 9961TIP3    H251299   4.075   3.769   0.657 -0.9750 -0.2021 -0.6227
 9962TIP3   OH251300   6.578   0.463   0.281 -0.3018 -0.0688  0.2124
 9962TIP3    H151301   6.669   0.463   0.309 -0.8820 -4.3262  3.0550
 9962TIP3    H251302   6.574   0.397   0.211 -0.8652  2.1490 -1.9888
 9963TIP3   OH251303   3.961   3.366   4.865 -0.4679  0.0465  0.1029
 9963TIP3    H151304   3.968   3.301   4.935 -1.8174  1.7853  1.9981
 9963TIP3    H251305   3.876   3.349   4.825 -0.1701 -0.2685 -0.4016
 9964TIP3   OH251306   4.598   6.447  12.606 -0.3039 -0.6099  0.0277
 9964TIP3    H151307   4.651   6.368  12.616  1.4836  0.1608 -2.2651
 9964TIP3    H251308   4.639   6.494  12.533 -1.8524  1.9976  0.6977
 9965TIP3   OH251309   3.453   6.314   6.527  0.3050  0.5588 -0.0575
 9965TIP3    H151310   3.448   6.336   6.620 -1.2227 -1.0311  0.2659
 9965TIP3    H251311   3.389   6.371   6.485 -0.3292 -0.0054  0.1340
 9966TIP3   OH251312   4.077   5.362  14.848 -0.5238  0.1801 -0.5574
 9966TIP3    H151313   4.078   5.266  14.840 -1.1927  0.1131  0.0635
 9966TIP3    H251314   4.070   5.392  14.757 -1.8209 -0.4174 -0.6949
 9967TIP3   OH251315   5.549   3.461   5.181  0.2356 -0.2566 -0.7961
 9967TIP3    H151316   5.641   3.468   5.154  0.7594  0.0236  0.9058
 9967TIP3    H251317   5.499   3.488   5.104  1.5722 -0.5712 -1.8083
 9968TIP3   OH251318   4.346   2.888   4.594  0.0487 -0.1142 -0.0141
 9968TIP3    H151319   4.396   2.906   4.515  1.6160 -0.3899  0.8722
 9968TIP3    H251320   4.401   2.827   4.644 -1.6893 -1.3526  0.4980
 9969TIP3   OH251321   2.867   3.673  16.268  0.2807  0.3900  0.1261
 9969TIP3    H151322   2.936   3.617  16.305 -0.0983 -0.1577  0.0105
 9969TIP3    H251323   2.785   3.632  16.297 -0.0015  0.7364 -0.1819
 9970TIP3   OH251324   3.119   3.624  14.228 -0.4500 -0.5404 -0.4859
 9970TIP3    H151325   3.188   3.568  14.263  0.3555  0.4157 -0.5034
 9970TIP3    H251326   3.122   3.703  14.282 -2.2272 -0.8835  0.1759
 9971TIP3   OH251327   6.181   5.386   2.786  0.2512  0.6884 -0.4684
 9971TIP3    H151328   6.131   5.358   2.710 -0.2088 -0.1391  0.1310
 9971TIP3    H251329   6.116   5.415   2.849  0.5817  0.5832 -0.0744
 9972TIP3   OH251330   2.948   2.213   3.580  0.7851  0.1819  0.0208
 9972TIP3    H151331   3.003   2.173   3.512  0.3758  1.1500 -0.9156
 9972TIP3    H251332   2.912   2.139   3.629  2.0408 -0.5005 -0.0457
 9973TIP3   OH251333   1.139   0.643   5.695  0.1526 -0.5038  0.1613
 9973TIP3    H151334   1.048   0.619   5.678 -0.0993 -0.9686  1.9760
 9973TIP3    H251335   1.168   0.684   5.613 -2.0331  0.7368 -0.0951
 9974TIP3   OH251336   2.253   6.266  16.055  0.1978 -0.2108  0.2775
 9974TIP3    H151337   2.197   6.341  16.076  0.3152 -0.4545  1.5109
 9974TIP3    H251338   2.203   6.216  15.990 -1.2804 -0.7108  1.7372
 9975TIP3   OH251339   4.068   0.379  13.422 -0.1036 -0.0493 -0.2331
 9975TIP3    H151340   4.074   0.435  13.500 -2.3894 -0.7150  0.5143
 9975TIP3    H251341   4.109   0.297  13.449  2.1601  0.7817 -0.9280
 9976TIP3   OH251342   1.607   3.520  12.521 -0.1009 -0.1131  0.1781
 9976TIP3    H151343   1.522   3.566  12.520  0.0393  0.1447 -0.2453
 9976TIP3    H251344   1.595   3.447  12.460  0.8817  1.6135 -2.2200
 9977TIP3   OH251345   1.749   5.869  16.538  0.3020 -0.8675 -0.6246
 9977TIP3    H151346   1.769   5.779  16.514  2.8421 -0.3295 -0.8061
 9977TIP3    H251347   1.824   5.898  16.590 -0.8604  0.8761  0.1964
 9978TIP3   OH251348   2.777   4.635   6.504  0.1872  0.0856  0.1202
 9978TIP3    H151349   2.789   4.663   6.595  1.5532  4.7067 -1.2319
 9978TIP3    H251350   2.862   4.597   6.479  0.6034  0.9455  0.1865
 9979TIP3   OH251351   0.724   2.372   0.329  0.5749  1.0035 -0.1048
 9979TIP3    H151352   0.699   2.414   0.412  2.2238  2.3094 -0.2261
 9979TIP3    H251353   0.798   2.423   0.298  1.9171 -1.2919 -0.9002
 9980TIP3   OH251354   1.561   3.800   5.932  0.4525 -0.3449  0.1049
 9980TIP3    H151355   1.558   3.895   5.941 -1.0854 -0.3063 -0.5341
 9980TIP3    H251356   1.648   3.776   5.963  0.4810  1.1524  1.3143
 9981TIP3   OH251357   1.930   4.696  13.286  0.5169  0.5964 -0.4938
 9981TIP3    H151358   1.870   4.760  13.324  0.1482  1.2306 -2.0489
 9981TIP3    H251359   1.941   4.725  13.195  1.3845 -0.8060 -0.8646
 9982TIP3   OH251360   2.560   4.665  16.033  0.2398  0.3448  0.6101
 9982TIP3    H151361   2.639   4.620  16.004 -0.8724 -1.6160  0.4234
 9982TIP3    H251362   2.494   4.642  15.967 -0.8678  0.6848  1.5559
 9983TIP3   OH251363   6.119   4.361   0.270 -0.1783 -0.8195 -0.2123
 9983TIP3    H151364   6.076   4.443   0.295  0.4787 -0.5341  0.0073
 9983TIP3    H251365   6.151   4.377   0.181  0.0037 -0.8138 -0.1461
 9984TIP3   OH251366   2.760   5.876   5.588  0.3153  0.3615 -0.8072
 9984TIP3    H151367   2.852   5.898   5.606 -0.3707  3.0527 -0.2002
 9984TIP3    H251368   2.761   5.782   5.574  3.0531  0.1744 -0.0115
 9985TIP3   OH251369   4.508   0.929  11.189  0.3159  0.6314 -0.1396
 9985TIP3    H151370   4.547   0.846  11.162  1.6244  1.5100 -1.0608
 9985TIP3    H251371   4.426   0.935  11.139  0.0216 -0.2421  0.2080
 9986TIP3   OH251372   5.703   0.456  12.104 -0.0821  0.1486 -0.0549
 9986TIP3    H151373   5.723   0.452  12.198  0.9160 -2.2201 -0.2933
 9986TIP3    H251374   5.787   0.475  12.063 -0.1530 -0.5713 -0.5506
 9987TIP3   OH251375   6.283   6.542   1.994  0.0131 -0.2292  1.1100
 9987TIP3    H151376   6.317   6.628   1.968  1.7197 -1.3703 -0.7140
 9987TIP3    H251377   6.252   6.503   1.912 -0.8670 -1.3200  1.9282
 9988TIP3   OH251378   4.392   0.011   5.747  0.3070  0.0428  0.1063
 9988TIP3    H151379   4.449  -0.048   5.796  1.4699 -0.3933 -1.6860
 9988TIP3    H251380   4.311  -0.039   5.734 -0.5000  0.5732  2.4372
 9989TIP3   OH251381   1.433   0.744   5.662 -0.4220  0.2351  0.0587
 9989TIP3    H151382   1.340   0.759   5.651 -0.6741 -0.7145  0.7508
 9989TIP3    H251383   1.475   0.803   5.600 -1.2491  4.1704  2.8766
 9990TIP3   OH251384   3.597   2.816   1.545 -0.0300 -0.0264 -0.0178
 9990TIP3    H151385   3.515   2.812   1.594 -0.1207  0.9037 -0.0701
 9990TIP3    H251386   3.620   2.909   1.545  1.4772 -0.3700  0.7387
 9991TIP3   OH251387   2.694   5.511  12.843  0.3478 -0.2073 -0.3299
 9991TIP3    H151388   2.626   5.445  12.857 -0.4831  0.4045 -1.3817
 9991TIP3    H251389   2.761   5.490  12.909 -1.5859  0.2106  1.8941
 9992TIP3   OH251390   0.765   1.404   6.472 -0.2236 -0.6685  0.3050
 9992TIP3    H151391   0.677   1.441   6.462  0.3589  1.5931  2.8098
 9992TIP3    H251392   0.812   1.433   6.394 -0.8168  0.8695  0.4911
 9993TIP3   OH251393   5.497   2.787  11.850  0.2411  0.0785 -0.3612
 9993TIP3    H151394   5.572   2.801  11.908  0.1357  0.3264 -0.2837
 9993TIP3    H251395   5.434   2.853  11.876 -0.8803 -1.4579  1.0178
 9994TIP3   OH251396   3.892   2.922  16.432 -0.4893 -0.1977 -0.0739
 9994TIP3    H151397   3.919   2.979  16.504 -0.4144  0.2022 -0.4145
 9994TIP3    H251398   3.960   2.935  16.365  0.2111 -1.6015  0.3080
 9995TIP3   OH251399   4.236   4.628  16.548 -0.4802  0.9933  0.0581
 9995TIP3    H151400   4.311   4.593  16.501 -0.3994  1.4111 -0.1324
 9995TIP3    H251401   4.214   4.708  16.500 -1.6638  0.3685 -0.4934
 9996TIP3   OH251402   3.350   1.288   0.915  0.4753 -0.4262  0.1127
 9996TIP3    H151403   3.311   1.364   0.874  1.5891  0.4003  0.5168
 9996TIP3    H251404   3.437   1.318   0.943  0.6099 -1.5976  1.0396
 9997TIP3   OH251405   2.299   2.591   1.181  0.5531  0.4365  0.3876
 9997TIP3    H151406   2.225   2.585   1.121  0.2694  0.2459  0.7513
 9997TIP3    H251407   2.371   2.546   1.136  0.1621 -0.2740  0.4564
 9998TIP3   OH251408   1.230   6.529   1.391  0.1053 -0.4746  0.0944
 9998TIP3    H151409   1.227   6.555   1.484 -1.6970 -0.5914  0.1091
 9998TIP3    H251410   1.321   6.544   1.365  0.4842  0.2485  1.6856
 9999TIP3   OH251411   4.542   3.131   0.314  0.6348  0.0832  0.1992
 9999TIP3    H151412   4.485   3.057   0.331  0.2944  0.5744  1.3426
 9999TIP3    H251413   4.488   3.194   0.268 -0.1953  1.0718  2.3867
10000TIP3   OH251414   6.023   1.351   2.657 -0.2561  0.0113 -0.7201
10000TIP3    H151415   5.968   1.288   2.703  1.3631 -0.1560  1.1107
10000TIP3    H251416   6.075   1.297   2.597  1.2182 -0.4837  0.9350
10001TIP3   OH251417   6.144   3.933   5.182 -0.6082  0.0161  0.1002
10001TIP3    H151418   6.058   3.949   5.221 -1.7875 -1.7794 -1.5685
10001TIP3    H251419   6.146   3.989   5.104 -0.0804  0.3620  0.3580
10002TIP3   OH251420   3.345   4.156  14.972  0.1346  0.2289  0.1550
10002TIP3    H151421   3.325   4.179  14.881 -1.4790  1.3236  0.7401
10002TIP3    H251422   3.440   4.168  14.979  0.2583  0.3462 -1.3261
10003TIP3   OH251423   3.190   6.653  12.824 -0.0381  0.3038 -0.0805
10003TIP3    H151424   3.146   6.631  12.906  0.2163  0.4169  0.0918
10003TIP3    H251425   3.234   6.736  12.843  0.9336 -0.2182  0.0244
10004TIP3   OH251426   5.419   1.503  12.671  0.7638 -0.2880 -0.3049
10004TIP3    H151427   5.344   1.559  12.689  0.2042 -0.8146 -0.9225
10004TIP3    H251428   5.490   1.540  12.724  0.3055  0.7349 -0.3797
10005TIP3   OH251429   0.184   5.494   2.859  0.4649  0.0964 -0.4501
10005TIP3    H151430   0.121   5.429   2.827  0.9710 -0.7308  0.1923
10005TIP3    H251431   0.208   5.545   2.781 -1.1774  0.6084 -0.6602
10006TIP3   OH251432   0.563   0.646  16.525  0.1042 -0.6103 -0.1327
10006TIP3    H151433   0.643   0.632  16.475 -0.3896  2.6625 -2.1196
10006TIP3    H251434   0.563   0.740  16.544 -1.5659 -1.1015  2.9975
10007TIP3   OH251435   2.515   5.383  13.902 -0.5852 -0.2264 -0.0236
10007TIP3    H151436   2.483   5.422  13.983 -0.1712 -1.4499  0.7625
10007TIP3    H251437   2.442   5.390  13.841 -1.1598  0.0411  0.6851
10008TIP3   OH251438   1.320   3.401  16.431 -0.2637 -0.4894 -0.2773
10008TIP3    H151439   1.267   3.480  16.442 -1.5558 -0.8210 -3.1978
10008TIP3    H251440   1.404   3.422  16.472 -1.0352  1.8755  0.2210
10009TIP3   OH251441   1.545   0.098  17.197  0.5455 -0.1675 -0.0810
10009TIP3    H151442   1.540   0.189  17.167  0.6350  0.3768  1.4741
10009TIP3    H251443   1.468   0.056  17.159 -0.0221  0.8091 -0.0308
10010TIP3   OH251444   0.713   0.540   2.710  0.2169  0.1230 -0.3390
10010TIP3    H151445   0.716   0.556   2.805 -0.3676 -1.3443 -0.0384
10010TIP3    H251446   0.684   0.623   2.673  1.4496  1.0444  0.6539
10011TIP3   OH251447   5.319   3.088  15.875  0.0044 -0.2828  0.2743
10011TIP3    H151448   5.376   3.163  15.861  0.2738 -0.5782 -0.2264
10011TIP3    H251449   5.378   3.016  15.897 -0.3053 -0.1669  1.5991
10012TIP3   OH251450   0.417   3.784   5.508  0.1492  0.5347  0.2015
10012TIP3    H151451   0.431   3.715   5.573 -1.2383  0.8771  0.9006
10012TIP3    H251452   0.417   3.738   5.424  0.0419 -0.2057  0.5938
10013TIP3   OH251453   2.236   4.654  11.699  0.0668  0.1310  0.0517
10013TIP3    H151454   2.213   4.742  11.727  0.9119  0.3971 -0.0657
10013TIP3    H251455   2.247   4.660  11.605  0.3866 -0.0436  0.0772
10014TIP3   OH251456   6.138   3.371   0.269  0.1424  0.3288  0.3871
10014TIP3    H151457   6.124   3.347   0.361  1.1633 -1.5136  0.0981
10014TIP3    H251458   6.099   3.299   0.219 -0.1487  1.1794 -0.6389
10015TIP3   OH251459   3.544   1.764   2.284 -0.1536  0.0315 -0.4077
10015TIP3    H151460   3.634   1.742   2.309 -0.5465  1.0139  2.1576
10015TIP3    H251461   3.550   1.851   2.245 -0.0486  0.3233  0.2545
10016TIP3   OH251462   6.519   4.243   4.113 -0.3468 -0.2412  0.3082
10016TIP3    H151463   6.494   4.203   4.029 -1.0641 -0.1418  0.4719
10016TIP3    H251464   6.498   4.336   4.103  1.7209  0.2329 -0.2274
10017TIP3   OH251465   5.279   6.108   2.622 -0.4003  0.0366  0.2346
10017TIP3    H151466   5.257   6.199   2.639 -0.1089 -0.0693  1.2681
10017TIP3    H251467   5.270   6.065   2.708  0.7477 -0.6304  0.0426
10018TIP3   OH251468   5.884   1.832   3.458 -0.6455  0.1514 -0.3659
10018TIP3    H151469   5.815   1.842   3.391 -0.6317  0.9758 -0.2613
10018TIP3    H251470   5.934   1.913   3.453 -1.5327  0.8841  1.6442
10019TIP3   OH251471   4.030   5.761   3.599  0.0665  0.8785 -0.0174
10019TIP3    H151472   3.947   5.743   3.554  0.7340 -0.1694 -0.8672
10019TIP3    H251473   4.010   5.749   3.692 -0.1730 -1.8639 -0.3562
10020TIP3   OH251474   6.261   2.286   0.213 -0.0229  0.1639 -0.3867
10020TIP3    H151475   6.218   2.214   0.258  0.9463 -0.3822 -0.3114
10020TIP3    H251476   6.199   2.311   0.144 -0.6236 -0.3354 -0.0461
10021TIP3   OH251477   4.356   1.539   4.992 -0.6385  0.2244  0.0168
10021TIP3    H151478   4.310   1.623   4.995  1.3019  1.3550  0.2523
10021TIP3    H251479   4.314   1.486   5.059 -0.2884  1.9564  1.7086
10022TIP3   OH251480   5.027   0.621   3.036  0.2164  0.4555 -0.0982
10022TIP3    H151481   5.089   0.694   3.045  1.6938 -0.9788  2.5152
10022TIP3    H251482   5.009   0.594   3.126 -1.5998 -1.3650 -0.9344
10023TIP3   OH251483   1.637   5.032   0.442 -0.2100  0.2909 -0.0396
10023TIP3    H151484   1.714   5.070   0.400 -1.9418  2.7914 -1.1718
10023TIP3    H251485   1.653   4.937   0.439  1.9762  0.6220 -1.8598
10024TIP3   OH251486   2.560   5.150  14.241 -0.6853 -0.1770  0.1215
10024TIP3    H151487   2.608   5.136  14.323 -1.2062  1.8019  0.8128
10024TIP3    H251488   2.581   5.240  14.216 -1.7637 -0.2404 -1.1136
10025TIP3   OH251489   1.799   0.004   2.078  0.1770 -0.5720 -0.2582
10025TIP3    H151490   1.814  -0.041   2.161 -0.3395  0.1635  0.2478
10025TIP3    H251491   1.734   0.071   2.099 -0.3997 -0.7590 -1.3880
10026TIP3   OH251492   2.171   5.860  14.508  0.2913  0.8936 -0.5214
10026TIP3    H151493   2.087   5.826  14.478 -0.6712  0.5656  2.2363
10026TIP3    H251494   2.153   5.951  14.533  0.5407  0.6331  0.6961
10027TIP3   OH251495   1.982   3.777   5.490  0.5094  0.1787 -0.2948
10027TIP3    H151496   1.966   3.704   5.550 -0.1886  1.2980  0.9421
10027TIP3    H251497   2.044   3.833   5.537 -1.9447  2.3605  0.5776
10028TIP3   OH251498   6.360   3.020   5.662 -0.3968 -1.0667  0.4693
10028TIP3    H151499   6.277   3.004   5.617 -0.0800  1.3685 -1.1941
10028TIP3    H251500   6.408   3.078   5.603  1.3693 -0.1926  2.6297
10029TIP3   OH251501   2.808   1.905   5.204 -0.0253 -0.2361 -0.2393
10029TIP3    H151502   2.877   1.912   5.269 -0.7752  0.1420  0.5495
10029TIP3    H251503   2.837   1.838   5.144  0.3032 -1.2253  0.9836
10030TIP3   OH251504   0.508   0.300  14.202 -0.8224 -0.1450 -0.4608
10030TIP3    H151505   0.565   0.301  14.125  0.4370  0.8040  0.4544
10030TIP3    H251506   0.508   0.390  14.234 -3.3862  0.0465 -0.7799
10031TIP3   OH251507   4.235   0.934   4.225 -0.3275 -0.1430  0.4729
10031TIP3    H151508   4.303   0.958   4.287 -0.0252  0.3861 -0.0573
10031TIP3    H251509   4.278   0.872   4.165 -0.5192 -0.3816  0.5803
10032TIP3   OH251510   1.401   6.285   2.272 -0.1615 -0.1718  0.1545
10032TIP3    H151511   1.344   6.312   2.344 -0.7676  0.6706 -0.6266
10032TIP3    H251512   1.348   6.222   2.222  0.8462 -2.0257  1.3442
10033TIP3   OH251513   5.110   5.861  13.653  0.4716 -0.0559 -0.0932
10033TIP3    H151514   5.089   5.847  13.561  0.3459  0.4934 -0.1505
10033TIP3    H251515   5.046   5.925  13.683  1.4089  0.8808 -0.0162
10034TIP3   OH251516   0.634   4.126  13.607  0.4793  0.2410  0.5878
10034TIP3    H151517   0.699   4.179  13.653  1.4690  0.0847 -0.5745
10034TIP3    H251518   0.681   4.092  13.530 -1.0862  0.4939 -0.5342
10035TIP3   OH251519   5.321   0.300  11.174  0.2943  0.2401  0.0723
10035TIP3    H151520   5.259   0.300  11.101 -0.7881  0.3314  0.9575
10035TIP3    H251521   5.360   0.388  11.172 -0.2298  0.4752  0.0090
10036TIP3   OH251522   4.251   2.285  17.003  0.3850  0.0665  1.3185
10036TIP3    H151523   4.214   2.309  16.918 -0.6233  0.9335  1.9668
10036TIP3    H251524   4.308   2.211  16.984  1.8344  1.5154 -0.4495
10037TIP3   OH251525   2.648   1.985  12.332 -0.1737  0.5460  0.3292
10037TIP3    H151526   2.634   1.890  12.332 -0.9570  0.6221 -1.3379
10037TIP3    H251527   2.570   2.021  12.374  0.1257  0.4671  0.9665
10038TIP3   OH251528   3.205   4.436  12.924 -0.1262 -0.2618  0.3046
10038TIP3    H151529   3.284   4.406  12.968 -0.3135  0.2216  0.9728
10038TIP3    H251530   3.171   4.358  12.881  0.8449 -0.4281 -0.2072
10039TIP3   OH251531   0.424   1.260  16.915 -0.0848  0.5865 -0.7072
10039TIP3    H151532   0.445   1.246  16.823  0.8582  1.1585 -0.5966
10039TIP3    H251533   0.467   1.187  16.960  1.7324  1.7219 -0.4869
10040TIP3   OH251534   4.682   4.541  11.371  0.4246 -0.4873 -1.0535
10040TIP3    H151535   4.663   4.494  11.452  1.0845  1.8636  0.5409
10040TIP3    H251536   4.624   4.616  11.372 -0.6893 -1.2134 -3.6159
10041TIP3   OH251537   4.177   4.841  17.266  0.3769 -0.3719  0.6616
10041TIP3    H151538   4.242   4.804  17.206 -0.2901 -1.9348  0.8527
10041TIP3    H251539   4.102   4.782  17.259 -1.0906  1.4550  0.3636
10042TIP3   OH251540   1.537   4.368   1.789  0.3740 -0.1327  0.7596
10042TIP3    H151541   1.632   4.353   1.783  0.5301  1.2734 -1.2157
10042TIP3    H251542   1.505   4.297   1.844  2.5469 -0.7536  1.3319
10043TIP3   OH251543   3.587   2.574   5.158 -0.0810 -0.5151 -0.3827
10043TIP3    H151544   3.572   2.659   5.199 -1.5181 -0.7017 -0.4887
10043TIP3    H251545   3.551   2.510   5.220 -1.2863 -0.8693 -1.4066
10044TIP3   OH251546   4.573   5.797  14.431 -0.1294  0.5715 -0.2341
10044TIP3    H151547   4.553   5.876  14.481  1.9500  1.2657 -0.4073
10044TIP3    H251548   4.493   5.778  14.382 -1.4457  1.2039  1.5727
10045TIP3   OH251549   3.415   1.478   6.282  0.0572  0.3233 -0.0913
10045TIP3    H151550   3.371   1.562   6.297  0.8613  0.8315 -0.5042
10045TIP3    H251551   3.416   1.435   6.368 -0.9937  0.4132 -0.0214
10046TIP3   OH251552   5.494   0.551  15.586  0.1300 -0.2359  0.6659
10046TIP3    H151553   5.538   0.546  15.501 -1.1261  0.7258 -0.0782
10046TIP3    H251554   5.552   0.505  15.646  0.2900 -2.3668 -1.0107
10047TIP3   OH251555   3.895   5.752   4.936 -0.5497  0.0922  0.2409
10047TIP3    H151556   3.844   5.710   4.866 -0.3892 -0.5051  0.4753
10047TIP3    H251557   3.923   5.835   4.898 -2.0809  0.6491  0.2567
10048TIP3   OH251558   6.008   0.132   4.448 -0.1868 -0.2378 -0.7050
10048TIP3    H151559   5.956   0.212   4.452 -1.4952 -1.0952  0.1387
10048TIP3    H251560   5.977   0.087   4.370  0.1555 -0.2029 -0.8652
10049TIP3   OH251561   2.416   0.291   5.236  0.1554  0.3573 -0.1625
10049TIP3    H151562   2.491   0.232   5.233 -1.1452 -1.4012  0.3777
10049TIP3    H251563   2.444   0.369   5.188  1.6747 -0.9926 -1.5613
10050TIP3   OH251564   6.226   1.479   3.552  0.1936  0.9584  0.3952
10050TIP3    H151565   6.238   1.559   3.502 -0.4710  1.2111  0.6358
10050TIP3    H251566   6.315   1.444   3.563  0.3254  0.7154 -1.2383
10051TIP3   OH251567   3.969   3.432  14.164 -0.5363  0.0463 -0.7747
10051TIP3    H151568   3.889   3.397  14.125 -0.3214 -2.1411  0.5708
10051TIP3    H251569   3.954   3.428  14.259  1.3566 -1.1104 -0.4480
10052TIP3   OH251570   5.719   5.866  14.420  0.1714  0.4027 -0.6710
10052TIP3    H151571   5.805   5.898  14.447  0.0610  1.6480 -1.6945
10052TIP3    H251572   5.736   5.812  14.343 -0.1046  2.3981 -2.2103
10053TIP3   OH251573   3.186   3.203   0.374 -0.2065 -0.0643  0.0978
10053TIP3    H151574   3.134   3.279   0.399  0.4394  1.3574 -2.5432
10053TIP3    H251575   3.130   3.156   0.311  0.8319  0.3362 -1.1608
10054TIP3   OH251576   2.914   4.653  16.510 -0.1787  0.2966  0.1014
10054TIP3    H151577   2.842   4.686  16.562 -2.5225 -0.2402 -2.5368
10054TIP3    H251578   2.914   4.559  16.525  0.6016  0.3943  0.7785
10055TIP3   OH251579   5.766   6.231   4.194  0.7592  0.0055  0.0173
10055TIP3    H151580   5.738   6.268   4.277  2.2044  0.3529  0.3814
10055TIP3    H251581   5.822   6.157   4.218 -0.6084 -1.3298 -0.6858
10056TIP3   OH251582   2.967   3.844  16.968  0.3772 -0.0257  0.4780
10056TIP3    H151583   2.934   3.923  16.924  0.2058 -0.4864 -0.2388
10056TIP3    H251584   2.971   3.778  16.899 -0.2608 -0.8789  1.2251
10057TIP3   OH251585   5.926   5.162  16.329  0.7336  0.0042 -0.0692
10057TIP3    H151586   5.875   5.193  16.254 -1.7183 -0.8725  1.0988
10057TIP3    H251587   6.008   5.131  16.292  1.0420  2.7366 -1.9267
10058TIP3   OH251588   0.991   1.170   4.830 -0.2214  0.5189 -0.3828
10058TIP3    H151589   1.014   1.082   4.798 -2.4457 -0.1567 -0.2878
10058TIP3    H251590   1.061   1.192   4.891  1.1762 -0.5321 -1.5195
10059TIP3   OH251591   2.002   2.485  14.685 -0.2350 -0.3029  0.1564
10059TIP3    H151592   2.015   2.572  14.722 -3.3272  0.5769 -0.5365
10059TIP3    H251593   2.050   2.426  14.743 -0.3575  1.5644  2.2764
10060TIP3   OH251594   3.202   5.375   3.017  0.0436  0.3457 -0.2421
10060TIP3    H151595   3.113   5.341   3.022  0.8923 -1.8701  1.1509
10060TIP3    H251596   3.225   5.394   3.107  1.5300 -0.6601 -0.3854
10061TIP3   OH251597   6.134   3.281   5.822 -0.2056 -0.0449 -0.7543
10061TIP3    H151598   6.138   3.187   5.841 -0.3931 -0.0950 -0.9613
10061TIP3    H251599   6.146   3.287   5.727 -3.3538 -0.0982 -1.2468
10062TIP3   OH251600   4.588   4.912   4.954 -0.1229 -0.4992  0.4819
10062TIP3    H151601   4.654   4.953   4.897 -2.2782  2.1564 -0.3219
10062TIP3    H251602   4.640   4.872   5.024  2.4232 -0.2461 -1.1036
10063TIP3   OH251603   6.507   1.568  10.837  0.1947  0.3414  0.5041
10063TIP3    H151604   6.418   1.546  10.863 -0.0707  0.9401  0.1375
10063TIP3    H251605   6.503   1.661  10.816  1.3950  0.9559  2.6179
10064TIP3   OH251606   1.525   0.782   3.401 -0.8370 -0.5802  0.4764
10064TIP3    H151607   1.566   0.861   3.435 -0.4995 -1.0268  1.1158
10064TIP3    H251608   1.484   0.810   3.319  0.6835 -0.1107 -0.1536
10065TIP3   OH251609   3.624   2.158  15.738 -0.4109 -0.1145  0.0784
10065TIP3    H151610   3.595   2.234  15.788 -0.1934  0.1725 -0.2243
10065TIP3    H251611   3.711   2.138  15.771 -0.2900  0.0409 -0.1363
10066TIP3   OH251612   1.465   2.228   0.035 -0.2557  0.2399 -0.0966
10066TIP3    H151613   1.422   2.159  -0.016  1.6394 -0.5092 -0.7673
10066TIP3    H251614   1.558   2.207   0.030  0.1450  1.1127  2.3030
10067TIP3   OH251615   5.693   1.907  14.465 -0.1134 -0.7491  0.2515
10067TIP3    H151616   5.664   1.817  14.452 -1.0412 -0.5804  1.0712
10067TIP3    H251617   5.640   1.940  14.537  0.6033  0.2825  0.3399
10068TIP3   OH251618   6.546   4.420  17.022  0.1677 -0.3547 -0.3749
10068TIP3    H151619   6.499   4.460  16.949  0.7307  1.0145 -0.0134
10068TIP3    H251620   6.619   4.479  17.039  0.8424 -1.3677  0.4127
10069TIP3   OH251621   1.609   0.480  16.839 -0.2565  0.3914  0.0988
10069TIP3    H151622   1.627   0.546  16.772  1.2061 -0.9501 -0.9019
10069TIP3    H251623   1.574   0.405  16.790 -0.6328 -0.0531  1.0316
10070TIP3   OH251624   0.012   5.614   5.974 -0.0218  0.5728  0.5635
10070TIP3    H151625  -0.067   5.596   5.923  0.2405 -0.9431  0.6646
10070TIP3    H251626  -0.013   5.595   6.064  0.7682 -1.0660  0.4621
10071TIP3   OH251627   3.651   5.419   5.849 -0.2956  0.1039 -0.2670
10071TIP3    H151628   3.651   5.508   5.885 -0.2189 -0.0788  0.1869
10071TIP3    H251629   3.730   5.416   5.794 -0.4966  0.4315 -0.5768
10072TIP3   OH251630   1.798   1.082  11.913  0.3431 -0.2078 -0.1783
10072TIP3    H151631   1.787   1.164  11.961 -0.0905  0.1783 -0.9200
10072TIP3    H251632   1.876   1.041  11.951  1.6621  1.4188 -1.0098
10073TIP3   OH251633   1.538   0.018  15.862 -0.1237 -0.3983 -0.2553
10073TIP3    H151634   1.546   0.072  15.941 -1.3483 -0.1050 -0.3003
10073TIP3    H251635   1.536   0.082  15.790  1.1013 -0.6710 -0.5476
10074TIP3   OH251636   2.570   2.894  15.261 -0.0474 -0.1356 -0.6627
10074TIP3    H151637   2.631   2.968  15.262 -1.4463  1.1782  3.2574
10074TIP3    H251638   2.485   2.933  15.238 -0.4357 -0.9090 -0.5882
10075TIP3   OH251639   2.912   0.832   4.882 -0.4123 -0.5095  0.1666
10075TIP3    H151640   2.911   0.790   4.968 -1.3899  0.3131  0.5817
10075TIP3    H251641   2.903   0.760   4.820 -2.3621 -0.9415  0.8742
10076TIP3   OH251642   1.324   0.055   0.835  0.0750  0.1236 -0.2878
10076TIP3    H151643   1.375  -0.026   0.845  1.4726  0.8799 -1.0395
10076TIP3    H251644   1.238   0.033   0.871  0.3954 -1.7184 -0.5301
10077TIP3   OH251645   6.611   4.262   1.635 -0.1485 -0.3686 -0.6542
10077TIP3    H151646   6.527   4.306   1.652  0.6455  0.5661  1.1138
10077TIP3    H251647   6.598   4.173   1.667 -0.0922  0.1389  0.8533
10078TIP3   OH251648   5.570   6.704  16.711  0.7277 -0.1960  0.6221
10078TIP3    H151649   5.561   6.650  16.633 -1.7533 -0.4169  0.9896
10078TIP3    H251650   5.575   6.794  16.678 -1.6650 -0.1671  0.1696
10079TIP3   OH251651   0.364   3.218   5.777 -0.4766  0.0366  0.1878
10079TIP3    H151652   0.447   3.183   5.810 -0.1670  0.4223 -0.1600
10079TIP3    H251653   0.325   3.262   5.852 -0.3002 -0.0285  0.3203
10080TIP3   OH251654   4.664   3.289   6.214  0.1115  0.5814 -0.5273
10080TIP3    H151655   4.592   3.251   6.265  0.4641  0.9194  0.2255
10080TIP3    H251656   4.663   3.240   6.131 -1.0980  0.7020 -0.6035
10081TIP3   OH251657   0.338   6.142  11.883  0.8227 -0.2222  0.1057
10081TIP3    H151658   0.301   6.054  11.874 -1.5920  0.6247  0.8557
10081TIP3    H251659   0.417   6.140  11.829 -0.9640 -1.8646 -2.7651
10082TIP3   OH251660   1.832   3.497  16.087 -0.0009  0.6609  0.3229
10082TIP3    H151661   1.889   3.574  16.082  1.2533 -0.1920  0.9882
10082TIP3    H251662   1.892   3.423  16.080 -1.0879 -0.2695  0.6176
10083TIP3   OH251663   6.290   0.383  16.120 -0.0002  0.0858 -0.2610
10083TIP3    H151664   6.352   0.315  16.147  0.7102  0.1674 -1.6077
10083TIP3    H251665   6.327   0.464  16.155 -0.2088 -0.0584  0.3071
10084TIP3   OH251666   6.299   6.282   1.272 -0.4111  0.0375 -0.4084
10084TIP3    H151667   6.362   6.241   1.332  0.0525  1.8335  0.3893
10084TIP3    H251668   6.265   6.209   1.221 -0.8326 -1.5883  2.0216
10085TIP3   OH251669   3.393   2.422   4.625  0.5085  0.5223  1.1245
10085TIP3    H151670   3.331   2.400   4.556  1.0428 -1.2758  1.1846
10085TIP3    H251671   3.346   2.486   4.679 -0.3906  0.9924 -0.1557
10086TIP3   OH251672   2.841   4.947  15.933  0.1905  0.6024  0.0195
10086TIP3    H151673   2.799   4.980  16.013 -0.7162  0.5295 -0.4149
10086TIP3    H251674   2.770   4.943  15.869  0.7785  0.0469 -0.6071
10087TIP3   OH251675   4.870   4.058   4.552  0.2787  0.0787  0.2592
10087TIP3    H151676   4.957   4.021   4.568 -0.2967 -1.4302  0.0838
10087TIP3    H251677   4.881   4.116   4.477  1.2809  0.5170  0.7349
10088TIP3   OH251678   6.142   4.926   6.344  0.1800  0.3797  0.0324
10088TIP3    H151679   6.165   4.850   6.292  0.4395  0.3311  0.2143
10088TIP3    H251680   6.225   4.972   6.358  0.3222 -0.2486  1.4125
10089TIP3   OH251681   3.843   1.264   5.120  0.0066  0.4667 -0.0871
10089TIP3    H151682   3.764   1.273   5.173 -0.2716 -1.2958 -0.1491
10089TIP3    H251683   3.819   1.302   5.035 -0.2906  1.2166  0.3212
10090TIP3   OH251684   3.843   1.747  12.475 -0.2156  0.6877  0.0818
10090TIP3    H151685   3.920   1.804  12.477  0.2177  0.1024  1.6840
10090TIP3    H251686   3.772   1.802  12.508 -0.1939  0.8397 -0.1252
10091TIP3   OH251687   4.070   1.159   2.310 -0.9777  0.0614  0.7322
10091TIP3    H151688   4.165   1.151   2.301 -1.0255  0.2097  0.0276
10091TIP3    H251689   4.057   1.247   2.346 -0.8518  0.0425  0.8266
10092TIP3   OH251690   3.634   2.909  15.712  0.1515 -0.2004  0.2034
10092TIP3    H151691   3.600   2.972  15.648  0.6978 -0.2192 -0.1163
10092TIP3    H251692   3.706   2.865  15.666  0.8728  0.1195  0.9833
10093TIP3   OH251693   6.249   0.974   5.946  0.3492 -0.0823  0.5429
10093TIP3    H151694   6.207   1.058   5.961 -1.3448 -0.8298  0.1606
10093TIP3    H251695   6.317   0.992   5.880 -0.5373  0.8384 -0.1451
10094TIP3   OH251696   5.707   3.267   1.168 -0.1436 -0.5842  0.2040
10094TIP3    H151697   5.651   3.328   1.121  0.4893  0.1110  0.3423
10094TIP3    H251698   5.765   3.230   1.101  1.0648  0.7459  0.4856
10095TIP3   OH251699   5.656   1.777  11.422  0.3023 -0.0709 -0.1526
10095TIP3    H151700   5.626   1.838  11.489 -1.3543 -2.8582  1.8579
10095TIP3    H251701   5.746   1.804  11.404  0.3397  1.6644  2.1508
10096TIP3   OH251702   3.765   3.771   4.401 -0.1877 -0.2578  0.0351
10096TIP3    H151703   3.838   3.789   4.341 -0.5794 -1.4424 -0.8439
10096TIP3    H251704   3.802   3.712   4.466 -0.0370  0.1846  0.3567
10097TIP3   OH251705   0.315   3.672  11.625  0.0341 -0.6164  0.1471
10097TIP3    H151706   0.397   3.623  11.625  0.9195  0.5933 -2.8473
10097TIP3    H251707   0.260   3.627  11.561 -0.0771  0.7942 -0.8008
10098TIP3   OH251708   2.500   4.860  16.573 -0.1533 -0.4914 -0.2610
10098TIP3    H151709   2.494   4.776  16.528  1.1779 -0.2127 -0.9987
10098TIP3    H251710   2.571   4.848  16.636  2.1200  0.9321 -2.4017
10099TIP3   OH251711   2.569   3.564   2.503 -0.2374 -0.4954  0.2678
10099TIP3    H151712   2.631   3.619   2.454  0.5888  0.9441  2.7314
10099TIP3    H251713   2.483   3.601   2.483 -0.1133 -1.0122 -1.3533
10100TIP3   OH251714   6.381   3.153  15.375 -0.5229  0.0362 -0.5174
10100TIP3    H151715   6.297   3.199  15.366 -0.3726  0.6351  0.8467
10100TIP3    H251716   6.403   3.163  15.468  2.0184  1.5942 -1.1996
10101TIP3   OH251717   5.765   0.546  11.310 -0.1302 -0.3067 -0.2814
10101TIP3    H151718   5.674   0.517  11.299  0.0371 -1.1888  0.4955
10101TIP3    H251719   5.787   0.587  11.227 -1.3128  0.1377 -0.3978
10102TIP3   OH251720   1.181   0.721   2.553  0.3712  0.0022 -0.2109
10102TIP3    H151721   1.199   0.639   2.600 -1.5815 -0.2285  0.1892
10102TIP3    H251722   1.267   0.762   2.544  1.3076 -1.7609  0.1813
10103TIP3   OH251723   0.975   5.162  11.243 -0.3496 -0.0135  0.5791
10103TIP3    H151724   0.969   5.163  11.339 -0.5135 -0.8482  0.5853
10103TIP3    H251725   0.895   5.116  11.215  0.3551 -0.9949  0.1142
10104TIP3   OH251726   0.345   1.128   5.317 -0.1242  0.1171  0.1601
10104TIP3    H151727   0.399   1.049   5.313  0.9419  0.8057  0.7914
10104TIP3    H251728   0.275   1.105   5.378 -0.7169 -0.8462 -0.8221
10105TIP3   OH251729   6.196   0.392  12.941  0.0011  0.6350 -0.4457
10105TIP3    H151730   6.206   0.297  12.951  2.3415  0.4921 -2.9175
10105TIP3    H251731   6.259   0.429  13.003  0.4513  0.4941 -0.8154
10106TIP3   OH251732   5.511   1.074   0.466  0.2738 -0.3253 -0.3422
10106TIP3    H151733   5.467   1.090   0.550 -0.2435 -3.4192  0.0939
10106TIP3    H251734   5.590   1.026   0.490  0.1746 -1.1527 -1.6059
10107TIP3   OH251735   5.346   5.275   3.309  0.1199  0.3219 -0.3045
10107TIP3    H151736   5.380   5.276   3.220 -1.8895 -1.4027 -1.1665
10107TIP3    H251737   5.255   5.246   3.301 -0.3108  0.6796  2.2560
10108TIP3   OH251738   2.686   1.489  17.151  0.0780 -0.8357 -0.0716
10108TIP3    H151739   2.682   1.397  17.180 -0.9456 -1.2062 -1.3115
10108TIP3    H251740   2.653   1.487  17.061  2.5122  0.3861 -1.0623
10109TIP3   OH251741   5.026   5.128   2.739 -0.1568 -0.4997 -0.4481
10109TIP3    H151742   5.043   5.203   2.681 -1.3718 -1.0047 -1.5012
10109TIP3    H251743   4.966   5.073   2.690 -0.3587 -1.5047  0.8746
10110TIP3   OH251744   5.902   3.060   1.063 -0.0593  0.3220  0.4956
10110TIP3    H151745   5.901   3.004   1.140 -1.5757 -0.5959 -0.1475
10110TIP3    H251746   5.943   3.141   1.093 -0.4730 -0.0687  2.2347
10111TIP3   OH251747   2.065   2.088  11.667  0.1838 -0.3684  0.0338
10111TIP3    H151748   2.124   2.112  11.739 -0.2641  1.0576 -0.0595
10111TIP3    H251749   2.095   2.000  11.641  3.1516  0.8047 -0.9218
10112TIP3   OH251750   2.637   1.029  16.930  0.5122  0.1025 -0.4317
10112TIP3    H151751   2.624   0.988  16.845 -0.8610  0.7586 -0.5786
10112TIP3    H251752   2.698   1.101  16.913  1.4754 -0.7167 -0.5295
10113TIP3   OH251753   1.447   5.740   1.045  0.3647 -0.2151  0.3341
10113TIP3    H151754   1.417   5.672   0.985 -1.4148 -0.2511  1.1820
10113TIP3    H251755   1.406   5.820   1.013  0.1490 -0.0689  0.9716
10114TIP3   OH251756   5.073   5.119   5.824  0.4367  0.0188 -0.7741
10114TIP3    H151757   5.006   5.110   5.892 -0.2392 -0.8772 -1.5307
10114TIP3    H251758   5.106   5.209   5.834 -1.9514  1.0258 -1.3524
10115TIP3   OH251759   5.627   4.575  15.567 -0.3343  0.1457 -0.7714
10115TIP3    H151760   5.536   4.545  15.563  0.3371 -2.0288 -1.6869
10115TIP3    H251761   5.629   4.655  15.514 -1.8505  0.6692 -0.0721
10116TIP3   OH251762   0.685   1.337   2.476 -0.0696 -0.1432 -0.7587
10116TIP3    H151763   0.746   1.276   2.434 -0.1775 -0.3362 -0.6357
10116TIP3    H251764   0.637   1.283   2.539  0.1048  0.1471 -0.3756
10117TIP3   OH251765   6.692   4.866  11.776  0.5401  0.0580 -0.4853
10117TIP3    H151766   6.736   4.798  11.726  1.2092  0.1453 -0.0240
10117TIP3    H251767   6.756   4.937  11.782  0.3665  0.1570  0.2589
10118TIP3   OH251768   1.355   6.328  12.098  0.0226 -0.0025  0.4544
10118TIP3    H151769   1.408   6.306  12.175 -0.1059 -0.1545  0.4980
10118TIP3    H251770   1.406   6.293  12.024  0.3564  0.5157  0.4290
10119TIP3   OH251771   5.447   1.645  11.796 -0.0165 -0.1713  0.4714
10119TIP3    H151772   5.482   1.729  11.765 -1.6335 -0.2885 -2.0336
10119TIP3    H251773   5.507   1.617  11.864  1.5605  2.1844  0.1724
10120TIP3   OH251774   1.587   0.305   3.129  0.2333  0.1530 -0.1031
10120TIP3    H151775   1.537   0.386   3.141  1.6600  0.9881  0.4039
10120TIP3    H251776   1.541   0.240   3.182 -0.1961  0.9545  0.5260
10121TIP3   OH251777   6.555   3.599  17.262  0.7202 -0.5694  0.3257
10121TIP3    H151778   6.524   3.681  17.300 -2.3204 -0.7035 -1.4742
10121TIP3    H251779   6.566   3.618  17.169 -0.4940 -2.2314 -0.2194
10122TIP3   OH251780   5.375   1.430  16.812  0.4795 -0.5543 -0.1226
10122TIP3    H151781   5.282   1.452  16.816  0.6865  0.9510 -1.7743
10122TIP3    H251782   5.419   1.515  16.814  1.7364 -1.1700 -0.6724
10123TIP3   OH251783   2.473   1.621   4.229  0.1120 -0.1975 -0.1387
10123TIP3    H151784   2.501   1.638   4.318 -1.2566  0.2942  0.2283
10123TIP3    H251785   2.413   1.546   4.236 -0.0574 -0.1170 -0.6220
10124TIP3   OH251786   1.881   1.197  17.062  0.2562  0.0489  0.2088
10124TIP3    H151787   1.874   1.259  16.990  1.2697  0.0493  0.1051
10124TIP3    H251788   1.791   1.166  17.076  0.1296 -0.3873 -1.4319
10125TIP3   OH251789   0.971   0.080  13.117  0.3589  0.1715 -0.3789
10125TIP3    H151790   1.013   0.109  13.198  2.1018  0.5795 -1.3966
10125TIP3    H251791   0.921   0.156  13.088 -0.7521 -0.1586  0.5759
10126TIP3   OH251792   3.346   4.422   4.483 -0.3431  0.1182  0.0922
10126TIP3    H151793   3.292   4.499   4.498  0.6206  0.9438 -0.5388
10126TIP3    H251794   3.429   4.457   4.450  0.0414 -1.1939 -0.3914
10127TIP3   OH251795   0.260   4.159   2.801 -0.4421 -0.4445 -0.0627
10127TIP3    H151796   0.284   4.237   2.750  1.7915 -2.0407 -1.6612
10127TIP3    H251797   0.168   4.145   2.782 -0.5959  1.1597 -0.6469
10128TIP3   OH251798   3.315   4.382   2.090  0.1867  0.2917 -0.9461
10128TIP3    H151799   3.355   4.347   2.011  0.1308  0.6556 -1.1396
10128TIP3    H251800   3.258   4.312   2.121  1.0118 -0.2623 -0.6306
10129TIP3   OH251801   0.969   0.301  11.327  0.1115 -0.0354 -0.1886
10129TIP3    H151802   1.006   0.240  11.263 -0.6724 -1.7939  0.9426
10129TIP3    H251803   0.921   0.365  11.274  0.3458 -0.8279 -1.4102
10130TIP3   OH251804   3.459   2.129  15.251 -0.3081 -0.2489  0.1100
10130TIP3    H151805   3.428   2.047  15.288 -0.2550 -0.1586  0.3621
10130TIP3    H251806   3.488   2.180  15.327 -0.7335  0.1674  0.0032
10131TIP3   OH251807   1.883   4.183  11.465 -0.1604  0.6931  0.3828
10131TIP3    H151808   1.845   4.175  11.378 -0.0343  1.3945  0.2526
10131TIP3    H251809   1.809   4.178  11.525 -0.2487  0.2235  0.2385
10132TIP3   OH251810   3.686   0.179   4.753 -0.5020  0.2737 -0.0427
10132TIP3    H151811   3.664   0.216   4.839  1.0714  1.0906  0.0425
10132TIP3    H251812   3.641   0.234   4.690 -0.4607  0.5947  0.2080
10133TIP3   OH251813   6.569   1.531   6.517  0.0069 -0.2244  0.0716
10133TIP3    H151814   6.567   1.503   6.608 -1.1407 -0.0585  0.1183
10133TIP3    H251815   6.652   1.577   6.507  0.7490 -1.4053  0.6659
10134TIP3   OH251816   3.897   3.578  16.352  0.0756  0.0946 -0.6221
10134TIP3    H151817   3.875   3.630  16.429  0.9416  0.3810 -0.5636
10134TIP3    H251818   3.930   3.642  16.289  3.3606 -0.5781  0.2495
10135TIP3   OH251819   6.556   1.986  11.419  0.1593 -0.3413 -0.0400
10135TIP3    H151820   6.624   2.051  11.439  0.9870 -1.4936  1.0109
10135TIP3    H251821   6.603   1.914  11.378 -0.4929 -0.9853  0.3272
10136TIP3   OH251822   3.088   2.773   2.411 -0.4210  0.3439  0.4214
10136TIP3    H151823   3.036   2.839   2.456 -1.3999  0.1774 -0.4287
10136TIP3    H251824   3.024   2.705   2.386  0.4615 -0.6297  0.7496
10137TIP3   OH251825   2.448   2.205   5.689  0.5653  0.3481  0.3060
10137TIP3    H151826   2.369   2.234   5.735  0.8625  2.4690 -0.4207
10137TIP3    H251827   2.483   2.134   5.744 -1.8875 -0.7885  0.5549
10138TIP3   OH251828   2.644   6.240   2.695 -0.3956  0.4091  0.6694
10138TIP3    H151829   2.554   6.243   2.726 -0.0410  1.4323  1.6963
10138TIP3    H251830   2.637   6.233   2.600 -1.5376 -0.9082  0.8216
10139TIP3   OH251831   0.777   6.529  12.251 -0.3236  0.4046  0.0589
10139TIP3    H151832   0.722   6.509  12.326 -1.2886 -2.3691 -1.2292
10139TIP3    H251833   0.723   6.507  12.175  0.9144  2.2278 -1.4559
10140TIP3   OH251834   4.394   5.728  16.031 -0.1152 -0.1563  0.0509
10140TIP3    H151835   4.470   5.786  16.031  0.1095 -0.4171  1.2003
10140TIP3    H251836   4.325   5.779  15.990  0.6921  0.0545 -1.0927
10141TIP3   OH251837   2.223   1.172   3.652 -0.6111 -0.4254 -0.4174
10141TIP3    H151838   2.272   1.093   3.677  0.1118 -0.2521 -1.2542
10141TIP3    H251839   2.164   1.142   3.582 -1.8037 -0.6557  0.6514
10142TIP3   OH251840   2.051   2.852  15.538 -0.5250 -0.1707 -0.2034
10142TIP3    H151841   2.098   2.930  15.509  0.0560 -0.2413  0.5290
10142TIP3    H251842   2.028   2.870  15.629 -1.7969 -0.2042 -0.4910
10143TIP3   OH251843   3.501   3.232  14.544 -0.3047  0.6634  0.7226
10143TIP3    H151844   3.534   3.144  14.530 -2.1434  0.0902 -0.3691
10143TIP3    H251845   3.438   3.223  14.616 -1.6663  0.7428 -0.4324
10144TIP3   OH251846   1.399   0.953   3.827 -0.1846  0.0375  0.0397
10144TIP3    H151847   1.463   0.888   3.856 -0.3247  0.3049  0.9984
10144TIP3    H251848   1.451   1.030   3.805 -0.2307  0.9530  2.7199
10145TIP3   OH251849   2.770   2.774  12.297  0.0220  0.0648  0.0014
10145TIP3    H151850   2.702   2.719  12.336 -0.4352 -0.7802 -1.8754
10145TIP3    H251851   2.764   2.857  12.345 -3.0571  0.3824 -0.7075
10146TIP3   OH251852   2.198   0.046   2.441  0.3662 -0.0417  0.3203
10146TIP3    H151853   2.187   0.042   2.346 -0.1613 -0.5849  0.4004
10146TIP3    H251854   2.281   0.092   2.454  0.2066  0.4510 -0.3921
10147TIP3   OH251855   6.701   3.976  11.000  0.0247 -0.5389  0.3291
10147TIP3    H151856   6.716   3.896  10.950 -0.0149 -1.4842  1.7749
10147TIP3    H251857   6.741   4.045  10.947 -0.1947 -1.4556 -1.0829
10148TIP3   OH251858   6.284   1.561  14.861  0.3917 -0.0140 -0.6663
10148TIP3    H151859   6.328   1.576  14.778 -0.9016  0.4476 -1.2843
10148TIP3    H251860   6.335   1.611  14.925  1.7216 -0.8227 -1.0600
10149TIP3   OH251861   0.510   6.369   1.590  0.6149 -0.0832  0.1494
10149TIP3    H151862   0.447   6.432   1.554  1.5498  0.8136  0.0398
10149TIP3    H251863   0.459   6.317   1.652 -0.6967 -0.7115 -1.4017
10150TIP3   OH251864   4.498   0.512   5.035  0.2107  0.2289 -0.2062
10150TIP3    H151865   4.522   0.493   4.944  0.3775 -0.3823 -0.0436
10150TIP3    H251866   4.581   0.528   5.079  0.3854 -1.9860  0.3787
10151TIP3   OH251867   4.181   6.654  13.263  0.9460 -0.8745 -0.4338
10151TIP3    H151868   4.179   6.572  13.311 -2.5511 -0.1185  0.9525
10151TIP3    H251869   4.167   6.629  13.171 -0.6296 -1.8546  0.0404
10152TIP3   OH251870   4.550   0.170   1.683  0.2106 -0.2301  0.6144
10152TIP3    H151871   4.490   0.166   1.758  0.3955  3.3160  1.1315
10152TIP3    H251872   4.626   0.119   1.712 -0.5818 -0.7156  1.9680
10153TIP3   OH251873   2.975   0.339  15.104 -0.1264  0.2813  0.3040
10153TIP3    H151874   2.990   0.295  15.021  0.3151 -1.5452  1.2901
10153TIP3    H251875   3.057   0.328  15.152 -0.4397  1.1330  1.0567
10154TIP3   OH251876   3.144   6.211   1.962 -0.3493  0.1031 -0.3350
10154TIP3    H151877   3.124   6.134   1.908  0.6828 -1.0334  0.8048
10154TIP3    H251878   3.065   6.225   2.015  0.6580 -2.6810  2.2326
10155TIP3   OH251879   1.065   1.226  17.057  0.3413 -0.1518  0.3122
10155TIP3    H151880   1.037   1.310  17.093  0.3561  0.8362 -1.8192
10155TIP3    H251881   0.991   1.167  17.073  0.0575  0.4347  1.2261
10156TIP3   OH251882   6.447   4.922  13.621 -0.6680  0.3373  0.0245
10156TIP3    H151883   6.397   4.951  13.544 -1.2173 -1.2759 -0.2673
10156TIP3    H251884   6.392   4.855  13.661  0.7440 -0.6569  0.3781
10157TIP3   OH251885   0.378   5.196  13.075 -0.0085  0.1496 -0.5684
10157TIP3    H151886   0.339   5.128  13.129  0.0369 -0.6670 -1.5443
10157TIP3    H251887   0.379   5.274  13.132  2.2447 -1.2157  1.4825
10158TIP3   OH251888   4.351   2.381   5.086 -0.1566 -0.3393 -0.1053
10158TIP3    H151889   4.349   2.405   5.178  0.8630  0.4737 -0.2856
10158TIP3    H251890   4.396   2.454   5.043  0.7566 -1.4094 -1.0225
10159TIP3   OH251891   5.397   5.397  11.538  0.6198  0.2473 -0.1984
10159TIP3    H151892   5.324   5.428  11.485 -0.4862 -2.6270 -0.5184
10159TIP3    H251893   5.456   5.354  11.475  0.3917 -1.2431  0.5547
10160TIP3   OH251894   3.223   0.302   2.268  0.0219 -0.1849  0.1186
10160TIP3    H151895   3.263   0.340   2.346  2.0659  0.4030 -1.1466
10160TIP3    H251896   3.285   0.321   2.198 -1.2940 -1.5450 -1.4837
10161TIP3   OH251897   6.452   5.836   1.153 -0.5812 -0.7558 -0.2842
10161TIP3    H151898   6.501   5.766   1.197  0.0521  0.1496  0.4864
10161TIP3    H251899   6.424   5.894   1.224  0.7113  0.9022 -1.0579
10162TIP3   OH251900   5.394   0.944   4.883 -0.0711 -0.2347 -0.1001
10162TIP3    H151901   5.318   0.998   4.901 -1.0032 -1.7564  0.6984
10162TIP3    H251902   5.466   1.007   4.872 -0.9589  1.1395  1.4859
10163TIP3   OH251903   4.078   3.056  14.236  0.6422  0.2450 -0.3661
10163TIP3    H151904   3.989   3.089  14.243  0.2714 -0.9637  1.1617
10163TIP3    H251905   4.130   3.134  14.214 -0.2046  1.9860  3.0055
10164TIP3   OH251906   2.157   1.646   2.406  0.2265 -0.5184  0.1698
10164TIP3    H151907   2.158   1.604   2.320 -1.5406 -0.0764 -0.0894
10164TIP3    H251908   2.247   1.679   2.417  0.5562 -0.8268 -1.3699
10165TIP3   OH251909   3.865   3.049  15.327 -0.5172  0.2270 -0.1908
10165TIP3    H151910   3.806   3.066  15.254 -1.7978  2.0636  1.1888
10165TIP3    H251911   3.864   2.954  15.337 -1.6698  0.0833 -1.4514
10166TIP3   OH251912   4.861   2.945  15.470  0.2430 -0.1311  0.0081
10166TIP3    H151913   4.913   3.009  15.518  1.4840 -0.9930 -0.1691
10166TIP3    H251914   4.793   2.919  15.531  0.6043  0.2611  0.5883
10167TIP3   OH251915   0.165   2.788   2.754  0.1056 -0.4980 -0.3163
10167TIP3    H151916   0.203   2.727   2.817 -0.9357  0.5840  1.4162
10167TIP3    H251917   0.241   2.833   2.716  0.7771 -1.5548 -0.3008
10168TIP3   OH251918   1.642   3.990  14.496  0.3483  0.2684 -0.5955
10168TIP3    H151919   1.616   3.902  14.521 -3.8541  1.4006 -0.3151
10168TIP3    H251920   1.685   3.979  14.411 -2.6181 -1.8947 -1.9883
10169TIP3   OH251921   3.355   4.202  15.982  0.3328 -0.1061 -0.2258
10169TIP3    H151922   3.360   4.298  15.974 -0.2813 -0.1915 -1.9461
10169TIP3    H251923   3.290   4.187  16.050 -1.8126  0.7171 -1.9847
10170TIP3   OH251924   2.456   5.523  14.155  0.7259 -0.2421 -0.3907
10170TIP3    H151925   2.533   5.478  14.191  0.8798  0.3418  0.0400
10170TIP3    H251926   2.438   5.593  14.218 -0.3625 -0.5712 -0.3209
10171TIP3   OH251927   6.358   3.398   4.268 -0.1266  0.1614 -0.0327
10171TIP3    H151928   6.353   3.375   4.176  1.0533 -2.3608  0.4575
10171TIP3    H251929   6.267   3.409   4.295 -0.4892  0.7660 -1.4113
10172TIP3   OH251930   0.294   0.201  12.706  0.2762 -0.2878  0.2241
10172TIP3    H151931   0.348   0.126  12.732  1.2180  0.5942  0.8849
10172TIP3    H251932   0.320   0.220  12.616  0.8080 -0.1015  0.4139
10173TIP3   OH251933   0.774   6.655   3.808  0.0267  0.5558  0.2980
10173TIP3    H151934   0.682   6.633   3.796 -0.4051  0.6149  2.8509
10173TIP3    H251935   0.773   6.748   3.833  0.5956  0.2105  1.7164
10174TIP3   OH251936   5.832   0.657  13.892 -0.0738  0.2668  0.6601
10174TIP3    H151937   5.906   0.687  13.839 -1.0423 -0.0232 -0.9297
10174TIP3    H251938   5.868   0.585  13.945  0.7248 -0.0577 -0.2796
10175TIP3   OH251939   1.266   3.257   0.215  0.0867  0.0887 -0.2403
10175TIP3    H151940   1.205   3.202   0.165 -0.9007  1.2688 -0.3789
10175TIP3    H251941   1.254   3.345   0.179 -1.3042  1.1812  2.5379
10176TIP3   OH251942   0.711   6.285   1.441 -0.4990  0.2818  0.5526
10176TIP3    H151943   0.687   6.299   1.349  0.2668 -2.5745 -0.1744
10176TIP3    H251944   0.645   6.333   1.490 -2.4959 -0.2329 -1.4624
10177TIP3   OH251945   2.794   2.315  14.137 -0.5141 -0.4180 -0.4954
10177TIP3    H151946   2.854   2.378  14.176  1.5760 -1.9577 -1.0085
10177TIP3    H251947   2.841   2.231  14.142 -2.7584 -1.7772 -0.7045
10178TIP3   OH251948   5.771   6.111  16.947  0.5919  0.4107 -0.5314
10178TIP3    H151949   5.813   6.035  16.906  1.1041  0.2145  0.3394
10178TIP3    H251950   5.698   6.131  16.889 -0.6424 -1.8427  0.1040
10179TIP3   OH251951   5.794   2.928   4.166 -0.3290  0.4776 -0.2736
10179TIP3    H151952   5.799   3.018   4.133  0.8467  0.1746 -1.0110
10179TIP3    H251953   5.747   2.935   4.249  1.5732  2.1052  0.7646
10180TIP3   OH251954   6.471   3.040  12.634 -0.2600  0.2579 -0.6038
10180TIP3    H151955   6.517   2.995  12.704 -1.9246  0.5007  0.7051
10180TIP3    H251956   6.490   2.988  12.556 -1.5410 -2.3849  0.7220
10181TIP3   OH251957   4.507   1.595   3.013  0.8981 -0.3327  0.2327
10181TIP3    H151958   4.536   1.525   2.955  1.3786  0.3567 -0.3868
10181TIP3    H251959   4.554   1.673   2.982  0.2260  0.3082  0.7747
10182TIP3   OH251960   1.743   4.050   3.659  0.5253  0.0676  0.6130
10182TIP3    H151961   1.829   4.010   3.671  1.0155  1.0663  0.5701
10182TIP3    H251962   1.762   4.140   3.630 -0.5528 -0.4078 -1.8293
10183TIP3   OH251963   6.227   2.237  13.035 -0.3661 -0.1159  0.8160
10183TIP3    H151964   6.149   2.214  13.086 -0.0349  0.1814  1.4665
10183TIP3    H251965   6.276   2.155  13.028 -0.9855 -0.4203 -0.0415
10184TIP3   OH251966   1.590   2.104   4.941 -0.2378  0.6234  0.0905
10184TIP3    H151967   1.656   2.123   5.008 -0.0603  1.3422 -0.2782
10184TIP3    H251968   1.587   2.008   4.937  1.4716  0.5607 -0.5423
10185TIP3   OH251969   3.605   5.237  16.289 -0.0594 -0.4820 -0.3619
10185TIP3    H151970   3.698   5.255  16.283  0.1066 -1.2363 -0.1447
10185TIP3    H251971   3.583   5.253  16.381 -0.4496  1.0498 -0.6912
10186TIP3   OH251972   0.400   2.284   4.425  0.0040 -0.1319  0.1092
10186TIP3    H151973   0.456   2.268   4.501  0.5708  1.5562  0.1034
10186TIP3    H251974   0.331   2.219   4.431  0.3668 -0.4027  1.7554
10187TIP3   OH251975   4.287   0.475   5.197  0.8046 -0.0153  0.4974
10187TIP3    H151976   4.206   0.506   5.157  0.5165 -0.9619  0.3033
10187TIP3    H251977   4.356   0.504   5.138  0.3574 -1.7210 -0.9652
10188TIP3   OH251978   5.847   2.359  13.725 -0.5668 -0.0656 -1.2809
10188TIP3    H151979   5.926   2.306  13.712 -1.7239 -1.4631 -3.0588
10188TIP3    H251980   5.825   2.347  13.817  0.6831 -0.5118 -1.0252
10189TIP3   OH251981   5.422   3.479   0.724  0.1270  0.0664 -0.3217
10189TIP3    H151982   5.455   3.399   0.682  0.6345 -0.9102  1.7820
10189TIP3    H251983   5.501   3.531   0.739  0.1986 -0.3805  0.9398
10190TIP3   OH251984   3.454   3.942  13.784 -0.5717  0.1559 -0.1266
10190TIP3    H151985   3.453   3.983  13.697  0.3040  2.0295  0.6976
10190TIP3    H251986   3.363   3.950  13.814 -1.1454 -1.5107 -1.2629
10191TIP3   OH251987   0.280   4.666  13.920  0.2340 -0.0167 -0.0791
10191TIP3    H151988   0.189   4.689  13.938  0.5001 -0.4326  1.9808
10191TIP3    H251989   0.331   4.737  13.958  0.8049 -0.1660 -0.5479
10192TIP3   OH251990   6.462   3.143   0.248 -0.1185  0.4383  0.7715
10192TIP3    H151991   6.502   3.165   0.332  2.9616 -2.0824  0.1743
10192TIP3    H251992   6.529   3.092   0.202 -2.1508  0.5539 -2.6998
10193TIP3   OH251993   2.483   4.177  12.434  0.6510 -0.7437  0.1142
10193TIP3    H151994   2.391   4.192  12.415  0.4458 -1.2764  0.6517
10193TIP3    H251995   2.490   4.082  12.445  0.3570 -0.4799  4.3767
10194TIP3   OH251996   5.403   4.522   4.558 -0.3187  0.4914  0.2718
10194TIP3    H151997   5.421   4.487   4.646 -0.0812  1.9148  0.8104
10194TIP3    H251998   5.485   4.508   4.511 -0.4814 -0.3794  0.2179
10195TIP3   OH251999   3.892   2.225  15.887  0.2561 -0.7080 -0.2947
10195TIP3    H152000   3.847   2.295  15.840  0.1785  1.9175  3.2843
10195TIP3    H252001   3.978   2.220  15.845 -0.2185  0.5454 -1.5063
10196TIP3   OH252002   0.232   3.827   5.154  0.3970  0.2610  0.2898
10196TIP3    H152003   0.236   3.858   5.244  0.2886 -0.2146  0.4585
10196TIP3    H252004   0.323   3.806   5.132  0.5300  1.0638  0.0423
10197TIP3   OH252005   0.135   1.651   4.962  0.0097  0.7797 -0.2127
10197TIP3    H152006   0.185   1.685   5.036 -1.2021 -0.4207  1.2114
10197TIP3    H252007   0.201   1.637   4.893  1.2950  1.1427  0.9020
10198TIP3   OH252008   3.329   3.602   3.897 -0.5952  0.0640 -0.0726
10198TIP3    H152009   3.294   3.519   3.863 -0.5573 -0.1500  0.4021
10198TIP3    H252010   3.293   3.609   3.985  0.0945  0.1225  0.2152
10199TIP3   OH252011   6.377   1.813  15.780 -0.6130  0.7615 -0.3251
10199TIP3    H152012   6.339   1.901  15.783  0.2744  1.1382  0.4160
10199TIP3    H252013   6.322   1.762  15.839 -0.7260  0.9985 -0.2218
10200TIP3   OH252014   0.300   5.725   4.184 -0.2516 -0.8966  0.1888
10200TIP3    H152015   0.252   5.691   4.259  0.5696  2.2532  2.3427
10200TIP3    H252016   0.232   5.754   4.123 -1.0938  0.6907  1.8121
10201TIP3   OH252017   2.581   0.477  11.846  0.1207  0.3776  0.0301
10201TIP3    H152018   2.568   0.465  11.940 -2.5750 -1.0882 -0.4170
10201TIP3    H252019   2.636   0.403  11.819 -0.3770 -0.0713  0.2397
10202TIP3   OH252020   3.106   5.067   0.476 -0.5744  0.0544  0.2941
10202TIP3    H152021   3.121   4.976   0.504 -0.7397 -0.1551 -0.2946
10202TIP3    H252022   3.194   5.100   0.459 -0.5735 -0.3366 -0.5287
10203TIP3   OH252023   5.244   0.660   0.482  0.1931 -0.2137 -0.2901
10203TIP3    H152024   5.273   0.578   0.443  2.4944  0.3681  0.0957
10203TIP3    H252025   5.210   0.711   0.409  1.0710 -0.5350 -0.9344
10204TIP3   OH252026   6.694   4.839   4.128  0.1682  0.1871 -0.0109
10204TIP3    H152027   6.704   4.757   4.079 -2.0278 -0.4637  0.5387
10204TIP3    H252028   6.610   4.875   4.098 -0.5435  0.4961  2.1747
10205TIP3   OH252029   5.754   5.652   0.452  0.0079  0.3549 -0.1019
10205TIP3    H152030   5.847   5.659   0.469 -0.1860 -1.3870  2.0542
10205TIP3    H252031   5.714   5.721   0.507 -0.1492 -0.9966  1.5530
10206TIP3   OH252032   3.042   3.806   1.551 -0.5340  0.2369 -0.6794
10206TIP3    H152033   3.057   3.717   1.583  1.7075  0.6110 -0.5256
10206TIP3    H252034   3.087   3.810   1.467  2.0635  1.9911  0.6394
10207TIP3   OH252035   0.155   4.493   3.108 -0.1900 -0.0218  0.2280
10207TIP3    H152036   0.205   4.473   3.029 -0.2628  1.6106 -0.2638
10207TIP3    H252037   0.139   4.587   3.104 -0.5053  0.0433  2.0232
10208TIP3   OH252038   3.114   2.227  11.970  0.1350 -0.1282 -0.9550
10208TIP3    H152039   3.169   2.297  11.934  1.0631 -1.2029 -1.7106
10208TIP3    H252040   3.026   2.247  11.939  0.3165  0.9117 -0.8226
10209TIP3   OH252041   3.711   4.044  15.354 -0.1860  0.2876  0.0589
10209TIP3    H152042   3.715   3.949  15.365  0.8109 -0.0358 -2.4858
10209TIP3    H252043   3.624   4.061  15.319  0.4270 -0.0343 -1.7295
10210TIP3   OH252044   3.982   2.349  17.073  0.4458 -0.4842  0.3643
10210TIP3    H152045   3.989   2.431  17.023  0.5661 -0.3454  0.6043
10210TIP3    H252046   4.066   2.305  17.058 -0.6511 -1.9615 -2.1394
10211TIP3   OH252047   3.493   1.308  14.677  0.3676  1.1226  0.7251
10211TIP3    H152048   3.547   1.327  14.601  0.7754 -0.1952  0.6525
10211TIP3    H252049   3.408   1.346  14.657  0.8658  1.9969  0.2239
10212TIP3   OH252050   3.601   2.788   3.339  0.6316  0.3331  0.0933
10212TIP3    H152051   3.638   2.871   3.369 -0.4307  0.0918  2.2183
10212TIP3    H252052   3.507   2.796   3.357  0.3926 -1.0143 -0.4779
10213TIP3   OH252053   2.191   1.474  11.901 -0.0898 -0.2454  0.0917
10213TIP3    H152054   2.227   1.450  11.986 -0.4046  0.9542  0.5883
10213TIP3    H252055   2.252   1.436  11.838  0.5470 -0.5377  0.8578
10214TIP3   OH252056   5.478   2.870  17.198  0.9584  0.1076  0.3215
10214TIP3    H152057   5.465   2.803  17.265 -0.7931 -0.2606 -0.3441
10214TIP3    H252058   5.570   2.862  17.173  0.5854 -2.7825 -0.4751
10215TIP3   OH252059   2.215   3.811   1.416  0.2033 -0.1799 -0.3073
10215TIP3    H152060   2.217   3.724   1.457  2.8906 -0.5889 -1.1072
10215TIP3    H252061   2.279   3.862   1.465 -0.5955  1.0449 -0.5102
10216TIP3   OH252062   0.695   1.523  13.591  0.3019 -0.1846 -0.0457
10216TIP3    H152063   0.665   1.479  13.511 -1.2984  3.4459 -1.6793
10216TIP3    H252064   0.627   1.503  13.656 -0.2159 -0.4095 -0.6429
10217TIP3   OH252065   5.817   0.449   2.761 -0.2148 -0.2765 -0.3516
10217TIP3    H152066   5.780   0.363   2.783  0.1643 -0.9986 -2.3295
10217TIP3    H252067   5.741   0.505   2.748 -0.4710 -0.3365  0.7597
10218TIP3   OH252068   0.933   4.644   6.560  0.1160  0.0306 -0.6533
10218TIP3    H152069   0.974   4.716   6.512 -0.3428  0.0114 -1.0901
10218TIP3    H252070   0.892   4.686   6.636  0.5230  0.1141 -0.4772
10219TIP3   OH252071   3.034   6.288  15.977 -0.7794 -0.2580 -0.0440
10219TIP3    H152072   3.046   6.266  15.885  2.1696  1.3912 -0.1785
10219TIP3    H252073   2.969   6.359  15.977  0.5502  1.0295 -1.1294
10220TIP3   OH252074   0.257   3.756  11.867  0.0812 -0.4436  0.5550
10220TIP3    H152075   0.268   3.714  11.782  1.4971 -0.1781  0.5824
10220TIP3    H252076   0.300   3.841  11.857  0.7352 -0.6221  1.6790
10221TIP3   OH252077   3.123   3.762  13.395 -0.1673 -0.0482 -0.2340
10221TIP3    H152078   3.130   3.758  13.300 -0.9336 -0.2146 -0.2901
10221TIP3    H252079   3.032   3.738  13.413 -0.1558  0.4425  0.5082
10222TIP3   OH252080   0.270   4.881   1.771 -0.5743 -0.7011  0.4285
10222TIP3    H152081   0.193   4.917   1.815 -0.2214  0.4072  0.1716
10222TIP3    H252082   0.234   4.815   1.711 -1.4179  0.3197 -0.2255
10223TIP3   OH252083   2.526   2.821   4.122  0.0638  0.4312  0.4281
10223TIP3    H152084   2.573   2.745   4.155  0.1702  1.1885  2.1873
10223TIP3    H252085   2.434   2.793   4.118 -0.2617  0.7490  3.1892
10224TIP3   OH252086   3.786   1.681  16.360 -0.0965 -0.0733  0.7941
10224TIP3    H152087   3.770   1.727  16.277  1.6396 -1.9713 -0.7157
10224TIP3    H252088   3.700   1.653  16.389 -0.6713 -0.0938 -0.8430
10225TIP3   OH252089   3.765   1.214  15.076 -0.3280 -0.0727 -0.1541
10225TIP3    H152090   3.779   1.294  15.127  1.1738  0.1501 -0.8499
10225TIP3    H252091   3.695   1.236  15.015 -0.5213  0.4268  0.2408
10226TIP3   OH252092   6.140   2.985  16.540 -0.7727  0.0065 -0.2699
10226TIP3    H152093   6.127   2.954  16.629 -0.6663 -2.2384 -0.9840
10226TIP3    H252094   6.235   2.984  16.528 -0.7034  1.4951 -0.0487
10227TIP3   OH252095   5.900   3.400  11.993  0.2968 -0.6478  0.4474
10227TIP3    H152096   5.910   3.314  12.034 -0.0481 -1.5776 -1.3267
10227TIP3    H252097   5.953   3.396  11.914 -0.9139  0.2352 -0.4445
10228TIP3   OH252098   3.623   3.324  15.501  0.2153  0.3286  0.0647
10228TIP3    H152099   3.716   3.348  15.500  0.0350  1.0953 -0.9812
10228TIP3    H252100   3.579   3.397  15.545  0.1746 -0.3574  1.1826
10229TIP3   OH252101   3.319   3.732  11.349 -0.1464  0.2666  0.2046
10229TIP3    H152102   3.236   3.776  11.367 -0.3366 -0.1659  0.3925
10229TIP3    H252103   3.329   3.738  11.254 -0.3296  0.4255  0.1942
10230TIP3   OH252104   3.062   2.462  10.592 -0.1199 -0.4673 -0.4055
10230TIP3    H152105   3.118   2.441  10.667  0.6604 -0.1467 -0.8900
10230TIP3    H252106   3.007   2.533  10.623 -0.6338 -1.1313  0.2440
10231TIP3   OH252107   3.043   0.714   5.595  0.6337 -0.4379  0.1862
10231TIP3    H152108   3.111   0.727   5.661 -0.5623 -0.1982  1.4157
10231TIP3    H252109   2.965   0.753   5.633 -0.3013 -1.0712 -1.0102
10232TIP3   OH252110   0.088   4.786  11.052  0.1275 -0.3090 -0.3681
10232TIP3    H152111   0.181   4.765  11.051 -0.2216 -2.1869  1.0714
10232TIP3    H252112   0.044   4.701  11.060 -1.7043  0.5578 -0.6199
10233TIP3   OH252113   5.286   0.849   2.775 -0.5732 -0.2816 -0.1062
10233TIP3    H152114   5.208   0.815   2.730 -0.6118 -0.0631 -0.2070
10233TIP3    H252115   5.332   0.771   2.806 -0.3302 -0.4644 -0.8887
10234TIP3   OH252116   2.617   0.525  11.038  0.0153  0.2234  0.7044
10234TIP3    H152117   2.684   0.512  11.105  2.1501  1.6314 -1.0234
10234TIP3    H252118   2.589   0.436  11.015  1.2252 -0.3972  1.5307
10235TIP3   OH252119   2.547   1.660  11.957  0.7467 -0.4499 -0.4368
10235TIP3    H152120   2.522   1.719  11.885 -0.9514 -2.4102 -1.5630
10235TIP3    H252121   2.534   1.712  12.036 -0.3159  0.8355 -1.4011
10236TIP3   OH252122   4.055   5.597  15.937 -0.0229 -0.5180 -0.1771
10236TIP3    H152123   4.058   5.683  15.895 -0.8020  0.7499  2.1530
10236TIP3    H252124   4.138   5.555  15.912  0.2275  0.7506 -1.6253
10237TIP3   OH252125   5.525   5.811   2.666 -0.0899 -0.5250 -0.7458
10237TIP3    H152126   5.591   5.861   2.715 -0.9135  1.4002 -1.5255
10237TIP3    H252127   5.453   5.800   2.728  0.0274 -0.6137 -0.6236
10238TIP3   OH252128   2.878   5.279   5.803 -0.3612 -0.8232 -0.1776
10238TIP3    H152129   2.830   5.341   5.859  0.3897  0.9300 -1.3999
10238TIP3    H252130   2.946   5.243   5.860 -1.0516 -0.8257  0.6591
10239TIP3   OH252131   3.187   0.634  15.330 -0.0245 -0.2479 -0.0199
10239TIP3    H152132   3.278   0.642  15.299 -0.7921 -1.1636 -2.7841
10239TIP3    H252133   3.169   0.718  15.371  1.6034  0.5555 -0.8274
10240TIP3   OH252134   0.577   2.498  14.965  0.7126  0.2249  0.0916
10240TIP3    H152135   0.592   2.415  14.922  1.5932  0.8156 -0.7628
10240TIP3    H252136   0.583   2.478  15.059  1.6831 -0.5274 -0.1180
10241TIP3   OH252137   0.623   5.784  12.829 -0.5020  0.0240 -0.3551
10241TIP3    H152138   0.648   5.877  12.824 -1.6604  0.3256 -0.7913
10241TIP3    H252139   0.588   5.773  12.917  3.6072 -1.0975  1.4233
10242TIP3   OH252140   6.247   4.681  10.975  0.0136 -0.3094  0.6388
10242TIP3    H152141   6.205   4.595  10.972  0.4974 -0.6727  2.6439
10242TIP3    H252142   6.303   4.683  10.898 -0.6019 -1.4586  0.1328
10243TIP3   OH252143   6.180   6.069  12.427  0.1824  0.7397 -0.0512
10243TIP3    H152144   6.085   6.078  12.434  0.3981  2.1373  1.5351
10243TIP3    H252145   6.196   5.975  12.441 -0.9796  0.3851 -0.9434
10244TIP3   OH252146   4.509   0.259   6.180  0.4111  0.7342 -0.2874
10244TIP3    H152147   4.556   0.230   6.258 -1.2580 -0.8307  0.2037
10244TIP3    H252148   4.497   0.353   6.193  0.1871  0.5096  1.3384
10245TIP3   OH252149   5.205   6.432  12.543 -0.1128  0.3389  0.0060
10245TIP3    H152150   5.266   6.497  12.576 -0.4066  0.1523  0.9280
10245TIP3    H252151   5.157   6.401  12.620  1.0398 -2.0595 -0.1532
10246TIP3   OH252152   1.261   0.848   3.627 -0.7988  0.1621 -0.1657
10246TIP3    H152153   1.321   0.880   3.560  0.6841 -0.5102  0.7858
10246TIP3    H252154   1.310   0.853   3.708 -2.3319  0.3407  0.7945
10247TIP3   OH252155   0.148   1.816  15.668 -0.7511  0.4768 -0.0768
10247TIP3    H152156   0.121   1.767  15.590 -2.9047 -2.7253  2.4471
10247TIP3    H252157   0.067   1.852  15.704  0.2054  1.9240  0.7593
10248TIP3   OH252158   2.674   6.014  14.056 -0.0320  0.0273 -0.2992
10248TIP3    H152159   2.717   6.093  14.023  1.0815 -0.6916 -0.6204
10248TIP3    H252160   2.608   6.047  14.117 -0.6003  1.2785 -1.5161
10249TIP3   OH252161   1.198   2.431  10.772  0.0826 -0.1558 -0.3625
10249TIP3    H152162   1.194   2.523  10.799  0.2032 -0.7884  1.9994
10249TIP3    H252163   1.115   2.394  10.801  0.3305 -0.9680 -0.6660
10250TIP3   OH252164   5.756   5.335   3.159  0.0898 -0.1501  0.2537
10250TIP3    H152165   5.728   5.313   3.248 -0.6117 -1.3005 -0.2267
10250TIP3    H252166   5.688   5.394   3.127 -0.5209 -0.9900 -0.0488
10251TIP3   OH252167   2.956   2.923   5.732 -0.0134 -0.5678  0.3006
10251TIP3    H152168   3.029   2.867   5.758  0.3373 -0.4620 -0.4443
10251TIP3    H252169   2.915   2.949   5.815  0.8825 -0.5077  0.7332
10252TIP3   OH252170   5.108   5.200  12.340 -0.3610  0.2018  0.2122
10252TIP3    H152171   5.147   5.272  12.292 -2.2946  0.4100 -1.1798
10252TIP3    H252172   5.122   5.222  12.432  1.7119  0.7884 -0.1958
10253TIP3   OH252173   5.566   4.555  13.012 -0.4938  0.0818 -0.3678
10253TIP3    H152174   5.591   4.492  13.080  0.1110  0.4896 -0.2006
10253TIP3    H252175   5.573   4.640  13.055  0.8935  0.4252 -1.2075
10254TIP3   OH252176   6.422   1.986  17.250  0.3538  0.5871 -0.4712
10254TIP3    H152177   6.460   2.006  17.165  0.7998 -0.0348 -0.4321
10254TIP3    H252178   6.379   1.901  17.237 -1.0309  1.2818 -0.5142
10255TIP3   OH252179   2.620   4.742  11.669  1.0713  0.2808  0.0606
10255TIP3    H152180   2.568   4.708  11.742  1.5016  1.7451  1.1165
10255TIP3    H252181   2.587   4.696  11.592 -0.7810  0.1184  0.8879
10256TIP3   OH252182   1.580   1.564   5.921  0.1366  0.1348 -0.5744
10256TIP3    H152183   1.619   1.477   5.930  2.5408  1.1878  0.0805
10256TIP3    H252184   1.495   1.557   5.966  0.2476 -1.8530 -0.5903
10257TIP3   OH252185   6.149   5.477   2.456 -0.3376 -0.0968 -0.7960
10257TIP3    H152186   6.219   5.528   2.495 -0.9291 -0.1738  0.3996
10257TIP3    H252187   6.080   5.541   2.437 -0.1909 -0.1138 -1.4279
10258TIP3   OH252188   0.041   0.549  11.918  0.6206  0.0418 -0.6633
10258TIP3    H152189   0.114   0.558  11.857  0.9663 -0.7166 -0.3751
10258TIP3    H252190  -0.008   0.473  11.885  1.7626 -1.4775  0.9146
10259TIP3   OH252191   0.954   4.748   1.337  0.3507  0.0575  0.3219
10259TIP3    H152192   0.950   4.843   1.341 -0.0443  0.0062  1.8613
10259TIP3    H252193   1.044   4.729   1.310  0.1120  0.8540 -1.1245
10260TIP3   OH252194   1.965   3.449   4.663 -0.1350  0.3726  0.2580
10260TIP3    H152195   2.023   3.449   4.739 -0.9809  0.1263  0.9221
10260TIP3    H252196   1.897   3.385   4.685 -0.3513  0.2459 -0.7402
10261TIP3   OH252197   4.074   0.965   6.995  0.7495  0.0817  0.5851
10261TIP3    H152198   4.117   0.993   6.915 -1.2527 -0.8300 -0.8818
10261TIP3    H252199   4.035   0.880   6.974  0.6945 -0.5036  2.7286
10262TIP3   OH252200   5.209   6.353   3.177 -0.6458 -0.3013 -0.5183
10262TIP3    H152201   5.279   6.312   3.228  1.5805  2.3521 -1.2076
10262TIP3    H252202   5.161   6.279   3.140  1.4211 -2.2711  0.4510
10263TIP3   OH252203   0.469   4.400  15.596 -0.1459 -0.3323  0.2682
10263TIP3    H152204   0.538   4.392  15.530  0.9677 -0.6294  1.4387
10263TIP3    H252205   0.389   4.381  15.548  0.4733  0.7882 -1.3177
10264TIP3   OH252206   2.398   4.873  13.650 -0.4703 -0.4793  0.0096
10264TIP3    H152207   2.367   4.963  13.654 -1.2508 -0.7219 -0.1785
10264TIP3    H252208   2.462   4.865  13.721 -0.6548  0.1276  0.2471
10265TIP3   OH252209   6.379   5.270   5.609  0.0184 -0.5490  0.3323
10265TIP3    H152210   6.345   5.266   5.699  0.4573  1.4968  0.6334
10265TIP3    H252211   6.362   5.360   5.581  0.1221 -1.0799 -1.5622
10266TIP3   OH252212   1.081   6.058   0.038  0.2634  0.8991  0.5028
10266TIP3    H152213   1.127   6.002  -0.025  0.2886  3.1810 -1.6768
10266TIP3    H252214   1.077   6.006   0.118  0.7221 -1.9718 -1.1948
10267TIP3   OH252215   0.395   3.938  13.411 -0.2335  0.3720  0.2041
10267TIP3    H152216   0.380   3.886  13.490 -1.1140  0.5028  0.1299
10267TIP3    H252217   0.308   3.965  13.383  0.2548  2.8215  0.8471
10268TIP3   OH252218   5.484   3.734  14.704  0.8936  0.3252  0.5148
10268TIP3    H152219   5.389   3.735  14.692  0.4752 -3.6171  2.0779
10268TIP3    H252220   5.501   3.808  14.763 -1.1783  1.0399  0.3054
10269TIP3   OH252221   2.114   4.830  15.685  0.1862 -0.2557 -0.3071
10269TIP3    H152222   2.209   4.823  15.698  0.4967 -0.4762 -2.3633
10269TIP3    H252223   2.093   4.762  15.621 -1.4331 -0.4347  0.3636
10270TIP3   OH252224   4.788   0.462  17.329 -0.2896 -0.1147  0.1786
10270TIP3    H152225   4.837   0.502  17.401 -0.6052  0.1895  0.2270
10270TIP3    H252226   4.844   0.390  17.299 -0.2603 -0.3883  0.8729
10271TIP3   OH252227   1.656   1.888   3.237 -0.9608 -0.2381  0.8725
10271TIP3    H152228   1.667   1.982   3.225 -1.5544 -0.3373 -0.6917
10271TIP3    H252229   1.635   1.877   3.329 -0.6317  1.1368  1.1202
10272TIP3   OH252230   2.665   2.133  11.848  0.0462  0.1315 -0.2816
10272TIP3    H152231   2.607   2.105  11.919  2.7785 -2.0728  1.2617
10272TIP3    H252232   2.611   2.127  11.769 -1.7923 -2.0325  1.0129
10273TIP3   OH252233   3.959   0.293  13.193  0.1458  0.3126 -0.4427
10273TIP3    H152234   3.997   0.319  13.277 -1.7974  1.2696  0.2064
10273TIP3    H252235   3.970   0.198  13.189  1.0626  0.3707  0.4649
10274TIP3   OH252236   5.581   5.732   2.231  0.2073  0.4257 -0.1964
10274TIP3    H152237   5.648   5.723   2.299 -0.5754  4.5967  1.4333
10274TIP3    H252238   5.502   5.694   2.270  0.5341 -0.3302 -0.2479
10275TIP3   OH252239   6.129   5.506  11.715 -0.3066  0.1335 -0.2451
10275TIP3    H152240   6.099   5.437  11.656  1.0198  0.6700 -1.6089
10275TIP3    H252241   6.216   5.476  11.745  0.6956  1.5771 -1.5703
10276TIP3   OH252242   5.146   5.433   4.227  0.0152 -0.4258  0.9201
10276TIP3    H152243   5.085   5.387   4.168 -0.1375 -0.1749  0.8813
10276TIP3    H252244   5.201   5.485   4.169  0.1570 -0.5193  0.9689
10277TIP3   OH252245   1.317   6.684   4.487  0.2120  0.2688 -0.4630
10277TIP3    H152246   1.237   6.736   4.480 -0.8020 -1.0171  0.7388
10277TIP3    H252247   1.301   6.609   4.430  0.3209 -0.2461  0.1696
10278TIP3   OH252248   4.673   6.651  16.417 -0.7713  0.4869 -0.0602
10278TIP3    H152249   4.649   6.570  16.464 -2.2841  0.5234 -0.7007
10278TIP3    H252250   4.662   6.720  16.483  1.1520  0.1481  0.6768
10279TIP3   OH252251   3.376   5.507   3.320  0.1986 -0.1417  0.6014
10279TIP3    H152252   3.398   5.600   3.307  2.1117 -0.3348  2.1235
10279TIP3    H252253   3.283   5.509   3.345  0.5699  1.5456  2.1166
10280TIP3   OH252254   5.985   1.015  12.686 -0.0016  0.1083  0.3684
10280TIP3    H152255   5.952   0.927  12.670  1.8647 -0.4439 -0.8751
10280TIP3    H252256   5.923   1.073  12.641 -0.4571 -0.6931 -0.0563
10281TIP3   OH252257   5.121   3.739  14.846  0.0529  0.4713 -0.0505
10281TIP3    H152258   5.131   3.644  14.852 -0.3556  0.3677 -0.8691
10281TIP3    H252259   5.151   3.761  14.758 -0.5754  0.9989 -0.1429
10282TIP3   OH252260   2.302   0.897  13.456  0.0795 -0.1239  0.3740
10282TIP3    H152261   2.376   0.884  13.515  2.8199  0.7499 -2.5834
10282TIP3    H252262   2.245   0.822  13.472  2.4026 -1.7157  1.7357
10283TIP3   OH252263   0.287   0.126  16.068 -0.2820 -0.1980  0.3542
10283TIP3    H152264   0.280   0.109  15.974  1.9671  2.0707 -0.3495
10283TIP3    H252265   0.330   0.048  16.103  0.8088 -0.2208 -0.9269
10284TIP3   OH252266   2.329   4.626  11.382 -0.3754  0.4137  0.0061
10284TIP3    H152267   2.382   4.703  11.365  0.3638 -0.2396 -0.7160
10284TIP3    H252268   2.239   4.656  11.372 -0.0916  1.1192 -0.5028
10285TIP3   OH252269   5.619   0.900  14.070  0.0260  0.0938 -0.1120
10285TIP3    H152270   5.664   0.924  13.989  0.8777 -0.2147  0.2525
10285TIP3    H252271   5.638   0.807  14.082 -0.1685  0.1117  0.3950
10286TIP3   OH252272   1.734   5.286   2.570  0.1778  0.3980 -0.1522
10286TIP3    H152273   1.645   5.322   2.564  0.0052 -0.2053 -1.2581
10286TIP3    H252274   1.736   5.215   2.507  1.3940  0.2695  0.0140
10287TIP3   OH252275   4.355   6.065   5.613 -0.7418 -0.4854  0.3158
10287TIP3    H152276   4.439   6.109   5.602 -0.5980 -0.9001 -0.2578
10287TIP3    H252277   4.372   5.997   5.679 -0.4278 -1.0618 -0.3433
10288TIP3   OH252278   6.176   2.639  16.980 -0.1840 -0.6203 -0.0654
10288TIP3    H152279   6.262   2.600  16.998 -0.1635 -0.1829  0.8727
10288TIP3    H252280   6.116   2.593  17.038 -0.5201 -0.6639 -0.4440
10289TIP3   OH252281   5.878   3.226   6.201 -0.0956 -0.2131  0.5234
10289TIP3    H152282   5.855   3.151   6.256  1.1505 -0.9133  0.1231
10289TIP3    H252283   5.914   3.188   6.121  0.3330  0.8069  0.2050
10290TIP3   OH252284   5.721   1.281   4.461  0.0036 -0.1188  0.2513
10290TIP3    H152285   5.749   1.239   4.379  0.4830 -2.7238  1.6415
10290TIP3    H252286   5.636   1.241   4.480  0.6596 -0.8129  1.8447
10291TIP3   OH252287   1.924   0.143  17.055  0.5610 -0.4448  0.0357
10291TIP3    H152288   1.956   0.064  17.098 -0.7568 -0.6022  0.7499
10291TIP3    H252289   1.884   0.112  16.974  1.9783 -0.2648 -0.7703
10292TIP3   OH252290   4.405   5.900   2.048  0.4126  0.1685  1.1274
10292TIP3    H152291   4.423   5.933   2.136 -2.2805  0.7778  1.5176
10292TIP3    H252292   4.420   5.975   1.990  1.6304 -0.0785  1.0964
10293TIP3   OH252293   0.848   4.601   3.776  0.1984 -0.6763 -0.3659
10293TIP3    H152294   0.842   4.695   3.760  0.7734 -0.4914  0.4291
10293TIP3    H252295   0.805   4.560   3.700  0.9960  0.1932 -1.3053
10294TIP3   OH252296   1.761   6.433   6.364  0.3230  0.1158  0.3681
10294TIP3    H152297   1.699   6.369   6.398  0.1097 -0.2928 -0.7436
10294TIP3    H252298   1.842   6.415   6.412 -0.8060  1.8485  3.1757
10295TIP3   OH252299   2.379   5.858   0.499 -0.1669  0.4812  0.5500
10295TIP3    H152300   2.455   5.813   0.537  0.3836  0.1085 -0.9106
10295TIP3    H252301   2.352   5.801   0.427 -0.7680  1.4654 -0.0119
10296TIP3   OH252302   6.140   6.229  16.697 -0.1207 -0.0136  0.2234
10296TIP3    H152303   6.211   6.284  16.663  0.2642 -0.3940  0.3984
10296TIP3    H252304   6.184   6.168  16.757 -0.8641  1.0557  1.9150
10297TIP3   OH252305   3.451   4.389   1.790 -0.4910  0.3845 -0.3363
10297TIP3    H152306   3.530   4.440   1.771 -0.5388  0.1544 -1.1909
10297TIP3    H252307   3.403   4.387   1.707 -1.1779  0.1391  0.0574
10298TIP3   OH252308   0.368   0.103   3.524  0.0998  0.5201  0.5136
10298TIP3    H152309   0.370   0.124   3.430 -0.1407 -0.3938  0.2943
10298TIP3    H252310   0.421   0.171   3.564  1.8470 -0.1774 -0.5131
10299TIP3   OH252311   6.164   4.191  17.238 -0.2412 -0.0232  0.3760
10299TIP3    H152312   6.140   4.155  17.152  0.4452  1.6338 -0.5482
10299TIP3    H252313   6.258   4.209  17.231 -0.0893 -0.2123  1.6269
10300TIP3   OH252314   1.493   5.212  11.095 -0.1651  0.2103  0.3012
10300TIP3    H152315   1.480   5.233  11.187  0.4213 -2.0631  0.9594
10300TIP3    H252316   1.585   5.188  11.088 -0.6188 -1.4444 -0.4653
10301TIP3   OH252317   6.123   2.826   1.342 -0.3705 -1.1196 -0.1423
10301TIP3    H152318   6.036   2.796   1.371 -1.0612 -0.1790 -1.1807
10301TIP3    H252319   6.184   2.775   1.396 -1.5614 -0.9798  1.4169
10302TIP3   OH252320   4.700   4.794  11.933 -0.1003 -0.6428  0.0586
10302TIP3    H152321   4.758   4.743  11.990  1.1172  1.8463  1.1981
10302TIP3    H252322   4.747   4.799  11.850  1.2193  1.0187  0.8500
10303TIP3   OH252323   4.663   2.511  14.956  0.4521 -0.2200 -0.1127
10303TIP3    H152324   4.707   2.505  15.041  0.3166  1.0834  0.0801
10303TIP3    H252325   4.638   2.604  14.949 -2.2890 -0.8661 -0.1957
10304TIP3   OH252326   6.540   3.101  15.649  0.3191  0.4223  0.2897
10304TIP3    H152327   6.581   3.106  15.736  1.2204  0.1129 -0.1052
10304TIP3    H252328   6.476   3.031  15.657  0.9621 -0.1550  0.4882
10305TIP3   OH252329   6.718   1.577  12.780  0.2839 -0.1443 -1.0618
10305TIP3    H152330   6.764   1.499  12.749 -0.8071 -1.9167  1.4454
10305TIP3    H252331   6.630   1.545  12.803  0.2061  1.5157  1.2232
10306TIP3   OH252332   2.631   6.108   5.645 -0.4211  0.4677  0.5485
10306TIP3    H152333   2.566   6.077   5.708 -1.8977  0.0722 -1.0884
10306TIP3    H252334   2.673   6.028   5.612 -1.3899  0.4574 -0.7261
10307TIP3   OH252335   1.796   1.457  11.679  0.2752  0.1034  0.3904
10307TIP3    H152336   1.814   1.384  11.620 -0.2284  0.0015  0.3573
10307TIP3    H252337   1.785   1.533  11.620  0.8452  0.2171  0.4281
10308TIP3   OH252338   1.919   1.763  12.337  0.1881 -0.3750 -0.5771
10308TIP3    H152339   1.929   1.688  12.396  1.5664  0.7319  0.6401
10308TIP3    H252340   1.891   1.835  12.393  0.9541  0.5655 -1.3607
10309TIP3   OH252341   0.928   5.376  14.133  0.2565 -0.2652 -0.0481
10309TIP3    H152342   0.900   5.288  14.157  0.7733 -0.3026  0.4324
10309TIP3    H252343   0.863   5.405  14.068 -0.0027 -0.9338 -0.0943
10310TIP3   OH252344   5.311   3.851   1.047 -0.1341  0.2340  0.0402
10310TIP3    H152345   5.296   3.879   1.138  0.3412  0.8330 -0.0630
10310TIP3    H252346   5.232   3.802   1.025 -0.4668  0.4879  0.6219
10311TIP3   OH252347   5.874   2.420   0.119  0.2025 -0.9128 -0.0981
10311TIP3    H152348   5.950   2.375   0.083 -0.0961 -0.7547 -0.9375
10311TIP3    H252349   5.799   2.365   0.096 -0.2931  0.4568 -2.0231
10312TIP3   OH252350   3.979   4.342   1.775 -0.1324  0.0716  0.4770
10312TIP3    H152351   3.926   4.287   1.717 -0.0129  0.1741  0.2710
10312TIP3    H252352   4.027   4.280   1.830  0.5916 -0.0447 -0.2774
10313TIP3   OH252353   6.310   3.614  13.895 -0.2201 -1.1245 -0.5229
10313TIP3    H152354   6.314   3.553  13.968  2.4627 -2.5423 -1.7112
10313TIP3    H252355   6.239   3.582  13.840 -1.3866 -0.8165  0.7378
10314TIP3   OH252356   4.520   1.569   1.552  0.4739  0.4341  0.1428
10314TIP3    H152357   4.551   1.596   1.465  2.3502  1.8154  1.1876
10314TIP3    H252358   4.582   1.502   1.580 -1.0825 -1.2372 -0.1965
10315TIP3   OH252359   5.957   5.143  12.958 -0.1133 -0.5779  0.2666
10315TIP3    H152360   5.963   5.068  12.898  0.7236 -1.1246  1.0016
10315TIP3    H252361   5.945   5.103  13.044 -0.3776  0.1660  0.5794
10316TIP3   OH252362   3.238   3.387   6.834 -1.1542  0.3572 -0.3544
10316TIP3    H152363   3.213   3.479   6.833 -2.2207  0.1373 -3.1637
10316TIP3    H252364   3.155   3.340   6.844 -0.6821 -0.3201  0.4899
10317TIP3   OH252365   3.802   6.532   0.924  0.3672  0.3957 -0.1210
10317TIP3    H152366   3.775   6.623   0.939 -0.9480  0.3864 -2.1488
10317TIP3    H252367   3.756   6.482   0.992  1.1868  1.2125  1.0829
10318TIP3   OH252368   4.869   1.069  12.903  0.1184 -0.8110  0.4141
10318TIP3    H152369   4.933   1.001  12.882  2.1173  1.0764  0.0631
10318TIP3    H252370   4.911   1.121  12.972 -1.6455 -0.3062  1.1775
10319TIP3   OH252371   4.152   3.463  17.226 -0.1962  0.0213  0.1779
10319TIP3    H152372   4.068   3.459  17.180 -0.4145  0.2176  0.5547
10319TIP3    H252373   4.132   3.506  17.309  0.3011  0.1781  0.2212
10320TIP3   OH252374   1.628   4.290  15.949  0.1343  0.4482 -0.3489
10320TIP3    H152375   1.634   4.384  15.964 -4.6702  0.8480  0.5004
10320TIP3    H252376   1.574   4.282  15.870 -0.6961 -1.5202  0.3626
10321TIP3   OH252377   6.131   3.030   2.959  0.6494 -0.1032 -0.0292
10321TIP3    H152378   6.186   2.963   2.919  0.6346 -0.7101  0.9367
10321TIP3    H252379   6.162   3.036   3.049  0.4886  1.0227 -0.0336
10322TIP3   OH252380   0.556   3.884   2.253 -0.6293 -0.4490 -0.2707
10322TIP3    H152381   0.468   3.847   2.261 -0.6358 -0.3054  0.3707
10322TIP3    H252382   0.552   3.938   2.174 -1.5115  0.6118  0.4628
10323TIP3   OH252383   3.069   4.463  15.428 -0.7666 -0.5724  0.7947
10323TIP3    H152384   3.124   4.391  15.459 -1.7499 -1.5882  0.2417
10323TIP3    H252385   2.982   4.444  15.461 -1.1918 -0.0383  0.0255
10324TIP3   OH252386   0.233   3.738  16.485  0.3461 -0.1745  0.3967
10324TIP3    H152387   0.229   3.816  16.428 -0.2000 -0.1882  0.4044
10324TIP3    H252388   0.317   3.698  16.465  0.0464 -0.3260 -0.6076
10325TIP3   OH252389   4.510   0.304  12.350 -0.6408 -0.4457  0.1425
10325TIP3    H152390   4.577   0.271  12.289 -2.3377 -2.5410 -0.7129
10325TIP3    H252391   4.484   0.388  12.313  2.8885  1.5635  1.6668
10326TIP3   OH252392   5.261   0.789   2.126  0.0906 -0.1703  0.6930
10326TIP3    H152393   5.285   0.769   2.036  0.3164 -0.8104  0.8876
10326TIP3    H252394   5.168   0.809   2.123  0.5388  2.1438 -0.0518
10327TIP3   OH252395   2.400   4.493  12.243 -0.7042 -0.3756  0.5240
10327TIP3    H152396   2.470   4.446  12.197  1.4528  1.5086  1.6887
10327TIP3    H252397   2.406   4.463  12.334 -0.9408  0.3168  0.7761
10328TIP3   OH252398   3.287   2.355  13.423  0.1442 -0.0123  0.4680
10328TIP3    H152399   3.269   2.293  13.352 -1.0784  0.6453  0.1789
10328TIP3    H252400   3.205   2.359  13.472  1.0698 -0.6768  2.1151
10329TIP3   OH252401   5.870   5.600   2.726  0.4196 -0.6100 -0.1608
10329TIP3    H152402   5.859   5.506   2.739 -1.3530 -0.3547  0.5584
10329TIP3    H252403   5.859   5.612   2.632  1.3681 -1.1766 -0.3618
10330TIP3   OH252404   4.915   2.621  12.824 -0.2727  0.2402  0.2476
10330TIP3    H152405   4.975   2.693  12.846  1.1417 -0.7829 -0.1107
10330TIP3    H252406   4.920   2.562  12.899 -1.5318  0.5337  0.5969
10331TIP3   OH252407   3.755   0.886  17.086 -0.1301 -0.7121  0.7289
10331TIP3    H152408   3.800   0.971  17.083 -0.4657 -0.5505 -1.0518
10331TIP3    H252409   3.823   0.824  17.113  0.2409  0.0393  1.5868
10332TIP3   OH252410   3.712   6.301   3.932 -0.2248 -0.0964  0.0834
10332TIP3    H152411   3.638   6.281   3.876 -1.5154 -0.5774  1.8486
10332TIP3    H252412   3.695   6.389   3.965  0.1406 -0.0998  0.2953
10333TIP3   OH252413   0.293   0.331  11.441  0.1983 -0.3583 -0.3179
10333TIP3    H152414   0.354   0.399  11.470 -0.5772 -0.2028  1.0347
10333TIP3    H252415   0.208   0.376  11.435 -0.6234 -1.4455  1.9617
10334TIP3   OH252416   6.350   5.178  14.358  0.3412 -0.1625  0.0887
10334TIP3    H152417   6.315   5.127  14.285  2.6775 -0.1692 -1.1257
10334TIP3    H252418   6.408   5.117  14.404 -2.1484 -0.6299  2.9664
10335TIP3   OH252419   5.450   6.160   2.162 -0.1506  0.1952  0.2660
10335TIP3    H152420   5.538   6.199   2.158 -0.7028  1.4902  0.2781
10335TIP3    H252421   5.391   6.235   2.173 -1.0991 -0.7871  2.7187
10336TIP3   OH252422   4.034   2.611  15.908  0.0040 -0.0133  0.4813
10336TIP3    H152423   3.941   2.586  15.906 -0.0095 -0.3357  2.5300
10336TIP3    H252424   4.079   2.533  15.939  0.7571  0.6255  1.0392
10337TIP3   OH252425   2.435   2.403   1.022  0.5010  0.0301 -0.0533
10337TIP3    H152426   2.502   2.354   1.069  1.4654  0.7085 -0.6692
10337TIP3    H252427   2.458   2.392   0.930 -1.0809 -0.8982 -0.3732
10338TIP3   OH252428   1.182   6.025   6.852  0.5049  0.0456 -0.1043
10338TIP3    H152429   1.206   6.083   6.780  1.0054 -0.4499 -0.3496
10338TIP3    H252430   1.263   5.980   6.874  0.1717 -0.4011  0.2251
10339TIP3   OH252431   0.959   3.415   1.813  0.5904  0.3673  0.6106
10339TIP3    H152432   0.964   3.378   1.901 -0.5432  0.6214  0.8020
10339TIP3    H252433   0.865   3.431   1.799  0.9270  2.3201  0.2153
10340TIP3   OH252434   3.039   3.094  14.741 -0.0440  0.1916 -0.7564
10340TIP3    H152435   2.987   3.067  14.817 -0.1189  1.5713 -0.2847
10340TIP3    H252436   3.005   3.041  14.669  1.5453 -2.7910  0.5459
10341TIP3   OH252437   1.459   2.789  13.827  0.1177  0.2777 -0.3456
10341TIP3    H152438   1.365   2.792  13.807  0.0733  2.5769 -0.1220
10341TIP3    H252439   1.501   2.773  13.743 -0.4523 -0.8345 -0.4400
10342TIP3   OH252440   3.732   1.089   2.567 -0.0046  0.6449  0.1252
10342TIP3    H152441   3.671   1.032   2.614 -0.7770 -0.5545 -2.1590
10342TIP3    H252442   3.811   1.037   2.557 -1.5734 -1.3913 -4.2780
10343TIP3   OH252443   3.030   4.092   4.869  0.3065  0.6046  0.7282
10343TIP3    H152444   3.124   4.103   4.883  0.4252  0.9081 -0.2215
10343TIP3    H252445   3.017   3.997   4.868  0.5140  0.5640  1.3543
10344TIP3   OH252446   3.417   5.459  15.376 -0.1666  0.2971  0.0828
10344TIP3    H152447   3.490   5.469  15.315  0.2811  0.6689  0.6676
10344TIP3    H252448   3.457   5.421  15.454 -1.0252 -1.8435 -0.4392
10345TIP3   OH252449   3.695   4.503   1.801  0.1646  0.4554  0.2474
10345TIP3    H152450   3.728   4.499   1.890 -1.8228 -0.6483  1.0184
10345TIP3    H252451   3.736   4.428   1.757 -0.0974  0.0176  0.7326
10346TIP3   OH252452   0.566   1.793  11.104  0.1310  0.0063 -0.1256
10346TIP3    H152453   0.607   1.713  11.137  0.2927  0.4383  0.7358
10346TIP3    H252454   0.535   1.769  11.017 -1.1647 -1.4408  0.6912
10347TIP3   OH252455   2.443   6.145   1.720 -0.3749 -0.1314  0.2548
10347TIP3    H152456   2.396   6.225   1.743 -1.2444 -0.5744  0.0793
10347TIP3    H252457   2.375   6.077   1.721  0.3361 -0.8520  0.3410
10348TIP3   OH252458   5.434   1.536   1.163 -0.0282 -0.4679 -0.2623
10348TIP3    H152459   5.472   1.527   1.250  2.6568  0.1155 -1.2756
10348TIP3    H252460   5.394   1.623   1.164  1.2625  0.1619  0.0031
10349TIP3   OH252461   3.709   1.495   5.422 -0.3724  0.2452  0.2911
10349TIP3    H152462   3.748   1.409   5.406  1.6164  1.1494  0.0602
10349TIP3    H252463   3.766   1.536   5.487 -1.0065  1.6023  0.0278
10350TIP3   OH252464   1.489   2.411   0.592  0.1652  0.0415  0.0024
10350TIP3    H152465   1.466   2.376   0.678 -0.2531  0.4548  0.0658
10350TIP3    H252466   1.414   2.466   0.568  0.1962 -0.2217 -0.7098
10351TIP3   OH252467   4.841   1.357   5.438 -0.1291  0.1545 -0.1592
10351TIP3    H152468   4.893   1.392   5.510  1.6596  0.6603 -1.6013
10351TIP3    H252469   4.790   1.432   5.408 -1.2120 -0.1689  0.8318
10352TIP3   OH252470   2.175   3.250   5.857  0.0814 -0.0954  0.2156
10352TIP3    H152471   2.156   3.339   5.888 -2.8042 -0.1755 -0.9844
10352TIP3    H252472   2.140   3.193   5.926  0.1778 -0.2975  0.0963
10353TIP3   OH252473   5.207   4.824  13.180 -0.3740 -0.5055 -0.0806
10353TIP3    H152474   5.256   4.790  13.105 -0.3672 -1.0487  0.1660
10353TIP3    H252475   5.138   4.876  13.141 -0.3751 -0.7908 -0.4702
10354TIP3   OH252476   5.520   6.059  17.335 -0.2699  0.3560  0.0857
10354TIP3    H152477   5.530   6.129  17.401  1.3841 -0.9837  1.3373
10354TIP3    H252478   5.428   6.033  17.343 -0.8733  2.1707 -0.2467
10355TIP3   OH252479   0.976   3.807  14.071 -0.5411 -0.3980 -0.5725
10355TIP3    H152480   1.065   3.832  14.048 -0.4480 -0.4108 -0.2339
10355TIP3    H252481   0.983   3.717  14.103 -0.4150  0.1357  0.9871
10356TIP3   OH252482   2.218   5.704  13.302 -0.4147  0.0999  0.6610
10356TIP3    H152483   2.165   5.730  13.227  0.5466 -1.5928 -0.6944
10356TIP3    H252484   2.301   5.750  13.290 -0.1808 -0.3444  0.5348
10357TIP3   OH252485   2.305   1.251  12.777 -0.4600 -0.0487  0.1494
10357TIP3    H152486   2.284   1.342  12.798  1.3485  0.5259 -0.2981
10357TIP3    H252487   2.222   1.204  12.785 -1.5447  1.7340 -0.1188
10358TIP3   OH252488   1.359   6.004   3.923  0.2979  0.0884  0.1260
10358TIP3    H152489   1.436   5.999   3.980 -0.9713  0.4164  1.9565
10358TIP3    H252490   1.315   5.920   3.935 -0.1134  0.2538 -0.1906
10359TIP3   OH252491   4.143   3.982  11.530  0.2544 -0.1524  0.1114
10359TIP3    H152492   4.180   3.950  11.447  0.4513 -0.8394  0.4639
10359TIP3    H252493   4.214   4.034  11.569  0.3660 -0.3114  0.1230
10360TIP3   OH252494   4.477   2.122  11.282 -0.2024 -0.2355  0.0875
10360TIP3    H152495   4.488   2.193  11.346 -0.0692  0.7062 -0.9470
10360TIP3    H252496   4.388   2.089  11.297  0.1204 -0.5897  1.2961
10361TIP3   OH252497   4.227   5.718  17.220  0.1127 -0.0499 -0.7999
10361TIP3    H152498   4.182   5.719  17.135 -0.5280 -0.6762 -0.4782
10361TIP3    H252499   4.318   5.739  17.199 -0.3121  1.2655 -1.4596
10362TIP3   OH252500   0.887   3.570   5.884 -0.6074 -0.1376 -0.5121
10362TIP3    H152501   0.905   3.620   5.964  0.5507 -0.9411 -0.2474
10362TIP3    H252502   0.866   3.482   5.916 -1.7752 -0.0603 -1.0176
10363TIP3   OH252503   3.746   4.748   4.763 -0.0822 -0.3609 -0.5926
10363TIP3    H152504   3.721   4.655   4.762  0.3908 -0.4914 -1.1953
10363TIP3    H252505   3.662   4.795   4.762 -0.3371 -0.7712  0.3949
10364TIP3   OH252506   0.689   3.417   0.950 -0.3396  0.3714  0.2174
10364TIP3    H152507   0.594   3.413   0.950 -0.3269 -0.4121  1.2885
10364TIP3    H252508   0.711   3.492   1.005 -0.3298  1.3853 -1.1205
10365TIP3   OH252509   1.485   0.905  14.214 -0.4736 -0.4224  0.1762
10365TIP3    H152510   1.408   0.956  14.239 -0.3706 -0.4369  0.5178
10365TIP3    H252511   1.552   0.929  14.278 -0.6682 -1.6112  0.8427
10366TIP3   OH252512   2.659   5.125  14.520 -0.2311 -0.3968  0.4803
10366TIP3    H152513   2.695   5.037  14.514 -0.0610 -0.2480 -1.5479
10366TIP3    H252514   2.733   5.179  14.549 -0.0511 -0.7671  0.7106
10367TIP3   OH252515   0.450   3.621   5.273 -0.1000  0.2269  0.1051
10367TIP3    H152516   0.513   3.644   5.204 -0.8147  0.1452 -0.5847
10367TIP3    H252517   0.393   3.556   5.232 -0.0406 -0.4328  1.0399
10368TIP3   OH252518   1.352   0.944   0.822 -0.0105  0.6215 -0.4429
10368TIP3    H152519   1.396   0.870   0.779 -0.9340 -0.6328  0.6652
10368TIP3    H252520   1.282   0.969   0.763  0.2417  0.5414 -0.7765
10369TIP3   OH252521   1.615   1.227  11.335 -0.1221  0.0380  0.9145
10369TIP3    H152522   1.543   1.198  11.390 -0.8200 -2.2279 -1.0182
10369TIP3    H252523   1.619   1.163  11.264  2.8821  0.8978  0.1420
10370TIP3   OH252524   5.187   6.409  12.956  0.0376  0.4791  0.7811
10370TIP3    H152525   5.104   6.379  12.921 -0.7550  1.7178  1.5157
10370TIP3    H252526   5.252   6.383  12.891 -0.9767 -0.1387 -0.0022
10371TIP3   OH252527   0.289   4.171   4.273 -0.0494  0.0142 -0.3157
10371TIP3    H152528   0.268   4.091   4.321 -0.3152  0.8254  0.9637
10371TIP3    H252529   0.367   4.149   4.222 -0.9723 -1.5012 -1.1606
10372TIP3   OH252530   5.837   5.567  15.356  0.2283 -0.0851 -0.3852
10372TIP3    H152531   5.821   5.630  15.286 -0.0128  1.8967  1.3390
10372TIP3    H252532   5.906   5.607  15.409 -0.8643 -0.5964  1.5319
10373TIP3   OH252533   4.581   3.844   3.520  0.0542  0.0022  0.0158
10373TIP3    H152534   4.624   3.760   3.537 -0.3834  0.0563  1.5611
10373TIP3    H252535   4.604   3.898   3.595  1.2494  1.6795 -1.4785
10374TIP3   OH252536   0.358   0.602   4.251 -0.0207 -0.1286  0.0153
10374TIP3    H152537   0.340   0.685   4.206  0.7840 -0.2013 -0.4560
10374TIP3    H252538   0.374   0.628   4.342 -2.0803 -0.0271  0.3943
10375TIP3   OH252539   0.494   1.047   4.995 -0.1666  0.1509 -0.3509
10375TIP3    H152540   0.502   1.137   5.026 -1.2829  0.3416 -0.5892
10375TIP3    H252541   0.406   1.042   4.957 -0.7169 -1.4504  1.0075
10376TIP3   OH252542   6.228   5.422  14.405 -0.2210 -0.5590  0.0648
10376TIP3    H152543   6.293   5.351  14.399 -0.4780 -0.6639 -2.2681
10376TIP3    H252544   6.239   5.457  14.494  2.7476 -0.8320 -0.0990
10377TIP3   OH252545   4.202   0.200  15.915 -0.2638  0.6404 -1.0158
10377TIP3    H152546   4.179   0.119  15.870 -1.6708  0.7766 -0.6155
10377TIP3    H252547   4.266   0.174  15.982  0.3552  0.1135 -1.8017
10378TIP3   OH252548   5.237   6.188  17.138  0.6215 -0.1135 -0.2461
10378TIP3    H152549   5.243   6.092  17.133  1.2650 -0.0168 -3.6773
10378TIP3    H252550   5.317   6.219  17.098  1.9012  2.0525  3.4967
10379TIP3   OH252551   2.388   1.815  14.722  0.2028  0.1035 -0.1453
10379TIP3    H152552   2.361   1.734  14.764 -1.9550  0.0652 -1.4566
10379TIP3    H252553   2.352   1.884  14.778  0.1367  0.1222 -0.2118
10380TIP3   OH252554   2.885   5.993  16.865 -0.3310 -0.0720  0.3513
10380TIP3    H152555   2.956   6.046  16.827 -0.6822 -0.8649 -1.5355
10380TIP3    H252556   2.830   5.969  16.790 -0.3755 -2.8128  1.1376
10381TIP3   OH252557   5.238   4.679   2.542  0.6076 -0.1872  0.8232
10381TIP3    H152558   5.290   4.723   2.475 -2.4223  1.2118 -0.7866
10381TIP3    H252559   5.210   4.597   2.500 -0.0936 -0.0020  0.9305
10382TIP3   OH252560   4.933   6.544  13.322 -0.1707  0.0090  0.3397
10382TIP3    H152561   4.947   6.575  13.232 -1.0572 -2.4240 -0.7075
10382TIP3    H252562   4.967   6.615  13.377 -0.2486  1.8925 -1.8805
10383TIP3   OH252563   5.659   3.119   1.401  0.3277 -0.3112  0.6743
10383TIP3    H152564   5.631   3.185   1.464 -1.6890  0.1029 -0.5655
10383TIP3    H252565   5.677   3.168   1.321 -1.1933 -1.1737 -0.2609
10384TIP3   OH252566   4.906   3.349  14.093 -0.0303  0.0350 -0.2938
10384TIP3    H152567   4.907   3.271  14.037  0.3003  1.1461 -1.8928
10384TIP3    H252568   4.851   3.324  14.167  0.0005 -1.6900 -0.8072
10385TIP3   OH252569   4.182   6.275   0.022  0.6694 -0.8997 -0.2833
10385TIP3    H152570   4.271   6.257   0.053  0.5328  0.4931  1.0319
10385TIP3    H252571   4.142   6.189   0.012  1.4849 -1.4991  1.2450
10386TIP3   OH252572   1.953   5.978   1.479 -0.5998 -0.0807 -0.8332
10386TIP3    H152573   1.983   6.053   1.428  0.6197  0.3551  0.4643
10386TIP3    H252574   2.021   5.912   1.467 -1.5070 -0.9018 -1.7069
10387TIP3   OH252575   1.824   6.300   5.244 -0.1342 -0.0905 -0.2623
10387TIP3    H152576   1.735   6.334   5.231  0.2658  1.3464  0.4583
10387TIP3    H252577   1.839   6.242   5.170 -0.9153  1.2940 -1.5782
10388TIP3   OH252578   5.732   5.845  12.733  0.1880 -0.6444  0.7006
10388TIP3    H152579   5.659   5.892  12.774  2.2503  1.6865  1.9813
10388TIP3    H252580   5.800   5.842  12.801  1.7086 -1.7444 -0.7778
10389TIP3   OH252581   1.799   3.761   4.760  0.5435 -0.2251 -0.4651
10389TIP3    H152582   1.803   3.824   4.688  1.4174 -0.2759 -0.4703
10389TIP3    H252583   1.890   3.742   4.780  0.3056 -0.4283  0.4678
10390TIP3   OH252584   1.597   3.743  14.623 -0.0989  0.4772  0.0879
10390TIP3    H152585   1.653   3.690  14.566 -0.2761  1.4586 -1.0147
10390TIP3    H252586   1.512   3.698  14.622 -0.3969  1.0402 -1.2488
10391TIP3   OH252587   5.072   1.886  12.853  0.0538  0.2826 -0.2285
10391TIP3    H152588   5.139   1.955  12.859  0.5955 -0.3588  1.3704
10391TIP3    H252589   5.115   1.814  12.808 -0.0977  0.4759 -0.6929
10392TIP3   OH252590   3.975   0.406   4.629 -0.0184  0.8522  0.1376
10392TIP3    H152591   3.954   0.345   4.558 -0.1401  1.4762 -0.3680
10392TIP3    H252592   3.970   0.352   4.708  1.6219 -0.2354 -0.4212
10393TIP3   OH252593   2.025   4.074  12.424  0.2442  0.3870 -0.1443
10393TIP3    H152594   1.940   4.117  12.429  0.2176  0.3044  0.1795
10393TIP3    H252595   2.005   3.985  12.394  0.1166  0.1021  0.7545
10394TIP3   OH252596   3.180   3.824   5.742 -0.1201  0.2744 -0.1537
10394TIP3    H152597   3.265   3.833   5.699 -0.4041 -0.3161 -0.8461
10394TIP3    H252598   3.160   3.731   5.737 -1.9274  0.6935 -2.2075
10395TIP3   OH252599   4.030   3.118  12.699 -0.1693  0.1541  0.1494
10395TIP3    H152600   3.977   3.065  12.639 -0.3509  0.3218  0.1611
10395TIP3    H252601   3.967   3.171  12.747 -0.0801 -0.4875  0.9973
10396TIP3   OH252602   5.129   4.442  10.470 -0.2911 -0.2660  0.6775
10396TIP3    H152603   5.087   4.504  10.411 -0.3590 -0.2015  0.7951
10396TIP3    H252604   5.084   4.359  10.453 -0.7969 -0.0928  1.1535
10397TIP3   OH252605   4.820   5.952   0.392 -0.2948  0.4314 -0.3240
10397TIP3    H152606   4.848   6.024   0.449 -2.7492 -0.6489  2.4914
10397TIP3    H252607   4.876   5.879   0.416 -0.8055  0.1993  0.2080
10398TIP3   OH252608   1.541   4.903   5.294  0.0483  0.2701  0.4055
10398TIP3    H152609   1.551   4.858   5.210 -0.9440 -1.3712  1.1123
10398TIP3    H252610   1.630   4.909   5.329  0.4038  0.4772 -0.5007
10399TIP3   OH252611   4.570   1.114   6.211  0.1604  0.0430  0.8159
10399TIP3    H152612   4.602   1.052   6.277  2.3926  2.0772  1.8110
10399TIP3    H252613   4.521   1.179   6.261 -0.7692 -0.0315  0.0208
10400TIP3   OH252614   5.610   1.469  12.175  0.4633 -0.0297  0.1326
10400TIP3    H152615   5.682   1.418  12.211  0.8471  0.1884 -0.3181
10400TIP3    H252616   5.622   1.465  12.080  0.1792  0.4401  0.0713
10401TIP3   OH252617   4.311   3.912  16.789 -0.1668 -0.0124  0.8763
10401TIP3    H152618   4.319   3.846  16.720 -0.0055 -0.6788  1.5242
10401TIP3    H252619   4.398   3.951  16.795 -0.0933 -0.1834  0.9283
10402TIP3   OH252620   6.136   3.537  13.509 -0.9746  0.8532 -0.0494
10402TIP3    H152621   6.074   3.603  13.479 -0.8144  1.3262  0.6184
10402TIP3    H252622   6.205   3.536  13.442 -1.9008 -0.0001 -1.0263
10403TIP3   OH252623   3.345   2.978  10.972 -0.4042 -0.0845 -0.6927
10403TIP3    H152624   3.319   3.013  10.887 -0.1992  0.4994 -0.5186
10403TIP3    H252625   3.435   2.948  10.959  0.2476  1.5466 -0.2631
10404TIP3   OH252626   3.676   3.314  11.931 -0.1796 -0.5147 -0.5041
10404TIP3    H152627   3.656   3.299  12.023 -0.6283 -0.5316 -0.5984
10404TIP3    H252628   3.752   3.259  11.913  1.9148  1.8313  0.6374
10405TIP3   OH252629   6.555   3.710  15.348 -0.3672  0.4821  0.5893
10405TIP3    H152630   6.470   3.754  15.358  0.6477  2.7246 -0.0712
10405TIP3    H252631   6.617   3.766  15.394  0.8270 -1.0086  0.8800
10406TIP3   OH252632   1.680   3.397   0.913  0.2881 -0.1311  0.1268
10406TIP3    H152633   1.654   3.308   0.889  3.6514 -0.8851 -1.3892
10406TIP3    H252634   1.700   3.391   1.006 -0.2169 -0.7696  0.2033
10407TIP3   OH252635   0.174   2.874  11.707  0.5563  0.2087  0.3039
10407TIP3    H152636   0.158   2.874  11.612 -2.2407 -0.2610  0.7017
10407TIP3    H252637   0.225   2.794  11.722  1.4065  0.5117 -0.8325
10408TIP3   OH252638   1.247   3.498   3.314 -0.4959  1.0217  0.3836
10408TIP3    H152639   1.317   3.527   3.372 -0.1300  0.3238  0.3050
10408TIP3    H252640   1.211   3.579   3.278  1.9073  1.3681 -1.5016
10409TIP3   OH252641   2.436   3.515   1.783  0.6219  0.0119  0.2763
10409TIP3    H152642   2.397   3.559   1.707  1.8995 -1.2442 -1.2035
10409TIP3    H252643   2.368   3.516   1.849 -1.2104 -0.3354 -1.4950
10410TIP3   OH252644   5.526   3.462  16.601 -0.3464 -0.1983 -0.8267
10410TIP3    H152645   5.433   3.477  16.588 -0.5695 -1.4735 -0.8233
10410TIP3    H252646   5.531   3.376  16.642  0.7734  0.3288  0.2481
10411TIP3   OH252647   2.470   1.935  13.688  0.5781  0.1838 -1.1146
10411TIP3    H152648   2.410   1.923  13.614  2.9516 -1.0633 -2.9934
10411TIP3    H252649   2.537   1.994  13.653  1.2026  0.4133  0.4244
10412TIP3   OH252650   5.935   0.185   3.066 -0.0089 -0.6018  0.3893
10412TIP3    H152651   5.931   0.098   3.105  0.4405 -0.4125  0.8545
10412TIP3    H252652   6.015   0.223   3.099  0.0890 -0.2173 -0.2658
10413TIP3   OH252653   0.141   3.466  13.024  0.1342  0.7184  0.4252
10413TIP3    H152654   0.091   3.469  12.942 -2.1281  2.2182  1.7369
10413TIP3    H252655   0.215   3.525  13.009 -0.0552  0.7132 -0.6444
10414TIP3   OH252656   4.803   0.340  11.659  0.0589  0.7559 -0.4223
10414TIP3    H152657   4.888   0.382  11.675 -0.0523  1.0559 -0.6103
10414TIP3    H252658   4.787   0.289  11.738  1.4526 -1.0905 -1.2466
10415TIP3   OH252659   4.820   5.620  12.477  0.6048 -0.2228  0.6158
10415TIP3    H152660   4.855   5.533  12.457 -0.8875 -1.0682  1.4926
10415TIP3    H252661   4.780   5.610  12.563  1.1444  1.5808  1.1089
10416TIP3   OH252662   2.362   4.188  13.890  0.0732  0.4067  0.5795
10416TIP3    H152663   2.422   4.224  13.825  1.1156 -0.5249  0.9984
10416TIP3    H252664   2.374   4.244  13.967 -1.3527  1.6726 -0.0648
10417TIP3   OH252665   2.906   4.082   3.526  0.3691  0.7521 -0.4319
10417TIP3    H152666   2.939   4.052   3.610 -1.6089 -0.9726 -0.2034
10417TIP3    H252667   2.838   4.145   3.548 -0.2194  0.2277 -0.7282
10418TIP3   OH252668   4.220   4.978  12.629  0.5161  0.0578  0.2822
10418TIP3    H152669   4.126   4.993  12.634  0.2266 -1.4259 -0.2968
10418TIP3    H252670   4.251   4.989  12.719 -0.1870  0.6481  0.4592
10419TIP3   OH252671   0.270   3.930  15.536  0.6777 -0.0594  0.2880
10419TIP3    H152672   0.248   3.947  15.628  1.0238  0.7515  0.2318
10419TIP3    H252673   0.361   3.960  15.527  0.9235 -0.9125 -0.1189
10420TIP3   OH252674   1.281   4.763   4.184 -0.0866 -0.3276 -0.9698
10420TIP3    H152675   1.354   4.738   4.241 -0.2834  0.6229 -0.2746
10420TIP3    H252676   1.203   4.745   4.236 -0.2445  1.5133 -0.4873
10421TIP3   OH252677   3.674   5.913   5.215  0.3544  0.1305  0.0961
10421TIP3    H152678   3.613   5.909   5.141  1.1824  1.5126 -0.7071
10421TIP3    H252679   3.648   5.840   5.272 -1.7357  0.3760 -0.4433
10422TIP3   OH252680   1.388   0.601  12.634  0.2923  0.0750 -0.3150
10422TIP3    H152681   1.430   0.681  12.603 -1.3263  0.0743 -2.7318
10422TIP3    H252682   1.361   0.621  12.724  2.6397  1.0998  0.2385
10423TIP3   OH252683   2.558   3.672   5.403 -0.1502 -0.0203  0.1034
10423TIP3    H152684   2.617   3.710   5.468  0.4281  0.6855 -0.7911
10423TIP3    H252685   2.478   3.651   5.451  0.9413 -1.3028  1.4050
10424TIP3   OH252686   6.512   6.675   3.677  0.4848 -0.4776  0.4645
10424TIP3    H152687   6.437   6.718   3.636  0.6971  0.7704  1.3370
10424TIP3    H252688   6.556   6.631   3.604 -0.0564  0.3390 -0.3898
10425TIP3   OH252689   2.848   4.330   2.648  0.2654 -0.4723 -0.2936
10425TIP3    H152690   2.857   4.382   2.728  0.2131  0.6301 -0.9881
10425TIP3    H252691   2.827   4.242   2.680 -0.5861  0.1146  0.8939
10426TIP3   OH252692   5.454   1.047   2.695 -0.5806 -0.1576  0.5366
10426TIP3    H152693   5.397   0.973   2.717 -1.0136 -0.1678 -0.5563
10426TIP3    H252694   5.455   1.101   2.774 -0.5500 -1.1357  1.2275
10427TIP3   OH252695   5.892   5.182   0.246 -0.1787 -0.5789  0.3941
10427TIP3    H152696   5.797   5.192   0.255 -0.2620 -0.6410 -0.3319
10427TIP3    H252697   5.904   5.148   0.157  0.6630  2.0659 -0.6005
10428TIP3   OH252698   5.114   6.454   6.123 -0.3659  0.3898 -0.6470
10428TIP3    H152699   5.039   6.462   6.183  1.0499 -2.5919  1.7936
10428TIP3    H252700   5.181   6.510   6.160  0.3668 -1.1291  0.4266
10429TIP3   OH252701   4.888   6.425  15.353 -0.1954  0.4030 -0.4072
10429TIP3    H152702   4.916   6.517  15.351 -0.7427  0.5770 -0.4010
10429TIP3    H252703   4.828   6.417  15.278 -1.3021  0.4402  0.4465
10430TIP3   OH252704   2.878   2.564  10.980  0.0228  0.2486 -0.0398
10430TIP3    H152705   2.918   2.602  10.902 -2.7945 -1.8779 -2.7912
10430TIP3    H252706   2.797   2.614  10.992  0.1310  0.1594  1.2052
10431TIP3   OH252707   3.018   0.166  11.538  0.3255 -0.0549  0.1321
10431TIP3    H152708   3.048   0.140  11.451  0.3235 -0.1124  0.1481
10431TIP3    H252709   2.968   0.246  11.524  0.7294  0.2026  0.1431
10432TIP3   OH252710   5.828   5.715   4.590 -0.7679  0.0902  0.5155
10432TIP3    H152711   5.839   5.624   4.617  0.7469  0.1068  0.0416
10432TIP3    H252712   5.907   5.759   4.620 -0.1195  0.6096 -1.7565
10433TIP3   OH252713   3.437   0.323   2.094 -0.0648  0.1856 -0.5282
10433TIP3    H152714   3.521   0.294   2.059 -0.5076 -1.3161 -0.4267
10433TIP3    H252715   3.440   0.419   2.087  0.3962  0.0676 -3.4297
10434TIP3   OH252716   1.595   4.581   3.372 -0.2794  0.2079 -0.2917
10434TIP3    H152717   1.542   4.568   3.450 -1.8155 -1.5114 -1.5266
10434TIP3    H252718   1.633   4.668   3.383 -0.8382  0.2121  2.1130
10435TIP3   OH252719   1.400   2.632   2.808 -0.6058  0.3572  0.0311
10435TIP3    H152720   1.427   2.715   2.846 -0.1901  0.5848 -0.7397
10435TIP3    H252721   1.360   2.584   2.881 -1.4001  1.4642  0.3466
10436TIP3   OH252722   3.934   1.714  11.534 -0.2913  0.3341 -0.5158
10436TIP3    H152723   4.012   1.664  11.559 -1.0721 -0.1082  1.1592
10436TIP3    H252724   3.954   1.804  11.560 -0.6269  0.0869  0.6082
10437TIP3   OH252725   2.603   0.325   4.563 -0.6048 -0.0536  0.2460
10437TIP3    H152726   2.658   0.253   4.594  0.8582  1.2998  0.9483
10437TIP3    H252727   2.539   0.283   4.505 -0.4017 -2.0241  1.3569
10438TIP3   OH252728   5.947   1.949   1.154 -0.2959  0.0115  0.6515
10438TIP3    H152729   5.865   1.901   1.140 -1.6348  2.4041 -0.2763
10438TIP3    H252730   5.930   2.004   1.230  1.1088 -0.6960  1.5236
10439TIP3   OH252731   4.609   3.350  13.702 -0.6549  0.5236  0.6308
10439TIP3    H152732   4.650   3.312  13.624  0.7129  2.0319  0.5608
10439TIP3    H252733   4.533   3.295  13.719 -0.0068 -0.8544 -0.7607
10440TIP3   OH252734   0.957   3.564  15.314 -0.5336 -0.1198 -0.5132
10440TIP3    H152735   0.869   3.590  15.341 -0.6550 -1.7033  0.8261
10440TIP3    H252736   1.015   3.610  15.375 -0.5200 -0.1366 -0.5132
10441TIP3   OH252737   6.147   6.089   1.159 -0.0229 -0.3417 -0.6968
10441TIP3    H152738   6.072   6.133   1.120  0.8849  1.3467 -0.6605
10441TIP3    H252739   6.129   6.088   1.253 -1.3658 -2.7605 -0.8900
10442TIP3   OH252740   3.307   5.187   4.107  0.2085  0.5635 -0.4403
10442TIP3    H152741   3.296   5.275   4.069 -1.3341  0.0703 -1.2060
10442TIP3    H252742   3.239   5.182   4.174  0.5886  0.1062 -0.0880
10443TIP3   OH252743   0.646   6.647  15.239  0.3436  0.4134  0.0123
10443TIP3    H152744   0.566   6.597  15.222  0.4315  0.1168  0.4773
10443TIP3    H252745   0.639   6.722  15.180  0.3348 -0.2762 -0.8941
10444TIP3   OH252746   4.967   0.940   0.336 -0.0161 -0.2199  0.4891
10444TIP3    H152747   4.999   0.941   0.427 -0.1158  0.7134  0.5197
10444TIP3    H252748   4.895   0.877   0.337 -0.7419  0.5826  1.3168
10445TIP3   OH252749   0.115   5.454  12.411 -0.1523 -0.3323  0.3352
10445TIP3    H152750   0.135   5.362  12.394  0.8404  0.3164 -2.4316
10445TIP3    H252751   0.036   5.471  12.361  0.6971  0.7448 -0.6821
10446TIP3   OH252752   3.105   0.198   5.369 -0.2433  0.2507 -0.4142
10446TIP3    H152753   3.069   0.214   5.456  0.1967 -1.5707  0.1493
10446TIP3    H252754   3.179   0.259   5.362  0.2933 -0.2171  0.8826
10447TIP3   OH252755   1.584   3.108   2.611 -0.1114  0.1355 -0.5297
10447TIP3    H152756   1.658   3.050   2.594  0.0131  0.2133 -0.2621
10447TIP3    H252757   1.596   3.137   2.702  0.3202  1.2958 -0.9427
10448TIP3   OH252758   2.874   0.591  17.107  0.0617  0.2759 -0.1551
10448TIP3    H152759   2.803   0.608  17.045  1.2512 -0.9928 -1.9771
10448TIP3    H252760   2.901   0.678  17.137 -1.5349  0.8294 -0.2351
10449TIP3   OH252761   3.883   0.720   5.362 -0.3887 -0.0432  0.6411
10449TIP3    H152762   3.979   0.725   5.367 -0.4047 -0.3757  1.4748
10449TIP3    H252763   3.860   0.777   5.289  0.5977 -1.5315 -0.9157
10450TIP3   OH252764   4.864   2.976  13.729 -0.6701  0.2813 -0.3339
10450TIP3    H152765   4.885   3.029  13.653 -1.0549 -0.3163 -0.8649
10450TIP3    H252766   4.863   2.886  13.697  2.3903 -0.3687  1.0369
10451TIP3   OH252767   5.380   0.139  12.761 -0.1175  0.0154 -0.4488
10451TIP3    H152768   5.302   0.084  12.768  0.1655 -0.4817 -1.0693
10451TIP3    H252769   5.397   0.144  12.667  0.5144  0.2344 -0.3292
10452TIP3   OH252770   2.468   3.329  17.103 -0.1833 -0.2446  0.2891
10452TIP3    H152771   2.453   3.235  17.112 -2.5153  0.0410 -0.0799
10452TIP3    H252772   2.439   3.366  17.186  1.8907  0.1100  0.9353
10453TIP3   OH252773   4.111   2.175   6.591  0.3127 -0.1407  0.8264
10453TIP3    H152774   4.160   2.166   6.509  0.2619 -0.0848  0.7893
10453TIP3    H252775   4.138   2.261   6.626 -0.7091  0.4705  0.1658
10454TIP3   OH252776   5.870   1.803  13.436 -0.2826  0.4470  0.3162
10454TIP3    H152777   5.866   1.812  13.532 -0.9411  1.8833  0.1884
10454TIP3    H252778   5.952   1.847  13.412 -0.0408 -0.0483  0.2241
10455TIP3   OH252779   2.020   5.224  12.523 -0.1696  0.3255  0.7157
10455TIP3    H152780   2.006   5.270  12.440 -0.1597 -1.5142 -0.3628
10455TIP3    H252781   2.101   5.174  12.510  1.5871  2.3825  2.9927
10456TIP3   OH252782   5.874   4.879  14.030 -0.7801  0.0403 -0.1740
10456TIP3    H152783   5.924   4.958  14.009  1.1543 -1.3135 -0.9719
10456TIP3    H252784   5.849   4.843  13.945 -0.4309 -0.9181  0.1097
10457TIP3   OH252785   0.685   4.941   0.002 -0.0661  0.4627 -0.2470
10457TIP3    H152786   0.729   4.969   0.082 -1.1801  0.3898  0.4098
10457TIP3    H252787   0.744   4.968  -0.068  0.4691  1.4247  0.5424
10458TIP3   OH252788   3.136   5.265   4.334 -0.4139  0.0256  0.0088
10458TIP3    H152789   3.170   5.305   4.414  0.9216  1.5715 -1.2731
10458TIP3    H252790   3.091   5.335   4.288 -2.8475 -1.2869  0.2204
10459TIP3   OH252791   4.744   2.490   6.240  0.5347 -0.2686  0.5410
10459TIP3    H152792   4.696   2.418   6.280  1.2698 -1.3428 -0.4630
10459TIP3    H252793   4.836   2.474   6.262  1.0022 -1.0641 -1.7247
10460TIP3   OH252794   0.320   4.287  14.227  0.6546  0.5275 -0.0294
10460TIP3    H152795   0.231   4.255  14.244 -0.3277  1.6042 -2.6315
10460TIP3    H252796   0.377   4.215  14.256 -0.9921 -0.0853  1.9629
10461TIP3   OH252797   0.641   4.761  13.587 -0.0712 -0.1421 -0.3503
10461TIP3    H152798   0.729   4.740  13.617 -0.4215  0.0184  0.8225
10461TIP3    H252799   0.603   4.815  13.657 -1.3355 -0.7666 -0.5246
10462TIP3   OH252800   3.307   5.119   1.427  0.1665 -0.0671  0.0559
10462TIP3    H152801   3.351   5.106   1.511 -0.6770 -0.3260  0.4669
10462TIP3    H252802   3.340   5.204   1.397 -0.1557  0.4452  1.0656
10463TIP3   OH252803   4.168   6.579   3.083  0.2400 -0.2972 -0.2912
10463TIP3    H152804   4.116   6.499   3.085 -0.1601 -0.0783 -1.3501
10463TIP3    H252805   4.218   6.574   3.002  0.3011  0.4726 -0.3076
10464TIP3   OH252806   5.829   0.929  16.920 -0.3670 -0.4776  0.1017
10464TIP3    H152807   5.828   0.922  17.015 -0.1449  1.1415  0.2445
10464TIP3    H252808   5.851   0.840  16.890  3.7496 -0.2249  1.7105
10465TIP3   OH252809   2.087   2.550   1.874 -0.3540 -0.5748 -0.1598
10465TIP3    H152810   2.104   2.527   1.965  1.0068 -1.8634 -0.7085
10465TIP3    H252811   2.118   2.475   1.824  1.1664  1.0886 -1.8504
10466TIP3   OH252812   3.716   4.110   0.160  0.1166 -0.0050 -0.1662
10466TIP3    H152813   3.809   4.094   0.176 -0.1691  0.5209  2.4611
10466TIP3    H252814   3.676   4.109   0.247 -2.2015  0.7396 -1.1370
10467TIP3   OH252815   4.067   0.696   3.922  0.3769 -0.0782 -0.3943
10467TIP3    H152816   4.019   0.772   3.953 -0.0561 -0.2423 -0.6491
10467TIP3    H252817   4.039   0.625   3.980 -0.5349 -0.4143 -1.2277
10468TIP3   OH252818   0.970   1.144  13.242 -0.3023  0.5068 -0.3833
10468TIP3    H152819   0.948   1.224  13.194  0.1492  0.8850  0.0373
10468TIP3    H252820   0.989   1.173  13.331  2.0831  0.2631 -0.7380
10469TIP3   OH252821   1.472   6.716   0.392 -0.4033  0.0250  0.4057
10469TIP3    H152822   1.472   6.621   0.402  1.8765  0.0064  0.7343
10469TIP3    H252823   1.543   6.746   0.448 -1.5823  2.0358  0.9563
10470TIP3   OH252824   2.993   1.048   5.819 -0.2913 -0.5898 -0.1930
10470TIP3    H152825   2.947   1.106   5.881 -0.2006 -0.4796 -0.2274
10470TIP3    H252826   3.084   1.047   5.850  0.0514  0.4927 -1.0477
10471TIP3   OH252827   3.495   1.430  13.782  0.0223  0.5324  0.3091
10471TIP3    H152828   3.484   1.386  13.698  0.4804  1.7504 -0.4177
10471TIP3    H252829   3.570   1.489  13.769 -0.2157  1.1180  1.4064
10472TIP3   OH252830   3.375   3.779   1.051 -0.5704  0.5150  0.7444
10472TIP3    H152831   3.380   3.860   1.103  0.2263  1.2927 -0.5029
10472TIP3    H252832   3.466   3.759   1.029 -0.5852 -1.6317  2.3407
10473TIP3   OH252833   3.786   1.573   2.756 -0.6558 -0.7302  0.3980
10473TIP3    H152834   3.753   1.483   2.760  0.1679 -1.0081  1.5236
10473TIP3    H252835   3.828   1.586   2.841  1.6670 -0.2316 -0.7734
10474TIP3   OH252836   2.045   0.552   4.752  0.1815 -0.0592  0.0692
10474TIP3    H152837   2.095   0.471   4.761  0.6577 -0.0135 -1.8176
10474TIP3    H252838   2.111   0.621   4.750 -0.2249  0.4365  1.7458
10475TIP3   OH252839   1.199   0.547  15.343 -0.0990 -0.3734 -0.7097
10475TIP3    H152840   1.255   0.469  15.337 -0.6814 -0.9559  0.9619
10475TIP3    H252841   1.117   0.520  15.300 -1.0844 -1.4946  1.6889
10476TIP3   OH252842   2.648   3.308   0.225  0.1288 -0.0741 -0.3117
10476TIP3    H152843   2.558   3.313   0.258  0.7199 -1.8990  1.8244
10476TIP3    H252844   2.693   3.251   0.287  2.4227 -0.3982 -2.1397
10477TIP3   OH252845   2.026   4.188  17.056 -0.2965 -0.7426 -0.0943
10477TIP3    H152846   2.091   4.251  17.025  0.3098 -1.7411 -0.9645
10477TIP3    H252847   2.054   4.166  17.145  0.8196 -1.4384 -0.5874
10478TIP3   OH252848   4.470   3.824   4.451  0.5004 -0.5834 -0.1149
10478TIP3    H152849   4.518   3.767   4.510  2.3746  0.2503 -0.7358
10478TIP3    H252850   4.387   3.840   4.495  0.7924 -2.0570  1.0474
10479TIP3   OH252851   5.954   1.103  17.261  0.3637  0.3092  0.2711
10479TIP3    H152852   5.888   1.039  17.237 -1.0413  0.6957  2.6916
10479TIP3    H252853   6.037   1.064  17.236 -0.5712 -1.7359  0.2106
10480TIP3   OH252854   2.507   1.781   4.476  0.0094  0.4103 -0.1807
10480TIP3    H152855   2.594   1.820   4.479 -0.5840  1.7231  2.0206
10480TIP3    H252856   2.480   1.774   4.568 -1.8547 -0.8132 -0.7524
10481TIP3   OH252857   6.126   5.812  17.364  0.3599 -0.1686 -0.1115
10481TIP3    H152858   6.215   5.849  17.367  0.5161 -0.3885 -1.4161
10481TIP3    H252859   6.136   5.730  17.316 -0.2590 -1.1366  1.3569
10482TIP3   OH252860   2.455   3.063  17.032  0.0967 -0.1686  0.2316
10482TIP3    H152861   2.439   3.067  16.938  0.7611  0.5683  0.1410
10482TIP3    H252862   2.415   2.980  17.060  0.4465 -0.7037 -0.8035
10483TIP3   OH252863   0.420   3.161   0.658 -0.0150  0.2607 -0.1588
10483TIP3    H152864   0.401   3.067   0.663  0.5218  0.2080  1.6856
10483TIP3    H252865   0.479   3.178   0.732  2.4566  1.4922 -2.2539
10484TIP3   OH252866   0.280   6.267  13.674 -0.1218 -0.0018 -0.4581
10484TIP3    H152867   0.247   6.354  13.696 -0.0867  0.3462 -1.6763
10484TIP3    H252868   0.355   6.255  13.732 -1.0478  0.1215  0.7963
10485TIP3   OH252869   5.293   2.272   1.184  0.2589  0.7841  0.6998
10485TIP3    H152870   5.350   2.348   1.192  0.3143  1.1646 -2.1787
10485TIP3    H252871   5.206   2.309   1.168  0.3871  0.3114 -1.3064
10486TIP3   OH252872   0.606   3.099   5.856 -0.5836 -0.3908  0.2922
10486TIP3    H152873   0.627   3.007   5.838 -0.7589 -0.4328  0.3102
10486TIP3    H252874   0.630   3.112   5.948  3.4396  0.6583 -0.6866
10487TIP3   OH252875   3.803   3.463   3.132  0.2901  0.0297 -0.4639
10487TIP3    H152876   3.748   3.488   3.058 -0.4326  2.4986  0.7610
10487TIP3    H252877   3.893   3.477   3.102  0.0108  0.7894 -0.9752
10488TIP3   OH252878   3.211   2.064  16.698 -0.7545 -0.5023 -0.2128
10488TIP3    H152879   3.154   2.072  16.622  1.0555  0.7519 -1.5405
10488TIP3    H252880   3.265   2.143  16.695 -0.2609 -0.6822  2.1000
10489TIP3   OH252881   5.675   6.526   5.076 -0.3281 -0.2203 -0.1645
10489TIP3    H152882   5.636   6.560   4.995 -1.6444  0.4638  0.7224
10489TIP3    H252883   5.760   6.491   5.049 -1.5316 -1.8196 -2.2238
10490TIP3   OH252884   1.447   0.377  15.350  0.1730  0.0646  0.0837
10490TIP3    H152885   1.491   0.411  15.428  0.8712  2.4210 -1.2279
10490TIP3    H252886   1.446   0.452  15.290  0.3340 -1.8694 -2.4492
10491TIP3   OH252887   6.341   1.040   2.674  0.3254 -0.5399  0.9907
10491TIP3    H152888   6.436   1.040   2.662  0.3560  1.4766  1.0128
10491TIP3    H252889   6.324   1.102   2.744 -1.1200  0.6845 -0.3362
10492TIP3   OH252890   5.179   3.551  11.165 -0.0583 -0.2200 -0.0408
10492TIP3    H152891   5.205   3.613  11.097 -0.7605  0.9827  0.7549
10492TIP3    H252892   5.145   3.475  11.117  0.4728  0.1491 -1.0216
10493TIP3   OH252893   6.060   6.162   2.303 -0.0998 -0.1561 -0.5281
10493TIP3    H152894   6.069   6.068   2.287  1.3773 -0.3495  1.0897
10493TIP3    H252895   6.106   6.203   2.230  0.8508 -0.7673 -0.2962
10494TIP3   OH252896   2.552   2.274  17.004 -0.5657  0.8001 -0.2812
10494TIP3    H152897   2.553   2.270  17.100 -1.2748  0.3948 -0.2845
10494TIP3    H252898   2.461   2.255  16.980 -0.2184  0.0789 -1.0766
10495TIP3   OH252899   1.106   3.377  14.796 -0.1489  0.4751 -0.8406
10495TIP3    H152900   1.056   3.458  14.784 -1.4224 -0.4876 -2.4010
10495TIP3    H252901   1.040   3.309  14.801  0.9467 -0.8776 -3.1291
10496TIP3   OH252902   5.284   4.618  15.697 -0.4952 -0.5827  0.1149
10496TIP3    H152903   5.350   4.626  15.767  0.3386  0.8469 -0.7848
10496TIP3    H252904   5.319   4.552  15.638 -0.9151 -1.3660  0.7315
10497TIP3   OH252905   2.905   0.744   0.572 -0.0627  0.0735  0.6052
10497TIP3    H152906   2.870   0.752   0.661 -1.6788  1.4456 -0.0886
10497TIP3    H252907   2.828   0.754   0.515  1.0501  0.0749 -0.9612
10498TIP3   OH252908   6.447   5.590  16.904  0.4313  0.2922 -0.0406
10498TIP3    H152909   6.389   5.551  16.969 -0.2606 -1.3189 -1.5541
10498TIP3    H252910   6.428   5.544  16.823  3.1462  0.3691 -0.8416
10499TIP3   OH252911   0.726   5.653  15.583 -0.2086 -0.0241  0.6365
10499TIP3    H152912   0.802   5.599  15.565 -0.4540  0.4838 -2.3029
10499TIP3    H252913   0.658   5.619  15.525 -2.8857 -1.4921  4.2020
10500TIP3   OH252914   5.110   5.271  17.201  0.2048  0.2577 -0.0269
10500TIP3    H152915   5.092   5.254  17.293  1.5010  0.3608  0.2691
10500TIP3    H252916   5.070   5.357  17.184 -1.6376 -0.5693 -0.0824
10501TIP3   OH252917   3.041   5.254   4.727  0.3668 -0.6965  0.3894
10501TIP3    H152918   3.075   5.343   4.718  2.0211 -1.4826 -2.2051
10501TIP3    H252919   2.960   5.253   4.678 -1.3852  0.0794  3.0483
10502TIP3   OH252920   3.765   2.918  12.742 -0.7865  0.5312  0.2001
10502TIP3    H152921   3.717   2.961  12.671 -0.5842  2.5585  1.2333
10502TIP3    H252922   3.697   2.871  12.791 -0.7052 -2.6824 -2.3692
10503TIP3   OH252923   2.633   1.314  11.363 -0.0682 -0.6386  0.6515
10503TIP3    H152924   2.551   1.270  11.385 -1.7462  0.6145 -2.5352
10503TIP3    H252925   2.643   1.303  11.269  1.6715  2.0996  0.3825
10504TIP3   OH252926   5.668   4.415  10.693  0.3110 -0.4356 -0.3446
10504TIP3    H152927   5.753   4.407  10.735  0.0712  2.2945  0.8213
10504TIP3    H252928   5.635   4.501  10.719 -3.0706 -1.5926 -0.2827
10505TIP3   OH252929   1.990   1.854  11.426 -0.2866 -0.5149 -0.3249
10505TIP3    H152930   2.043   1.775  11.440 -0.8605 -1.1141 -1.3878
10505TIP3    H252931   1.939   1.863  11.506  0.5270 -0.6374  0.2154
10506TIP3   OH252932   2.171   6.728   2.156 -0.1185 -0.2915 -0.5242
10506TIP3    H152933   2.246   6.703   2.102  0.5573 -0.0801  0.2925
10506TIP3    H252934   2.131   6.801   2.110  2.2331  1.9214  0.7021
10507TIP3   OH252935   3.615   0.283  15.756 -0.0384  0.2398 -0.1232
10507TIP3    H152936   3.548   0.219  15.731 -0.4436  0.3760  0.5814
10507TIP3    H252937   3.601   0.356  15.696 -0.9475  0.5303  0.4259
10508TIP3   OH252938   5.280   3.700   3.332 -0.2189  0.0716 -0.2544
10508TIP3    H152939   5.227   3.742   3.264  2.0422 -0.7106 -2.6876
10508TIP3    H252940   5.289   3.609   3.302  1.0021 -0.2508  1.0017
10509TIP3   OH252941   2.751   3.661  15.696 -0.2504 -0.0403  0.1899
10509TIP3    H152942   2.761   3.626  15.608  3.0600 -0.5509  0.6311
10509TIP3    H252943   2.820   3.619  15.746 -2.3990 -0.2531  3.2553
10510TIP3   OH252944   2.916   3.689  15.376 -0.8251 -0.1642 -0.1550
10510TIP3    H152945   2.877   3.751  15.315 -1.1514 -0.3424 -0.1290
10510TIP3    H252946   2.873   3.606  15.357  0.6762 -0.7556 -1.2382
10511TIP3   OH252947   1.629   1.631  13.988  0.4597 -0.7332 -0.0375
10511TIP3    H152948   1.638   1.555  13.931  1.1119 -0.4751 -0.2845
10511TIP3    H252949   1.715   1.642  14.027 -0.3168 -1.7756  2.1448
10512TIP3   OH252950   1.188   2.843   5.600 -0.0163  0.4060  0.4070
10512TIP3    H152951   1.195   2.848   5.695  0.9629 -1.6633  0.4991
10512TIP3    H252952   1.109   2.792   5.584 -0.3246  0.9692  0.0739
10513TIP3   OH252953   0.245   6.505   4.374  0.2263  0.4204  0.3657
10513TIP3    H152954   0.316   6.444   4.354  1.3222  1.5470  0.7028
10513TIP3    H252955   0.202   6.519   4.290 -0.5457 -1.3700  0.4016
10514TIP3   OH252956   0.710   4.318   5.458 -0.1347 -0.1487  0.2616
10514TIP3    H152957   0.792   4.287   5.421 -0.1097 -0.1957  0.3563
10514TIP3    H252958   0.711   4.413   5.444  0.0929 -0.1041  0.5755
10515TIP3   OH252959   3.566   1.454   0.968 -1.0043 -0.4861  0.6851
10515TIP3    H152960   3.659   1.433   0.982 -0.8277 -1.8670 -1.8716
10515TIP3    H252961   3.563   1.549   0.972  0.7020 -0.3558  0.0756
10516TIP3   OH252962   5.560   2.744   4.021  0.2826 -0.1379 -0.2553
10516TIP3    H152963   5.563   2.809   3.951 -1.9629  0.9719  0.5651
10516TIP3    H252964   5.574   2.794   4.102  2.3050 -1.3095  0.1806
10517TIP3   OH252965   4.498   0.775  14.311  0.6022 -0.2725 -0.2187
10517TIP3    H152966   4.466   0.815  14.230  0.4042 -1.2221 -0.6192
10517TIP3    H252967   4.436   0.705  14.330  1.1523 -0.6401  0.2631
10518TIP3   OH252968   1.882   5.683  11.719  0.2419  0.3489 -0.0729
10518TIP3    H152969   1.937   5.609  11.744 -0.8064 -0.3739  0.1708
10518TIP3    H252970   1.879   5.738  11.798  0.2077  0.1295  0.0806
10519TIP3   OH252971   2.417   4.353  16.011  0.3512  0.6005 -0.5597
10519TIP3    H152972   2.325   4.336  16.031  0.2849  0.9396 -0.5560
10519TIP3    H252973   2.459   4.268  16.013 -0.2152  0.2705 -1.8507
10520TIP3   OH252974   0.419   3.285  11.795  0.1368  0.1255  0.2697
10520TIP3    H152975   0.453   3.247  11.714  1.1126  0.8302  0.3335
10520TIP3    H252976   0.437   3.219  11.862  0.9443  0.2831  0.2135
10521TIP3   OH252977   1.362   1.020  17.020  0.3525  0.0009 -0.0642
10521TIP3    H152978   1.321   1.028  16.934 -0.0575 -0.1590  0.1155
10521TIP3    H252979   1.347   0.929  17.045  0.6108  0.0041  0.1071
10522TIP3   OH252980   3.185   2.130  15.420  0.5769  0.9054 -0.4844
10522TIP3    H152981   3.213   2.087  15.501 -0.5935 -0.6284 -0.8521
10522TIP3    H252982   3.091   2.141  15.430  0.0479 -1.1482 -2.3887
10523TIP3   OH252983   2.763   0.363   3.000 -0.3195  0.9072  0.3022
10523TIP3    H152984   2.839   0.398   2.955  0.8811  0.7478  2.1279
10523TIP3    H252985   2.747   0.278   2.957  1.1325  0.5075  0.5032
10524TIP3   OH252986   0.771   1.273  16.703  0.0837  0.3985 -0.2571
10524TIP3    H152987   0.680   1.283  16.675  0.2488 -0.3758 -1.1287
10524TIP3    H252988   0.797   1.360  16.733 -0.5992  0.8981 -1.0583
10525TIP3   OH252989   2.130   4.690   4.164  0.1424  0.0823 -0.0388
10525TIP3    H152990   2.172   4.737   4.236 -0.7327  0.8136  0.0215
10525TIP3    H252991   2.158   4.737   4.085 -0.4250  0.4799 -0.0098
10526TIP3   OH252992   2.451   3.693  13.713 -0.3347  0.3470  0.1476
10526TIP3    H152993   2.488   3.607  13.732 -0.8315  0.3154  1.0223
10526TIP3    H252994   2.360   3.676  13.687  0.2653  0.4079 -2.1571
10527TIP3   OH252995   3.195   4.717  17.331 -0.7817  0.0550  0.1292
10527TIP3    H152996   3.194   4.635  17.380  0.9519  0.3012  0.6390
10527TIP3    H252997   3.102   4.741  17.322 -1.2006 -0.5357  2.3666
10528TIP3   OH252998   5.674   1.968  17.011 -0.6694  0.2547 -0.4983
10528TIP3    H152999   5.736   1.995  17.078 -0.8407 -0.4781 -0.0332
10528TIP3    H253000   5.588   1.971  17.053 -0.6949 -1.0086 -0.4023
10529TIP3   OH253001   4.237   3.931   4.540 -0.0417  0.1728  0.0448
10529TIP3    H153002   4.217   3.992   4.469 -0.4842 -1.3191 -1.1743
10529TIP3    H253003   4.153   3.918   4.585 -0.4477 -1.1220 -1.0272
10530TIP3   OH253004   5.146   1.619   2.881 -0.4013 -0.0534 -0.0316
10530TIP3    H153005   5.150   1.550   2.815 -0.1088  1.0374 -1.1980
10530TIP3    H253006   5.063   1.664   2.863  0.9743  2.0629 -1.6219
10531TIP3   OH253007   6.413   1.080   1.436  0.1108  0.7715 -0.2378
10531TIP3    H153008   6.439   0.991   1.459 -0.1276  0.9418  0.7362
10531TIP3    H253009   6.368   1.113   1.514  0.4588  1.8502 -0.4719
10532TIP3   OH253010   6.074   5.322  11.542 -1.0053  0.2662 -0.5327
10532TIP3    H153011   6.019   5.245  11.554  0.4225 -0.5199  1.6115
10532TIP3    H253012   6.126   5.303  11.463 -2.3807  0.1682 -1.4403
10533TIP3   OH253013   6.746   1.654  17.218  0.2739  0.3759  0.1213
10533TIP3    H153014   6.673   1.602  17.183  1.0598 -0.4975 -0.2630
10533TIP3    H253015   6.772   1.710  17.145  0.1461  0.5147  0.1826
10534TIP3   OH253016   2.900   3.628   5.711 -0.3825  0.1733  0.6409
10534TIP3    H153017   2.906   3.539   5.676 -1.7617  0.1381  0.4381
10534TIP3    H253018   2.904   3.685   5.634  1.9250  0.4100  0.8586
10535TIP3   OH253019   2.797   3.302  14.851  0.2890  0.4565  0.2014
10535TIP3    H153020   2.725   3.349  14.892  0.5181  1.1279 -0.1360
10535TIP3    H253021   2.871   3.362  14.857  0.3528  0.5535 -1.1083
10536TIP3   OH253022   0.872   0.976   0.614  0.2151  0.1780 -0.2119
10536TIP3    H153023   0.820   0.934   0.683 -0.5061 -0.6600 -1.2214
10536TIP3    H253024   0.843   0.932   0.533  1.4040  0.7716 -0.9807
10537TIP3   OH253025   0.494   5.073   4.397 -0.0295 -0.0343  1.1044
10537TIP3    H153026   0.517   5.164   4.383 -0.3600 -0.2127 -0.8799
10537TIP3    H253027   0.577   5.025   4.390  0.3968  0.1977  3.6704
10538TIP3   OH253028   1.072   4.808  16.381 -0.0967  0.4916  0.2859
10538TIP3    H153029   1.111   4.734  16.334 -0.7790  0.5822 -0.4283
10538TIP3    H253030   1.012   4.768  16.443  1.0060  0.3576  1.3037
10539TIP3   OH253031   0.047   4.694  11.612  0.1505  1.4781  0.1312
10539TIP3    H153032   0.140   4.692  11.631  0.1476  1.0068  0.1241
10539TIP3    H253033   0.041   4.699  11.517  0.1700  1.3391  0.1221
10540TIP3   OH253034   4.547   0.858  15.119 -0.3622 -0.4589  0.3821
10540TIP3    H153035   4.619   0.855  15.182  0.0348 -1.6249 -0.0999
10540TIP3    H253036   4.551   0.774  15.074 -1.2974 -0.0649 -0.4746
10541TIP3   OH253037   0.561   0.044  14.502 -0.4349  0.2643  0.1149
10541TIP3    H153038   0.512   0.062  14.421 -0.0303  0.1254 -0.1654
10541TIP3    H253039   0.633   0.108  14.501 -1.6126  1.6897  1.4311
10542TIP3   OH253040   4.894   2.186   5.008  0.2466  0.8222  0.0342
10542TIP3    H153041   4.924   2.251   4.945 -0.4072  1.3534  0.2675
10542TIP3    H253042   4.972   2.132   5.025  0.4851  0.8074 -1.0405
10543TIP3   OH253043   3.648   4.965  17.310 -0.1432 -0.1831  0.2413
10543TIP3    H153044   3.689   5.011  17.384 -0.4853 -2.9173  2.2949
10543TIP3    H253045   3.554   4.973  17.326 -0.2117 -1.4569  0.6188
10544TIP3   OH253046   1.912   6.622  15.178  0.8198 -0.4230 -0.3976
10544TIP3    H153047   1.979   6.674  15.224  1.5790 -0.5179 -1.3529
10544TIP3    H253048   1.940   6.531  15.189 -0.7695 -0.7143  1.6794
10545TIP3   OH253049   3.292   4.932  14.975  0.1855 -0.2331 -0.5029
10545TIP3    H153050   3.232   4.911  15.047  0.2780  0.2494 -0.2833
10545TIP3    H253051   3.235   4.970  14.908  0.2775  0.4215 -0.2096
10546TIP3   OH253052   4.097   1.085  10.750 -0.2841 -0.1407  0.1854
10546TIP3    H153053   4.144   1.111  10.829 -1.7469  1.3078  0.6243
10546TIP3    H253054   4.016   1.046  10.782 -0.8834  0.4369 -0.5810
10547TIP3   OH253055   2.557   4.967  12.227 -0.5703 -0.1004  0.2589
10547TIP3    H153056   2.484   4.907  12.211 -0.3878 -1.1590  2.8277
10547TIP3    H253057   2.602   4.930  12.303  0.7940  2.2205  0.6848
10548TIP3   OH253058   4.341   6.060  16.997  0.3641  0.0829  0.0951
10548TIP3    H153059   4.286   6.097  17.066 -2.3040 -0.0994 -1.8224
10548TIP3    H253060   4.381   6.136  16.954  0.7381  0.2779  0.7691
10549TIP3   OH253061   2.457   6.162  17.184  0.1499 -0.2957 -0.3587
10549TIP3    H153062   2.429   6.073  17.164 -2.1487  0.5622 -1.2929
10549TIP3    H253063   2.420   6.180  17.271  1.7243 -0.6486  0.4205
10550TIP3   OH253064   1.070   6.260  12.682 -0.0151  0.3132 -0.2443
10550TIP3    H153065   0.985   6.279  12.642  0.4617 -1.9133 -2.6129
10550TIP3    H253066   1.060   6.283  12.774 -3.4739 -0.6279 -0.2640
10551TIP3   OH253067   1.621   3.986   1.825 -0.5784  0.6032 -1.0853
10551TIP3    H153068   1.665   4.051   1.770  1.5482  0.8305  0.7422
10551TIP3    H253069   1.693   3.942   1.871 -2.0956 -1.5483 -0.6359
10552TIP3   OH253070   3.005   0.550   2.234  0.7944  0.4148  0.3156
10552TIP3    H153071   3.037   0.564   2.323  1.2339 -2.0749  0.6299
10552TIP3    H253072   3.052   0.472   2.204  0.0652  0.7258 -1.8216
10553TIP3   OH253073   6.422   4.274  17.195 -0.7108  0.2666  0.1624
10553TIP3    H153074   6.477   4.319  17.131 -1.8168 -1.9082 -2.5682
10553TIP3    H253075   6.468   4.191  17.211 -2.2205 -0.8056 -0.7868
10554TIP3   OH253076   3.874   2.220   3.295 -0.7473 -0.4914  0.5595
10554TIP3    H153077   3.803   2.259   3.243 -0.5859  0.4790  1.0548
10554TIP3    H253078   3.954   2.254   3.256 -0.5294 -1.5848  0.0033
10555TIP3   OH253079   1.333   2.460   0.861 -0.1788  0.1942  0.0445
10555TIP3    H153080   1.305   2.546   0.830 -2.1354  0.0723  1.2896
10555TIP3    H253081   1.419   2.475   0.899 -0.7099  1.7397  0.7115
10556TIP3   OH253082   1.494   1.374   6.242 -0.4929 -0.2247  0.3618
10556TIP3    H153083   1.579   1.415   6.256  1.0118 -1.9936 -2.4499
10556TIP3    H253084   1.446   1.436   6.187  0.1760 -0.4512 -0.4982
10557TIP3   OH253085   6.363   5.663   2.752 -0.1646 -0.7039 -0.5287
10557TIP3    H153086   6.315   5.580   2.749  0.9811 -1.4713  1.1976
10557TIP3    H253087   6.349   5.696   2.840 -0.0553  0.6432 -0.9869
10558TIP3   OH253088   2.236   2.718  12.875  0.0864  0.0294 -0.4042
10558TIP3    H153089   2.330   2.719  12.858 -0.2286  0.4722 -2.3912
10558TIP3    H253090   2.227   2.684  12.964  2.0938 -0.3692 -0.3242
10559TIP3   OH253091   3.101   6.624   4.497 -0.2325 -0.1663 -0.1377
10559TIP3    H153092   3.081   6.716   4.478 -0.1084 -0.3571 -1.2771
10559TIP3    H253093   3.019   6.578   4.478 -0.7100 -0.1569  1.7104
10560TIP3   OH253094   1.490   4.692  17.076  0.0522 -0.2643 -0.2718
10560TIP3    H153095   1.502   4.783  17.047 -0.8552 -0.1263 -0.2475
10560TIP3    H253096   1.524   4.639  17.005  1.0914  0.0874 -0.0628
10561TIP3   OH253097   1.513   6.189  12.632  0.0507  0.1942  0.1691
10561TIP3    H153098   1.545   6.188  12.723  0.5065 -2.2945  0.0389
10561TIP3    H253099   1.584   6.230  12.582  1.4789 -1.7631  0.4566
10562TIP3   OH253100   1.328   5.235  15.151  0.3788  0.7979 -0.2634
10562TIP3    H153101   1.391   5.205  15.086 -0.7599 -0.6587 -0.7324
10562TIP3    H253102   1.375   5.227  15.234  0.4953 -1.3647 -0.4762
10563TIP3   OH253103   5.368   6.718   3.791 -0.1146 -0.3387  0.1761
10563TIP3    H153104   5.417   6.746   3.868 -0.5516  0.3589  0.2038
10563TIP3    H253105   5.380   6.789   3.727 -0.7478 -0.3520  0.0359
10564TIP3   OH253106   1.072   3.725  12.666  0.7858 -0.6397 -0.0305
10564TIP3    H153107   1.063   3.685  12.752 -0.1280  1.2946  0.8389
10564TIP3    H253108   0.982   3.747  12.641  1.2590  1.1834 -0.2683
10565TIP3   OH253109   0.532   1.130  10.767 -0.5352 -0.1108 -0.4582
10565TIP3    H153110   0.443   1.109  10.797 -0.2128  0.4506  0.9794
10565TIP3    H253111   0.552   1.062  10.703 -1.7244 -0.6813 -0.2537
10566TIP3   OH253112   0.878   2.707  12.094 -0.3326  0.3383 -0.0276
10566TIP3    H153113   0.918   2.706  12.007 -0.0883 -1.4526  0.0646
10566TIP3    H253114   0.815   2.779  12.091  1.1655  1.6887 -0.9643
10567TIP3   OH253115   5.332   0.039   3.473  0.2085 -0.5402 -0.4327
10567TIP3    H153116   5.410   0.028   3.418 -1.3517 -1.3460 -2.6497
10567TIP3    H253117   5.276  -0.035   3.450 -1.4757  0.3541  0.5941
10568TIP3   OH253118   6.126   0.086   5.469 -0.0457  0.7240  0.1705
10568TIP3    H153119   6.131   0.007   5.523 -1.5080  0.4378 -0.0746
10568TIP3    H253120   6.141   0.056   5.380  1.5211  1.0752  0.2719
10569TIP3   OH253121   0.585   5.755   4.881  0.1231 -0.3912  0.3875
10569TIP3    H153122   0.613   5.783   4.969 -0.2138  0.0517  0.3580
10569TIP3    H253123   0.491   5.771   4.880  0.3235  0.9316 -0.5239
10570TIP3   OH253124   4.067   6.491   4.519 -0.1278 -0.1607  0.3006
10570TIP3    H153125   4.066   6.450   4.606 -0.6583  1.3424  1.0442
10570TIP3    H253126   4.018   6.430   4.464  1.2816 -1.7572  0.7183
10571TIP3   OH253127   0.638   1.588  17.234  0.4500  0.3046  0.4578
10571TIP3    H153128   0.733   1.580  17.241  0.5837 -0.6705 -1.6340
10571TIP3    H253129   0.604   1.513  17.283  0.8960 -0.6915 -0.6985
10572TIP3   OH253130   5.445   2.551  15.509  0.5900 -0.0798  0.4648
10572TIP3    H153131   5.404   2.635  15.531  0.2240 -0.1053 -0.0878
10572TIP3    H253132   5.468   2.513  15.593 -0.8340 -0.2049  0.8274
10573TIP3   OH253133   2.628   2.819   5.194 -0.6984 -0.0473  0.2719
10573TIP3    H153134   2.722   2.803   5.204 -0.4327  2.5684  4.1751
10573TIP3    H253135   2.588   2.732   5.193  1.6395 -1.2382 -1.7636
10574TIP3   OH253136   4.531   6.299  15.138  0.3217 -0.4574  0.5293
10574TIP3    H153137   4.604   6.358  15.158 -0.2101  0.1166  0.8034
10574TIP3    H253138   4.502   6.268  15.223 -1.5024  1.4529  0.6779
10575TIP3   OH253139   4.360   2.132   2.002  0.6607 -0.0085 -0.5927
10575TIP3    H153140   4.372   2.227   2.003  0.5554  0.0479  2.5083
10575TIP3    H253141   4.432   2.099   1.948  0.1973  1.8255 -2.4576
10576TIP3   OH253142   3.818   3.566   6.488  0.2429 -0.6173 -0.0432
10576TIP3    H153143   3.724   3.586   6.484  0.1891 -0.6074  0.9436
10576TIP3    H253144   3.838   3.529   6.402 -0.9665 -1.9217  0.1995
10577TIP3   OH253145   6.373   1.284  12.105  0.1991  0.1319  0.1363
10577TIP3    H153146   6.324   1.286  12.023  0.7092 -0.3891 -0.1927
10577TIP3    H253147   6.351   1.200  12.145  1.3941 -0.4657 -0.3942
10578TIP3   OH253148   3.121   4.099   1.812 -0.1796 -0.1678 -0.0592
10578TIP3    H153149   3.101   4.006   1.827 -0.2849 -0.1390 -0.0186
10578TIP3    H253150   3.046   4.132   1.763 -1.4883  0.5380  2.2725
10579TIP3   OH253151   6.260   4.510   2.182  0.0038 -0.5156  0.2545
10579TIP3    H153152   6.185   4.465   2.219 -0.4235  0.1491  0.2023
10579TIP3    H253153   6.224   4.590   2.144  0.6803 -0.3736 -0.1022
10580TIP3   OH253154   1.604   5.072  16.295  0.6656 -0.2858 -0.5499
10580TIP3    H153155   1.689   5.096  16.333  0.1137  2.8428 -0.9747
10580TIP3    H253156   1.543   5.075  16.368  0.7163 -1.2719 -0.4667
10581TIP3   OH253157   6.172   3.412   1.332 -0.3791  0.3658  0.4104
10581TIP3    H153158   6.139   3.400   1.421  1.7500 -0.7349  1.1247
10581TIP3    H253159   6.174   3.507   1.319 -0.7671  0.5312  1.4980
10582TIP3   OH253160   4.947   2.637   5.189 -0.1976 -0.4289 -0.0332
10582TIP3    H153161   4.951   2.679   5.103 -0.5759  0.4381  0.3592
10582TIP3    H253162   4.907   2.703   5.246  1.8731 -0.2024  1.2725
10583TIP3   OH253163   5.971   2.303   2.503  0.4629  0.1892 -0.2731
10583TIP3    H153164   6.048   2.247   2.494  0.6755 -0.0595  2.2328
10583TIP3    H253165   5.920   2.262   2.573 -0.7103  1.6719 -0.2018
10584TIP3   OH253166   0.111   2.528  13.293 -0.3699  0.5254 -0.3655
10584TIP3    H153167   0.159   2.509  13.213  1.3774 -0.5870  0.8670
10584TIP3    H253168   0.168   2.497  13.364 -1.9673  1.1688  1.3092
10585TIP3   OH253169   4.197   5.124  17.002  0.5537 -0.3910  0.5253
10585TIP3    H153170   4.272   5.074  16.972  0.9598  0.5259 -0.0367
10585TIP3    H253171   4.170   5.176  16.926  0.5618  0.7243  1.2494
10586TIP3   OH253172   0.442   6.066  12.720  0.1420 -0.2014  0.2300
10586TIP3    H153173   0.347   6.061  12.729  0.2146 -1.3375  0.4515
10586TIP3    H253174   0.461   6.018  12.639  0.4440  0.9878 -0.4333
10587TIP3   OH253175   5.701   6.274  12.851  0.4726  0.2831 -0.1637
10587TIP3    H153176   5.790   6.309  12.857  0.8571 -0.3748 -1.6015
10587TIP3    H253177   5.692   6.247  12.760 -1.1167  0.0873  0.0290
10588TIP3   OH253178   2.604   4.379  12.111 -0.7617 -0.1943  0.0158
10588TIP3    H153179   2.584   4.286  12.110 -0.1662 -0.3271 -0.0516
10588TIP3    H253180   2.691   4.385  12.151 -0.3597  0.2367 -0.8741
10589TIP3   OH253181   6.252   5.810  14.261 -0.0580 -0.1842 -0.2136
10589TIP3    H153182   6.246   5.875  14.190 -1.2168 -0.1863 -0.1458
10589TIP3    H253183   6.333   5.762  14.243 -0.0698  0.1518 -1.2460
10590TIP3   OH253184   5.461   3.583   1.141 -0.2732 -0.3759 -0.1891
10590TIP3    H153185   5.485   3.670   1.172 -0.7542 -0.1172 -0.5250
10590TIP3    H253186   5.374   3.567   1.179 -0.5192 -0.3847 -0.7505
10591TIP3   OH253187   6.572   4.397  12.410  0.0997 -0.1141 -0.1403
10591TIP3    H153188   6.507   4.466  12.418  1.6895  1.2513  2.6644
10591TIP3    H253189   6.522   4.315  12.415 -1.6127  0.8105 -1.2559
10592TIP3   OH253190   5.838   4.659  15.308  0.5071 -0.4414 -0.4215
10592TIP3    H153191   5.878   4.746  15.310 -1.3392  0.4426  0.1824
10592TIP3    H253192   5.887   4.609  15.373  0.0438  0.9196  1.0647
10593TIP3   OH253193   2.166   1.700   1.718 -0.2461 -0.0042 -0.2392
10593TIP3    H153194   2.101   1.706   1.648  0.3357  1.0728 -0.7150
10593TIP3    H253195   2.241   1.750   1.685  0.4007 -0.2873  0.7596
10594TIP3   OH253196   0.203   3.929   1.805 -0.3416 -1.2035  0.0332
10594TIP3    H153197   0.205   3.956   1.713 -0.4652  0.3607  0.4643
10594TIP3    H253198   0.218   4.009   1.854 -2.1953 -1.6354  1.4463
10595TIP3   OH253199   1.097   3.846   5.697 -0.1623 -0.2980 -0.3889
10595TIP3    H153200   1.109   3.864   5.791  0.9630  0.3494 -0.6403
10595TIP3    H253201   1.118   3.753   5.688  1.2759 -0.0028 -0.2312
10596TIP3   OH253202   6.106   2.144  11.574  0.1981 -0.3112  0.1376
10596TIP3    H153203   6.018   2.126  11.541 -0.0421 -0.4580  0.8294
10596TIP3    H253204   6.164   2.111  11.506 -0.2743 -1.3389  0.2063
10597TIP3   OH253205   0.475   3.526  14.962 -0.1660 -0.0423 -0.2628
10597TIP3    H153206   0.384   3.536  14.991  0.3628  1.4084  1.0403
10597TIP3    H253207   0.494   3.606  14.913  1.2560  1.1424  2.0476
10598TIP3   OH253208   1.901   4.037  13.332  0.2811  0.5272  0.2581
10598TIP3    H153209   1.822   4.003  13.291  1.1594 -2.6475  0.8934
10598TIP3    H253210   1.870   4.094  13.402 -1.3475  1.1511 -0.9139
10599TIP3   OH253211   6.453   4.285  11.120  0.2127 -0.4011  0.2445
10599TIP3    H153212   6.511   4.362  11.121  0.8355 -0.8544  1.3059
10599TIP3    H253213   6.382   4.309  11.061  0.9893  0.5519 -0.3385
10600TIP3   OH253214   2.862   3.170   4.043 -0.3377 -0.1428  0.5571
10600TIP3    H153215   2.770   3.194   4.038 -0.2912 -0.1696 -1.2799
10600TIP3    H253216   2.903   3.242   4.090 -1.4010 -0.5717  2.2221
10601TIP3   OH253217   6.408   4.662  12.810  0.4232 -0.0634  0.0975
10601TIP3    H153218   6.405   4.636  12.902  0.6781 -1.3512 -0.2393
10601TIP3    H253219   6.316   4.668  12.783  0.3343 -2.2666 -0.2361
10602TIP3   OH253220   0.873   6.452   5.847 -0.4042 -0.1562  0.4574
10602TIP3    H153221   0.946   6.511   5.825  0.3601 -1.0936  0.4002
10602TIP3    H253222   0.901   6.409   5.928  0.6082 -2.8344 -1.1492
10603TIP3   OH253223   0.013   1.566   2.051 -0.0620 -0.0673  0.1425
10603TIP3    H153224  -0.050   1.609   2.109 -0.1084  0.9296 -0.6112
10603TIP3    H253225  -0.016   1.589   1.963  0.6067 -0.6904 -0.2557
10604TIP3   OH253226   5.707   3.127  17.299 -0.1973 -0.6038 -0.6562
10604TIP3    H153227   5.717   3.040  17.259  3.1361 -0.4322 -0.4417
10604TIP3    H253228   5.667   3.110  17.384  0.4272 -1.9396 -0.6090
10605TIP3   OH253229   5.560   0.350  13.921 -0.3199  0.0667  0.0494
10605TIP3    H153230   5.581   0.309  13.837  0.2750 -0.4300  0.4307
10605TIP3    H253231   5.517   0.432  13.898 -0.6102 -0.2958 -0.7358
10606TIP3   OH253232   3.205   6.560   4.757  0.3482 -0.2125 -0.6307
10606TIP3    H153233   3.158   6.581   4.676 -0.9341  0.1352  0.1649
10606TIP3    H253234   3.257   6.638   4.776  0.9494 -0.4403 -1.3046
10607TIP3   OH253235   6.426   1.832   0.977  0.5534 -0.4268 -0.2396
10607TIP3    H153236   6.349   1.848   1.033 -0.9946 -3.1999 -1.4207
10607TIP3    H253237   6.427   1.907   0.917 -0.5779  0.1922  0.4606
10608TIP3   OH253238   2.168   3.413  14.760  0.1661  0.1799 -0.1891
10608TIP3    H153239   2.079   3.442  14.746 -0.1341  0.6681  2.2907
10608TIP3    H253240   2.164   3.361  14.841  1.9725 -0.5153 -0.4935
10609TIP3   OH253241   2.051   1.010   5.930 -0.0549  0.6463 -0.0039
10609TIP3    H153242   2.106   1.057   5.993 -0.2265  0.5919  0.1850
10609TIP3    H253243   2.000   0.949   5.983 -1.2229  1.5714 -0.0279
10610TIP3   OH253244   5.542   5.301   4.312 -0.1618 -1.2834 -0.2025
10610TIP3    H153245   5.615   5.310   4.250  0.4709 -0.8872  0.5854
10610TIP3    H253246   5.570   5.232   4.372 -0.6023 -1.3812 -0.1053
10611TIP3   OH253247   6.266   3.107  15.887 -0.1872 -0.3735  0.1049
10611TIP3    H153248   6.193   3.167  15.905 -0.0391  0.3610 -1.5746
10611TIP3    H253249   6.275   3.056  15.968 -0.6170  1.5350  1.4297
10612TIP3   OH253250   5.774   2.044  14.944 -0.2110 -0.0763  0.6920
10612TIP3    H153251   5.827   1.977  14.988 -0.8452 -1.9163 -1.1666
10612TIP3    H253252   5.823   2.125  14.956  1.6328 -1.2211  1.3221
10613TIP3   OH253253   3.384   2.344  14.181  0.0112  0.5473  0.2324
10613TIP3    H153254   3.479   2.350  14.187  0.3221 -3.0994  0.7422
10613TIP3    H253255   3.363   2.389  14.100  2.6432 -1.6177 -1.8398
10614TIP3   OH253256   3.462   3.186   1.200 -0.1385  0.6565  0.1219
10614TIP3    H153257   3.501   3.222   1.121  0.9279 -1.0438 -0.1855
10614TIP3    H253258   3.537   3.167   1.257 -0.7383  0.1064  0.7502
10615TIP3   OH253259   1.053   2.706  14.248  0.4543 -0.6721  0.1706
10615TIP3    H153260   1.090   2.787  14.284 -1.2702 -0.9736  2.8720
10615TIP3    H253261   0.992   2.736  14.181 -0.4226  0.3310  1.3749
10616TIP3   OH253262   4.290   1.787  14.344 -0.0798  0.2986 -0.3533
10616TIP3    H153263   4.346   1.722  14.300 -0.8302 -0.2323 -0.5459
10616TIP3    H253264   4.214   1.737  14.372 -0.2920  0.9420  0.2360
10617TIP3   OH253265   1.406   2.916   4.584 -0.0914  0.2853 -0.0161
10617TIP3    H153266   1.471   2.955   4.526  0.6216 -1.7619 -0.6992
10617TIP3    H253267   1.332   2.896   4.527  0.1005 -0.5638  0.0141
10618TIP3   OH253268   4.622   2.818  12.805 -0.5281 -0.3421 -0.3800
10618TIP3    H153269   4.606   2.858  12.720  0.1690  1.1880  0.1729
10618TIP3    H253270   4.686   2.875  12.847  0.5899 -2.1027  0.4404
10619TIP3   OH253271   1.214   2.164  16.571  0.2456  0.2219 -0.2538
10619TIP3    H153272   1.250   2.078  16.551 -0.8138 -0.3063  0.0310
10619TIP3    H253273   1.161   2.186  16.495 -1.5715 -0.5629  0.7180
10620TIP3   OH253274   6.027   0.032  13.592 -0.3863  0.1084 -0.1268
10620TIP3    H153275   6.036   0.007  13.685 -0.0015 -0.9474 -0.4256
10620TIP3    H253276   6.049  -0.048  13.544 -0.0402  0.7939 -1.1449
10621TIP3   OH253277   0.573   0.195  11.619  0.1993 -0.2470 -0.3731
10621TIP3    H153278   0.654   0.186  11.571 -0.0976 -1.7283 -0.6295
10621TIP3    H253279   0.505   0.164  11.559 -0.3459 -0.7039  0.4501
10622TIP3   OH253280   1.061   4.954   5.973  0.0918  0.1336 -0.1862
10622TIP3    H153281   1.042   4.972   6.066 -2.4495 -0.0536 -0.5985
10622TIP3    H253282   1.080   5.041   5.936 -0.5553  0.4426  0.1824
10623TIP3   OH253283   2.174   1.766  15.482  0.4764  0.6083 -0.1491
10623TIP3    H153284   2.204   1.679  15.510 -1.3425  0.8428  3.0210
10623TIP3    H253285   2.237   1.827  15.522 -0.3258  0.8249  0.8431
10624TIP3   OH253286   3.473   5.059   1.062  0.0931 -0.2481  0.3494
10624TIP3    H153287   3.384   5.034   1.039 -0.9479  2.6898  0.7534
10624TIP3    H253288   3.482   5.037   1.155  0.3868 -1.9562 -0.0544
10625TIP3   OH253289   4.051   5.333   3.527 -0.2638  0.0922  0.1765
10625TIP3    H153290   4.076   5.419   3.493  2.2201 -1.3673 -2.1126
10625TIP3    H253291   4.102   5.323   3.608  0.1840  0.4096 -0.0640
10626TIP3   OH253292   1.919   3.099   0.469  0.3501 -0.2017  0.0764
10626TIP3    H153293   1.963   3.079   0.551  0.0947 -0.6561  0.1077
10626TIP3    H253294   1.826   3.089   0.488  0.2555  0.3074 -0.1062
10627TIP3   OH253295   0.366   2.227   3.278 -0.5582  0.2751  0.0979
10627TIP3    H153296   0.346   2.272   3.360  1.3574 -1.9698  1.9679
10627TIP3    H253297   0.450   2.263   3.251 -0.4086 -0.1138  0.0361
10628TIP3   OH253298   2.020   4.458  10.964 -0.1297  0.1354  0.3265
10628TIP3    H153299   2.091   4.520  10.980 -1.1468  1.2992  0.4449
10628TIP3    H253300   2.064   4.381  10.929  1.1176  1.1122 -0.3475
10629TIP3   OH253301   3.881   3.427   0.075  0.0295 -0.2066  0.0982
10629TIP3    H153302   3.800   3.444   0.027  1.1030 -1.0788 -2.1499
10629TIP3    H253303   3.934   3.505   0.060 -0.3276  0.3357  1.5155
10630TIP3   OH253304   3.870   2.513  16.692 -0.1787 -0.2173 -0.5621
10630TIP3    H153305   3.873   2.608  16.704 -1.3588 -0.3619  1.3197
10630TIP3    H253306   3.951   2.482  16.733 -0.0572 -0.0628 -0.6831
10631TIP3   OH253307   6.053   3.787   5.715  0.8353  0.2005 -0.2074
10631TIP3    H153308   5.982   3.775   5.653  0.9950  0.6417 -0.4756
10631TIP3    H253309   6.040   3.717   5.780 -0.7499  1.2141  0.6326
10632TIP3   OH253310   5.090   5.221   3.832 -0.3379  0.1795  0.2580
10632TIP3    H153311   5.046   5.162   3.771  0.4379  0.0424 -0.1777
10632TIP3    H253312   5.167   5.252   3.784 -1.7246  3.1160 -0.3372
10633TIP3   OH253313   2.252   6.234  15.121 -0.1731 -0.2224  0.7490
10633TIP3    H153314   2.259   6.141  15.099  0.1132 -0.2925  1.1312
10633TIP3    H253315   2.341   6.261  15.143 -0.0468  0.4253 -0.4370
10634TIP3   OH253316   4.955   0.375  15.711  0.2702  0.6765 -0.5499
10634TIP3    H153317   4.928   0.284  15.708 -1.0764  0.8948  1.9064
10634TIP3    H253318   4.875   0.425  15.695  0.6187  1.4067 -0.1066
10635TIP3   OH253319   0.772   2.118   4.736 -0.2028  0.2280 -0.4261
10635TIP3    H153320   0.681   2.098   4.714 -0.8527  1.6500  0.8142
10635TIP3    H253321   0.794   2.055   4.805 -0.0283 -0.5061 -1.1361
10636TIP3   OH253322   0.514   5.878   0.666  0.5270 -0.3900  0.0529
10636TIP3    H153323   0.425   5.894   0.697  0.5238 -0.9458  0.3406
10636TIP3    H253324   0.507   5.882   0.570  0.1318 -0.7137  0.0652
10637TIP3   OH253325   6.140   4.072   2.508 -0.7386 -0.3919 -0.1943
10637TIP3    H153326   6.222   4.094   2.463 -0.3254 -1.1046  0.1791
10637TIP3    H253327   6.151   4.107   2.596 -1.5261  0.9558 -0.6040
10638TIP3   OH253328   1.039   0.987  13.526 -0.3390  0.4212  0.0274
10638TIP3    H153329   1.007   0.900  13.502  0.7992 -0.2245  0.7683
10638TIP3    H253330   1.110   1.005  13.464  1.1303 -0.3064  1.4284
10639TIP3   OH253331   2.979   0.084  13.212 -0.1451 -0.1843  0.0668
10639TIP3    H153332   2.898   0.054  13.253 -0.0097 -1.5230 -0.5836
10639TIP3    H253333   2.991   0.173  13.245 -1.0208 -0.5400  1.4340
10640TIP3   OH253334   4.148   1.927   3.697 -0.2613 -0.5497 -0.3627
10640TIP3    H153335   4.144   1.930   3.793 -2.1364 -0.9682 -0.3895
10640TIP3    H253336   4.232   1.885   3.678  0.0662 -0.6179  1.0795
10641TIP3   OH253337   3.160   5.494   0.353 -0.0996 -0.1736  0.0759
10641TIP3    H153338   3.194   5.461   0.436  0.2604  0.0750  0.0296
10641TIP3    H253339   3.200   5.437   0.287 -0.3259 -0.3240  0.0713
10642TIP3   OH253340   3.432   4.727  14.000  0.7720 -0.4548 -0.4127
10642TIP3    H153341   3.429   4.717  14.095 -0.6112 -1.5868 -0.5395
10642TIP3    H253342   3.490   4.657  13.970 -1.6118 -2.5183 -0.5998
10643TIP3   OH253343   2.270   1.051   6.186 -0.2009 -0.1579  0.2048
10643TIP3    H153344   2.294   1.039   6.278 -1.6872 -1.5085  0.4660
10643TIP3    H253345   2.199   1.115   6.188  0.3510  0.4753 -0.1086
10644TIP3   OH253346   3.562   2.489  14.830 -0.1866  0.5329  0.2270
10644TIP3    H153347   3.471   2.474  14.802 -0.0878 -0.3336  0.3519
10644TIP3    H253348   3.606   2.405  14.816  1.3153  1.6409 -2.4634
10645TIP3   OH253349   1.045   2.914   5.351 -0.2723 -0.3668 -0.7527
10645TIP3    H153350   1.038   2.891   5.258  0.5205  0.0291 -0.9191
10645TIP3    H253351   1.132   2.882   5.377  0.2918  1.1526 -0.6391
10646TIP3   OH253352   4.630   0.584   5.459  0.0884 -0.2342 -0.1783
10646TIP3    H153353   4.710   0.605   5.507  0.2149 -0.2880 -0.3593
10646TIP3    H253354   4.649   0.610   5.369  0.0262 -0.5599 -0.2884
10647TIP3   OH253355   0.682   1.361  13.361 -0.6042 -0.6196 -0.7683
10647TIP3    H153356   0.770   1.380  13.330 -0.3781 -0.6613 -0.1586
10647TIP3    H253357   0.627   1.427  13.319  0.1279  1.2741  1.0813
10648TIP3   OH253358   3.067   2.668   6.493 -0.0998 -0.0095  0.3226
10648TIP3    H153359   3.015   2.709   6.424  0.0207 -0.9327 -0.3380
10648TIP3    H253360   3.114   2.597   6.449 -1.7545 -2.1421  1.7546
10649TIP3   OH253361   5.945   3.472   6.431  0.3757  0.8551  0.1429
10649TIP3    H153362   5.868   3.414   6.434 -0.5250  1.8773 -1.7045
10649TIP3    H253363   5.932   3.532   6.504  0.5595 -0.3123  1.1661
10650TIP3   OH253364   2.993   0.674  15.798  0.2397 -0.2278  0.4428
10650TIP3    H153365   2.935   0.725  15.854 -1.1330 -0.3377 -0.8235
10650TIP3    H253366   3.001   0.726  15.718  0.5844 -0.9639 -0.0099
10651TIP3   OH253367   1.166   2.951  15.153  0.4244 -0.3379  0.1322
10651TIP3    H153368   1.104   3.022  15.135  1.6308  1.0753  1.3039
10651TIP3    H253369   1.233   2.960  15.086  0.0697 -1.0589 -0.3425
10652TIP3   OH253370   3.612   4.191  16.812 -0.2528 -0.1644 -0.0626
10652TIP3    H153371   3.655   4.276  16.805  0.4541 -0.4889  0.1845
10652TIP3    H253372   3.579   4.188  16.902  1.7903 -1.0664  0.7361
10653TIP3   OH253373   0.970   1.325  13.478  0.1071 -0.1160  0.7051
10653TIP3    H153374   1.049   1.276  13.501  0.6879  0.7128  0.5051
10653TIP3    H253375   0.976   1.406  13.528 -0.1491  0.3615 -0.0127
10654TIP3   OH253376   0.073   3.113  11.613  0.1775  0.1103  0.1333
10654TIP3    H153377  -0.006   3.064  11.636 -0.0419  0.8023  0.9029
10654TIP3    H253378   0.145   3.059  11.644  0.1381 -1.4050 -2.1738
10655TIP3   OH253379   1.654   2.955   0.472 -0.6484  0.5684 -0.0541
10655TIP3    H153380   1.637   2.867   0.437 -0.9930  0.7288 -0.2969
10655TIP3    H253381   1.595   3.012   0.422 -0.0235  1.0158 -0.2944
10656TIP3   OH253382   4.323   3.920   4.950  0.1374  0.4668 -0.6682
10656TIP3    H153383   4.355   3.833   4.927 -1.3303  0.0780 -1.3473
10656TIP3    H253384   4.288   3.910   5.039 -0.5740  0.1991 -0.9720
10657TIP3   OH253385   5.203   6.625  16.150 -0.2477  0.1251  0.1127
10657TIP3    H153386   5.270   6.560  16.172  1.6687  1.1939 -2.0869
10657TIP3    H253387   5.222   6.648  16.059 -2.9642  1.3287 -0.2338
10658TIP3   OH253388   6.248   1.128  13.482  0.2495 -0.4584  0.0256
10658TIP3    H153389   6.325   1.086  13.521 -1.3414 -1.5033  2.2657
10658TIP3    H253390   6.228   1.074  13.406  1.4205 -0.4489 -0.3169
10659TIP3   OH253391   4.905   4.756  13.961 -0.0076 -0.2243  0.5640
10659TIP3    H153392   4.991   4.756  14.002 -0.3953  1.8307  1.5371
10659TIP3    H253393   4.862   4.677  13.993  1.6705 -1.5549 -0.3660
10660TIP3   OH253394   5.500   4.062  16.077  0.4246  0.2386 -0.3084
10660TIP3    H153395   5.471   4.153  16.082  0.8602  0.3043  3.3534
10660TIP3    H253396   5.513   4.035  16.168  0.0252 -3.6177 -1.2124
10661TIP3   OH253397   2.404   4.938  14.192  0.8062 -0.1608 -0.1572
10661TIP3    H153398   2.444   5.024  14.185  1.2453 -0.5017 -2.5557
10661TIP3    H253399   2.361   4.924  14.108 -2.2660 -0.8927  1.3490
10662TIP3   OH253400   2.283   0.524  13.894  0.3832  0.2856 -0.2110
10662TIP3    H153401   2.227   0.538  13.971  0.6953  1.1566 -0.1325
10662TIP3    H253402   2.305   0.431  13.897  0.4597  0.3272  0.8077
10663TIP3   OH253403   2.486   5.628  12.396 -0.3321  0.4466 -0.2203
10663TIP3    H153404   2.501   5.535  12.415  0.0344 -0.0828 -2.8039
10663TIP3    H253405   2.415   5.653  12.455 -0.2384 -1.3822  0.7351
10664TIP3   OH253406   6.414   3.546   0.311  0.5683  0.3857  0.8735
10664TIP3    H153407   6.383   3.469   0.359 -1.0287  0.3413 -0.1595
10664TIP3    H253408   6.374   3.620   0.358  1.1506  0.5126  1.1708
10665TIP3   OH253409   2.982   1.050   1.689 -0.0810 -0.0621 -0.1513
10665TIP3    H153410   3.000   1.062   1.783  1.3117 -1.5079 -0.1854
10665TIP3    H253411   2.997   1.136   1.651 -0.4702  0.5031  0.9241
10666TIP3   OH253412   2.428   5.563  15.882  0.2970  0.1536 -0.2751
10666TIP3    H153413   2.488   5.611  15.940  1.0589 -1.4750  0.3781
10666TIP3    H253414   2.367   5.629  15.851  0.7117  1.3658  1.3024
10667TIP3   OH253415   2.379   2.194  15.468  0.5622  0.0951 -0.0114
10667TIP3    H153416   2.315   2.215  15.399 -0.9474 -1.2033  0.9138
10667TIP3    H253417   2.405   2.279  15.503 -0.7585  0.6661 -0.3550
10668TIP3   OH253418   5.545   2.985   4.742 -0.7894  0.4952  0.3793
10668TIP3    H153419   5.476   2.936   4.697 -0.5287  0.0104  0.4969
10668TIP3    H253420   5.595   3.027   4.672  1.1402 -2.2462 -0.0319
10669TIP3   OH253421   2.391   5.417  16.421 -0.3590  0.4529 -0.1875
10669TIP3    H153422   2.386   5.460  16.336  1.1875 -1.6449 -1.4347
10669TIP3    H253423   2.480   5.384  16.426 -0.7885 -0.5819  1.7015
10670TIP3   OH253424   4.992   2.877   4.161 -0.0822 -0.0953  0.2972
10670TIP3    H153425   4.965   2.893   4.251 -1.2456  1.6324 -0.3034
10670TIP3    H253426   5.081   2.842   4.168  0.6963  2.0120  2.0609
10671TIP3   OH253427   3.223   6.451   2.957  0.4230 -0.3922  1.0000
10671TIP3    H153428   3.258   6.364   2.935 -0.5350 -1.4763  3.3897
10671TIP3    H253429   3.230   6.456   3.052 -1.6116  1.2265  1.1294
10672TIP3   OH253430   5.824   2.922  11.732  0.1818  0.3477 -0.0817
10672TIP3    H153431   5.737   2.919  11.691  0.5344 -0.6806 -0.7732
10672TIP3    H253432   5.845   3.016  11.735 -0.8168  0.5875 -0.1849
10673TIP3   OH253433   4.752   6.605   5.229  0.4460 -0.0878 -0.1514
10673TIP3    H153434   4.662   6.637   5.229  0.5917  0.3727 -0.8848
10673TIP3    H253435   4.797   6.660   5.293 -0.1452 -1.4757  1.5407
10674TIP3   OH253436   5.777   0.370   3.379 -0.6811  0.0601  0.3858
10674TIP3    H153437   5.813   0.382   3.290 -0.5714  0.5741  0.4950
10674TIP3    H253438   5.849   0.332   3.429 -1.0710 -1.2232  0.0042
10675TIP3   OH253439   5.336   4.206  12.353 -0.4983 -0.7838 -0.3694
10675TIP3    H153440   5.373   4.251  12.430 -1.3216 -0.5887 -0.0811
10675TIP3    H253441   5.389   4.126  12.345  1.4599  0.5209 -1.3150
10676TIP3   OH253442   5.848   3.928  15.773  0.3112  0.1117 -0.6756
10676TIP3    H153443   5.810   3.897  15.690 -0.6883 -0.8943  0.1261
10676TIP3    H253444   5.902   3.856  15.803  1.5027  0.8678 -0.9263
10677TIP3   OH253445   4.945   4.963  13.769 -0.7753  0.4127 -0.8435
10677TIP3    H153446   4.941   4.892  13.833 -0.2028  0.6813 -0.4964
10677TIP3    H253447   5.031   4.954  13.728  0.0882  1.9893  0.5089
10678TIP3   OH253448   0.081   0.496   5.562 -0.1571 -0.0416  0.0916
10678TIP3    H153449   0.079   0.415   5.511  0.8292 -0.5044  0.7681
10678TIP3    H253450   0.155   0.485   5.622 -0.4537  1.0643  0.6817
10679TIP3   OH253451   3.088   5.256  13.247  0.1379  0.1224 -0.0812
10679TIP3    H153452   3.177   5.289  13.259  0.1324 -0.4201  1.8080
10679TIP3    H253453   3.041   5.285  13.325 -1.5983  1.1223 -1.4355
10680TIP3   OH253454   4.585   4.298   0.043  0.0672  0.2935 -0.7029
10680TIP3    H153455   4.569   4.371   0.103 -0.5142  0.4037 -0.9828
10680TIP3    H253456   4.510   4.300  -0.017 -1.4251 -2.1833  0.9055
10681TIP3   OH253457   5.584   0.589   3.200 -0.2360 -0.1575 -0.1200
10681TIP3    H153458   5.573   0.571   3.107  2.0861  1.5322 -0.7923
10681TIP3    H253459   5.678   0.577   3.216 -0.3319  1.0538  1.6376
10682TIP3   OH253460   3.434   0.777  13.121  0.4407  0.5831  0.3449
10682TIP3    H153461   3.471   0.780  13.033  0.8034 -0.3062  0.4591
10682TIP3    H253462   3.507   0.805  13.178 -0.0199  1.9211  0.3142
10683TIP3   OH253463   4.769   4.426  12.356  0.1027 -0.2369  0.3139
10683TIP3    H153464   4.791   4.407  12.447  2.1808  0.2688 -0.0351
10683TIP3    H253465   4.706   4.498  12.362 -0.7044 -0.9953  1.3549
10684TIP3   OH253466   2.805   1.361  14.853 -0.0975  0.1923 -0.0932
10684TIP3    H153467   2.765   1.421  14.790 -1.2861  0.2781  0.6931
10684TIP3    H253468   2.736   1.296  14.870  0.3379 -0.0460  0.8136
10685TIP3   OH253469   5.979   2.863  15.089  0.4726  0.6597 -0.6433
10685TIP3    H153470   6.037   2.911  15.030 -1.9580  2.9573 -1.4085
10685TIP3    H253471   5.901   2.846  15.036 -0.2117 -0.8717  0.7647
10686TIP3   OH253472   1.407   2.493  13.759  0.6147 -0.4957 -0.5283
10686TIP3    H153473   1.482   2.550  13.742  0.5502 -0.1652  0.2747
10686TIP3    H253474   1.412   2.474  13.852 -0.3286 -0.4433 -0.4594
10687TIP3   OH253475   0.980   0.225   0.156 -0.3206  0.1480 -0.3471
10687TIP3    H153476   0.955   0.293   0.219 -1.1599  1.7922 -2.3394
10687TIP3    H253477   1.071   0.243   0.136  0.3157 -1.1067  1.1840
10688TIP3   OH253478   0.569   0.664   3.800 -0.8272  0.0781  0.6661
10688TIP3    H153479   0.619   0.731   3.846 -0.4832 -0.0105  0.4225
10688TIP3    H253480   0.633   0.596   3.779 -0.7195  0.6278 -0.9414
10689TIP3   OH253481   4.784   5.340   0.874 -0.4684 -0.1747  0.0108
10689TIP3    H153482   4.734   5.396   0.816 -0.6086 -0.8383 -0.5298
10689TIP3    H253483   4.789   5.256   0.828  0.8817 -0.2167  0.1763
10690TIP3   OH253484   2.721   4.730   1.313  0.0606 -0.3948  0.3275
10690TIP3    H153485   2.721   4.749   1.407 -1.0437  0.3784  0.1914
10690TIP3    H253486   2.712   4.816   1.271  1.7136 -0.6039 -0.5474
10691TIP3   OH253487   0.878   3.897  12.871  0.0675 -0.4084 -0.1528
10691TIP3    H153488   0.933   3.924  12.944 -0.2240 -0.0943 -0.0452
10691TIP3    H253489   0.853   3.806  12.892 -0.7096 -0.0450  0.5751
10692TIP3   OH253490   0.715   6.268   6.897  0.1065 -0.1837 -0.1446
10692TIP3    H153491   0.776   6.197   6.916  0.3508  0.2772  0.8571
10692TIP3    H253492   0.676   6.290   6.982  0.6418  1.4237 -0.2786
10693TIP3   OH253493   3.921   6.158  12.412 -0.1366 -0.0451 -0.1075
10693TIP3    H153494   3.969   6.101  12.472 -0.9252  0.3000  0.8895
10693TIP3    H253495   3.977   6.236  12.404 -0.6461  0.5154  1.3449
10694TIP3   OH253496   1.127   0.171   4.980 -0.0595 -0.4247 -0.3541
10694TIP3    H153497   1.071   0.248   4.970 -0.6789 -0.8641 -0.2867
10694TIP3    H253498   1.133   0.159   5.075  0.1571 -0.3782 -0.3608
10695TIP3   OH253499   5.074   2.990   6.438 -0.0153  0.0672  0.0480
10695TIP3    H153500   5.030   3.025   6.361 -0.3855 -0.3266  0.0764
10695TIP3    H253501   5.040   2.901   6.448  0.5503 -0.1336  0.2619
10696TIP3   OH253502   5.448   5.116   4.514  0.0527  0.3546  0.1688
10696TIP3    H153503   5.445   5.061   4.436 -1.9098  1.1017 -0.3493
10696TIP3    H253504   5.412   5.062   4.584  1.4826 -0.1926  0.5264
10697TIP3   OH253505   0.540   0.182  16.719  0.0611  0.3843 -0.5377
10697TIP3    H153506   0.585   0.266  16.726 -0.3850  0.6325 -0.6282
10697TIP3    H253507   0.471   0.197  16.656 -0.8230  0.3063  0.3840
10698TIP3   OH253508   0.235   0.108   3.047 -0.1915 -0.1255  0.7082
10698TIP3    H153509   0.321   0.081   3.016 -0.5748 -0.8989  0.2997
10698TIP3    H253510   0.251   0.193   3.090  0.6219  0.1720 -0.1427
10699TIP3   OH253511   5.083   4.911   3.991  0.0882  0.2809 -0.2249
10699TIP3    H153512   5.097   4.921   3.897  1.1102  1.2192  0.0038
10699TIP3    H253513   5.157   4.958   4.031 -1.3651  1.5598  1.0614
10700TIP3   OH253514   1.951   6.719   0.433 -0.1107 -0.8655 -0.7561
10700TIP3    H153515   1.867   6.740   0.474  0.3185  0.0184 -0.2752
10700TIP3    H253516   1.930   6.698   0.342 -0.7860 -0.0001 -0.8090
10701TIP3   OH253517   0.832   0.268  12.457  0.3373 -0.5687  0.1532
10701TIP3    H153518   0.852   0.271  12.364 -1.1005 -0.7732 -0.1827
10701TIP3    H253519   0.872   0.186  12.488  0.7856 -0.5180 -0.2865
10702TIP3   OH253520   6.732   3.624  10.887 -0.0200  0.1123 -0.3386
10702TIP3    H153521   6.779   3.541  10.873  0.8950  0.7832 -1.3443
10702TIP3    H253522   6.791   3.691  10.854 -0.4167  1.2690  1.1710
10703TIP3   OH253523   1.142   2.363  12.507 -0.6048 -0.3123  0.0087
10703TIP3    H153524   1.079   2.408  12.451 -1.9499 -0.4716  1.3467
10703TIP3    H253525   1.134   2.406  12.592  0.2695 -1.1130  0.5196
10704TIP3   OH253526   0.539   3.388   2.944 -0.3263 -0.1466 -0.3478
10704TIP3    H153527   0.454   3.353   2.968 -0.1593 -0.7433 -0.6115
10704TIP3    H253528   0.543   3.473   2.987 -0.0049 -1.1945  1.8575
10705TIP3   OH253529   3.795   3.487   5.470 -0.4005  0.2203 -0.2267
10705TIP3    H153530   3.836   3.566   5.505 -1.0091  0.0814  0.8551
10705TIP3    H253531   3.838   3.415   5.516 -2.3926  0.1032  1.6444
10706TIP3   OH253532   4.059   0.578  17.335  0.7977 -0.6191 -0.4917
10706TIP3    H153533   4.043   0.579  17.240  1.2167 -1.3590 -0.5811
10706TIP3    H253534   4.042   0.487  17.360 -1.5059  0.0130  0.5558
10707TIP3   OH253535   4.744   1.351   2.483  0.4172 -0.6555  0.3542
10707TIP3    H153536   4.734   1.372   2.390 -1.5132 -0.5364  0.5428
10707TIP3    H253537   4.784   1.430   2.521  0.6808 -0.4778 -0.2843
10708TIP3   OH253538   3.863   3.399   1.040 -0.4738 -1.0376  0.0998
10708TIP3    H153539   3.915   3.434   0.967  0.3115 -2.2676  0.0296
10708TIP3    H253540   3.792   3.351   0.997 -0.8898 -0.4880  0.1732
10709TIP3   OH253541   4.627   1.381  14.322  0.2060 -0.5898  0.0450
10709TIP3    H153542   4.692   1.420  14.380 -2.4624  1.3333  2.0297
10709TIP3    H253543   4.579   1.320  14.377 -0.7362 -0.6926 -0.8593
10710TIP3   OH253544   1.763   1.007  14.294 -0.0724  0.4168  0.8664
10710TIP3    H153545   1.789   0.915  14.302 -0.7950  0.3273  2.6011
10710TIP3    H253546   1.839   1.050  14.255  0.1152 -0.9665 -0.4307
10711TIP3   OH253547   4.661   3.973   4.717 -0.0685 -0.0369 -0.4256
10711TIP3    H153548   4.573   4.011   4.710  0.0328  0.0427 -1.6199
10711TIP3    H253549   4.714   4.025   4.655  0.9134  0.1551  0.5341
10712TIP3   OH253550   1.543   0.494  15.578 -0.2372 -0.4030 -0.2546
10712TIP3    H153551   1.629   0.489  15.620 -0.1714 -1.4575 -0.4893
10712TIP3    H253552   1.550   0.568  15.518  0.3591 -0.1959  0.0602
10713TIP3   OH253553   5.363   3.142  12.335  0.1658 -0.1381  0.2506
10713TIP3    H153554   5.422   3.139  12.410  0.2578 -0.1224  0.1792
10713TIP3    H253555   5.343   3.235  12.323 -0.8918 -0.2327  1.0651
10714TIP3   OH253556   5.305   4.911   4.640  0.5615 -0.2434 -0.1323
10714TIP3    H153557   5.261   4.851   4.580  1.3379  0.9706 -1.9909
10714TIP3    H253558   5.234   4.947   4.694 -0.2683 -0.7654 -0.8408
10715TIP3   OH253559   4.378   5.635  16.398  0.1020 -0.2394  0.9410
10715TIP3    H153560   4.468   5.661  16.381  0.0303 -1.0486 -0.8684
10715TIP3    H253561   4.326   5.711  16.376  0.2115 -0.4112  0.0710
10716TIP3   OH253562   0.809   4.724   3.263 -0.3963 -0.1628  0.3311
10716TIP3    H153563   0.802   4.630   3.246 -1.6493  0.0803 -0.6157
10716TIP3    H253564   0.863   4.758   3.193  3.0045 -0.6199  2.5211
10717TIP3   OH253565   2.225   2.637  17.275  0.2287 -0.2546 -0.4025
10717TIP3    H153566   2.182   2.637  17.190  0.7100 -0.8389 -0.6580
10717TIP3    H253567   2.310   2.594  17.259  0.6810  0.3878  0.1915
10718TIP3   OH253568   1.421   4.138   1.932  0.8146 -0.0575  0.5353
10718TIP3    H153569   1.503   4.090   1.941  0.3638 -0.5512  2.3597
10718TIP3    H253570   1.353   4.074   1.953 -0.0618  0.3947 -0.7482
10719TIP3   OH253571   5.297   1.635  15.800 -0.3877  0.0411 -0.1304
10719TIP3    H153572   5.301   1.721  15.842 -1.4723  1.6541 -3.0425
10719TIP3    H253573   5.354   1.643  15.723  1.2632 -2.6562  0.6734
10720TIP3   OH253574   3.413   6.590   3.568 -1.0750  0.3457 -0.5261
10720TIP3    H153575   3.366   6.673   3.576 -1.9871 -0.0343 -1.6513
10720TIP3    H253576   3.398   6.546   3.652  1.0649  2.0742  0.8996
10721TIP3   OH253577   2.893   0.788   1.724 -0.6336  0.1104 -0.2745
10721TIP3    H153578   2.825   0.782   1.791 -1.2207 -1.1342 -0.9585
10721TIP3    H253579   2.905   0.882   1.711  0.5078  0.4683  2.5635
10722TIP3   OH253580   6.551   3.913  14.064  0.4052 -0.5543 -0.0240
10722TIP3    H153581   6.543   3.891  13.971  1.6781 -0.1663 -0.2447
10722TIP3    H253582   6.520   4.003  14.070  2.3421  0.2000 -0.4984
10723TIP3   OH253583   2.472   3.530   1.176  0.0402 -0.2997 -0.4259
10723TIP3    H153584   2.484   3.623   1.196  2.6855  0.1664 -3.3428
10723TIP3    H253585   2.512   3.484   1.250 -0.3323  0.8815  0.5384
10724TIP3   OH253586   3.941   4.881  12.672 -0.0265 -0.0295  0.4468
10724TIP3    H153587   3.920   4.906  12.761  0.7291  5.5132 -0.5581
10724TIP3    H253588   3.859   4.895  12.623 -0.1635 -2.0432 -0.0009
10725TIP3   OH253589   2.258   5.271  15.603 -0.2458 -0.2622  0.2933
10725TIP3    H153590   2.185   5.220  15.570  1.1782 -0.5013 -2.8465
10725TIP3    H253591   2.245   5.358  15.566  1.6183 -0.6408 -1.4352
10726TIP3   OH253592   1.641   3.329  12.321  0.1281 -0.4878 -0.3276
10726TIP3    H153593   1.681   3.270  12.385 -1.7792 -0.2629  1.1663
10726TIP3    H253594   1.549   3.301  12.317  0.2752 -0.8642 -3.4492
10727TIP3   OH253595   4.862   3.520  12.300  0.1867  0.1214  0.3991
10727TIP3    H153596   4.942   3.526  12.352  0.4606  1.8926 -0.1346
10727TIP3    H253597   4.833   3.430  12.310  1.8100 -0.3474  1.2624
10728TIP3   OH253598   3.407   5.895  11.332 -0.3151  0.2635  0.3647
10728TIP3    H153599   3.369   5.963  11.277 -0.1750 -0.3794 -0.5490
10728TIP3    H253600   3.334   5.838  11.355 -0.3387  0.4207  0.6804
10729TIP3   OH253601   1.949   0.796   2.922  0.3384 -0.0432  0.0005
10729TIP3    H153602   2.040   0.785   2.948 -0.0108  0.8916  1.7757
10729TIP3    H253603   1.911   0.850   2.991 -1.6961 -0.8481 -0.4242
10730TIP3   OH253604   3.062   0.223  16.503 -0.3977 -0.0341 -0.2561
10730TIP3    H153605   3.120   0.148  16.488 -1.3393 -0.6210 -1.0958
10730TIP3    H253606   2.980   0.184  16.533 -1.0017  0.6258 -1.0158
10731TIP3   OH253607   2.625   2.377   1.494  0.3184  0.4671  0.0039
10731TIP3    H153608   2.530   2.365   1.494  0.3384  0.1887  1.2749
10731TIP3    H253609   2.636   2.472   1.487 -0.0132  0.4332 -1.2550
10732TIP3   OH253610   1.304   0.453  17.262 -0.1262 -0.0485 -0.5262
10732TIP3    H153611   1.288   0.439  17.169 -0.8140  2.1939 -0.8105
10732TIP3    H253612   1.394   0.486  17.267 -0.2981  0.4375 -0.5011
10733TIP3   OH253613   3.233   0.221  13.286 -0.4443  0.2400 -0.1062
10733TIP3    H153614   3.316   0.192  13.324 -1.5150 -0.9440  1.4593
10733TIP3    H253615   3.179   0.246  13.362 -1.3020  1.6745 -1.1243
10734TIP3   OH253616   2.684   4.648   3.589  0.1658  0.8436  0.1755
10734TIP3    H153617   2.689   4.709   3.515 -0.4280 -0.2551 -0.8120
10734TIP3    H253618   2.591   4.641   3.608  0.1845 -0.0872 -0.0234
10735TIP3   OH253619   0.215   4.634   0.547 -0.0361  0.4579  0.3762
10735TIP3    H153620   0.306   4.604   0.543 -0.2093 -0.2498  1.3162
10735TIP3    H253621   0.220   4.729   0.533  0.9325  0.5337  1.1316
10736TIP3   OH253622   2.054   0.883   5.070 -0.6261 -0.1264 -0.3277
10736TIP3    H153623   2.093   0.804   5.032 -1.0453  0.2279 -1.5023
10736TIP3    H253624   1.973   0.852   5.111 -1.2295 -0.1723 -1.5348
10737TIP3   OH253625   1.941   1.355  11.876  0.6058  0.4090  0.0071
10737TIP3    H153626   2.026   1.398  11.884 -0.5409  3.1544 -1.0495
10737TIP3    H253627   1.906   1.388  11.793 -1.6868 -0.2109  0.6692
10738TIP3   OH253628   3.814   3.463  14.405 -0.2881 -0.6451 -0.0222
10738TIP3    H153629   3.758   3.528  14.362  0.7765 -0.3104 -0.9245
10738TIP3    H253630   3.789   3.468  14.498 -2.0442 -0.8163 -0.4482
10739TIP3   OH253631   2.272   6.164  10.763 -0.0161  0.4753 -0.5203
10739TIP3    H153632   2.366   6.148  10.768 -0.1106  0.1108  0.2488
10739TIP3    H253633   2.232   6.079  10.778 -0.4725  0.4848 -1.5815
10740TIP3   OH253634   5.905   5.047   4.962 -0.1587  0.6407  0.2103
10740TIP3    H153635   5.811   5.029   4.958 -0.4684  2.2892 -0.8958
10740TIP3    H253636   5.919   5.084   5.049 -0.4819  0.2244  0.4463
10741TIP3   OH253637   5.612   1.399   0.302 -0.3228  0.1407 -0.1627
10741TIP3    H153638   5.642   1.379   0.391  1.1614  0.0575 -0.6570
10741TIP3    H253639   5.524   1.361   0.297  0.0519 -0.9139  0.8813
10742TIP3   OH253640   6.362   5.158  15.083 -0.3910  0.6322  0.7961
10742TIP3    H153641   6.345   5.095  15.153  2.0130 -1.3163 -0.1763
10742TIP3    H253642   6.453   5.140  15.057 -0.8406  1.9586 -2.1051
10743TIP3   OH253643   0.175   6.465   3.811 -0.2763 -0.6140 -0.2901
10743TIP3    H153644   0.211   6.469   3.723  1.5553 -0.1411  0.4300
10743TIP3    H253645   0.113   6.538   3.815  0.9790  0.5108 -0.6487
10744TIP3   OH253646   5.536   5.268  16.353  0.4509 -0.3201 -0.0269
10744TIP3    H153647   5.556   5.228  16.438  4.8332 -0.6104 -0.9358
10744TIP3    H253648   5.527   5.194  16.293 -2.1150 -0.0943 -0.0238
10745TIP3   OH253649   1.813   2.488  16.412 -0.3634  0.2936 -0.0998
10745TIP3    H153650   1.827   2.445  16.328 -0.2827  0.7992 -0.3480
10745TIP3    H253651   1.719   2.507  16.414 -0.2177  1.1094 -0.4874
10746TIP3   OH253652   6.446   5.923  11.155  0.0645  0.0768  0.2471
10746TIP3    H153653   6.514   5.988  11.172 -0.4494  0.5173  0.6288
10746TIP3    H253654   6.484   5.840  11.186  0.8048  0.1488 -0.4465
10747TIP3   OH253655   5.128   2.360   5.963 -0.1288  0.3574 -0.1998
10747TIP3    H153656   5.169   2.301   6.026 -0.8756 -0.2499 -0.2600
10747TIP3    H253657   5.096   2.434   6.015  1.0011  0.8219 -0.1518
10748TIP3   OH253658   2.801   0.592  13.288  0.2849  0.3976  0.3905
10748TIP3    H153659   2.710   0.618  13.301  0.8286  2.9370 -0.3053
10748TIP3    H253660   2.851   0.671  13.308  2.2174 -0.4245 -0.9470
10749TIP3   OH253661   4.350   6.525  17.214 -0.5351 -0.6147 -0.2342
10749TIP3    H153662   4.410   6.595  17.189 -1.0095 -0.2987 -0.5103
10749TIP3    H253663   4.292   6.516  17.138 -0.5881 -1.1851 -0.1268
10750TIP3   OH253664   3.541   3.075  15.513  0.5313  0.4276 -0.0024
10750TIP3    H153665   3.535   3.042  15.423 -3.1111  0.3477  0.0883
10750TIP3    H253666   3.575   3.164  15.504  1.2931  0.0277 -1.3276
10751TIP3   OH253667   1.112   3.266  16.314  0.0154  0.0875  0.5785
10751TIP3    H153668   1.199   3.287  16.348  0.4721  1.2753 -1.2343
10751TIP3    H253669   1.124   3.256  16.220 -1.5669 -1.2052  0.4589
10752TIP3   OH253670   0.128   4.230   1.008 -0.0387 -0.0223  0.2119
10752TIP3    H153671   0.072   4.307   1.020 -0.1210 -0.0852  0.2315
10752TIP3    H253672   0.069   4.164   0.973 -0.4199 -0.6920  2.0106
10753TIP3   OH253673   0.989   2.054   5.142 -0.4353  0.1781 -0.2514
10753TIP3    H153674   1.033   2.062   5.227 -1.1384  3.2257 -0.0346
10753TIP3    H253675   1.059   2.071   5.078 -0.1149 -1.0906 -0.2571
10754TIP3   OH253676   0.902   1.467   6.260  0.1190  0.1053 -0.8948
10754TIP3    H153677   0.853   1.467   6.177  0.0485 -2.3502 -0.9408
10754TIP3    H253678   0.994   1.469   6.233  0.1029 -0.9928 -1.0909
10755TIP3   OH253679   2.443   6.595   2.319  0.2965 -0.2499 -0.3173
10755TIP3    H153680   2.469   6.681   2.286  0.4030  0.2519  1.0152
10755TIP3    H253681   2.420   6.610   2.411  1.1632 -1.7955  0.1930
10756TIP3   OH253682   3.796   0.210   2.871  0.2907 -0.0868  0.9978
10756TIP3    H153683   3.761   0.138   2.819 -0.9865  0.8916  0.4537
10756TIP3    H253684   3.842   0.265   2.808 -1.4584  1.2251  0.8093
10757TIP3   OH253685   0.512   1.728  13.585  0.3399 -0.2062  0.2758
10757TIP3    H153686   0.590   1.674  13.577 -1.0621 -2.3576  0.5260
10757TIP3    H253687   0.523   1.772  13.669  1.1198 -0.7068  0.4521
10758TIP3   OH253688   0.005   4.305   5.980  0.0398 -0.2745  0.1448
10758TIP3    H153689  -0.026   4.394   5.993 -0.1477 -0.3045 -0.0808
10758TIP3    H253690   0.100   4.313   5.971 -0.1402  0.1367 -1.8075
10759TIP3   OH253691   3.803   2.545   2.602  0.0809  0.0084  0.8040
10759TIP3    H153692   3.744   2.490   2.653 -1.7722 -0.3086 -1.5140
10759TIP3    H253693   3.871   2.485   2.571 -0.4678 -0.4381  0.4461
10760TIP3   OH253694   5.626   2.274  13.325 -0.0688 -0.3098  0.3603
10760TIP3    H153695   5.634   2.313  13.413 -0.6780 -0.6657  0.5774
10760TIP3    H253696   5.716   2.258  13.298  0.2050  1.2341  0.2719
10761TIP3   OH253697   0.768   6.397   1.795 -1.2177  0.1905 -0.4226
10761TIP3    H153698   0.817   6.427   1.719 -1.1841  0.5036 -0.2790
10761TIP3    H253699   0.805   6.446   1.869 -1.3555  0.0051 -0.2262
10762TIP3   OH253700   3.320   4.217   5.433 -0.2720  0.2660 -0.5812
10762TIP3    H153701   3.229   4.186   5.429 -0.1754 -0.6335  2.1669
10762TIP3    H253702   3.315   4.301   5.478  0.1907  0.5591 -1.0755
10763TIP3   OH253703   3.196   6.129  13.927  0.0615  0.1791 -0.0162
10763TIP3    H153704   3.216   6.035  13.928  0.4505  0.2614  0.4513
10763TIP3    H253705   3.161   6.145  13.840 -0.4051 -0.4803  0.0474
10764TIP3   OH253706   1.648   6.455  16.119  0.0525 -0.3154 -0.6544
10764TIP3    H153707   1.731   6.486  16.155 -1.3584  2.8017  0.2757
10764TIP3    H253708   1.666   6.443  16.025  1.9966 -1.6983 -0.1708
10765TIP3   OH253709   3.515   3.889   3.168  0.7742 -0.2187  0.2838
10765TIP3    H153710   3.506   3.910   3.261  0.8367 -3.0961  1.0200
10765TIP3    H253711   3.578   3.817   3.166  1.7828  0.6113 -2.1547
10766TIP3   OH253712   5.713   5.971   1.418 -0.7047 -0.0941  0.1754
10766TIP3    H153713   5.714   5.903   1.486 -0.1829 -1.4242 -1.1020
10766TIP3    H253714   5.629   5.960   1.374 -0.4770 -0.1401 -0.2507
10767TIP3   OH253715   4.461   0.810   5.625 -0.4632 -0.4988  0.0943
10767TIP3    H153716   4.550   0.780   5.603 -0.0434 -0.0326  1.0754
10767TIP3    H253717   4.457   0.900   5.593 -0.5557 -0.4977  0.1084
10768TIP3   OH253718   1.047   1.890  10.798 -0.5274 -0.1968  0.2170
10768TIP3    H153719   1.053   1.815  10.740  1.9127 -1.4918  2.0053
10768TIP3    H253720   1.126   1.941  10.780 -0.8895  0.5884  0.8018
10769TIP3   OH253721   4.859   4.494   6.870  0.1144 -0.1369  0.2750
10769TIP3    H153722   4.934   4.538   6.909 -0.6000 -1.0334  2.8383
10769TIP3    H253723   4.821   4.442   6.941 -2.0227 -0.9362 -1.3260
10770TIP3   OH253724   4.799   2.854   5.284  0.5578 -0.2100 -0.1352
10770TIP3    H153725   4.854   2.905   5.344  1.6932  1.8973 -2.7895
10770TIP3    H253726   4.710   2.867   5.318  1.0706  1.5209  0.7085
10771TIP3   OH253727   3.756   3.263   4.743 -0.1530 -0.0577 -0.6586
10771TIP3    H153728   3.785   3.176   4.771  0.6807  0.3092 -0.3450
10771TIP3    H253729   3.678   3.282   4.795  1.7699  0.9289  2.0473
10772TIP3   OH253730   4.602   1.931   2.655  0.5428 -0.2425  0.3040
10772TIP3    H153731   4.644   1.991   2.718 -0.3917  1.1806 -0.3709
10772TIP3    H253732   4.646   1.949   2.572 -0.4888  0.3382 -0.1384
10773TIP3   OH253733   1.421   5.333   3.405 -0.1215  0.1924  0.3943
10773TIP3    H153734   1.351   5.335   3.339 -0.1089  1.3358  0.4036
10773TIP3    H253735   1.394   5.398   3.470  1.8946  2.1818 -0.6223
10774TIP3   OH253736   0.526   2.118   5.613  0.2479  0.2768  0.2897
10774TIP3    H153737   0.498   2.153   5.698  1.5815  1.0308  0.4402
10774TIP3    H253738   0.445   2.113   5.562 -0.6449 -0.5349  1.7073
10775TIP3   OH253739   5.632   0.837   3.776  0.4535 -0.8643 -0.0473
10775TIP3    H153740   5.697   0.899   3.742 -0.0324 -0.6711 -0.6333
10775TIP3    H253741   5.585   0.887   3.843 -1.6148  0.2849 -2.2142
10776TIP3   OH253742   0.382   0.645  10.970 -0.3860  0.3889  0.4447
10776TIP3    H153743   0.367   0.668  10.879 -2.8366  1.3973  1.0194
10776TIP3    H253744   0.464   0.687  10.993  0.1094  0.3674 -1.1928
10777TIP3   OH253745   6.736   6.245   5.466  0.0017  0.3704  0.0410
10777TIP3    H153746   6.714   6.338   5.468 -0.4186  0.3001 -1.0870
10777TIP3    H253747   6.720   6.215   5.556  1.2008  1.6103  0.7163
10778TIP3   OH253748   3.059   1.889   1.919 -0.2617  0.3853  0.4134
10778TIP3    H153749   3.000   1.817   1.898 -0.4137  0.3936  0.7945
10778TIP3    H253750   3.034   1.959   1.858  1.0901 -0.4774 -1.1906
10779TIP3   OH253751   4.711   2.966  11.950  0.3340  0.1841  0.2399
10779TIP3    H153752   4.699   2.871  11.944  1.0881  0.0545  0.6667
10779TIP3    H253753   4.743   2.991  11.863 -0.1583  0.0936  0.0322
10780TIP3   OH253754   3.417   3.744  12.140  0.3368  0.6158  0.5531
10780TIP3    H153755   3.366   3.663  12.137 -0.6873  1.2163 -3.0437
10780TIP3    H253756   3.380   3.793  12.213 -1.3660 -0.7256  0.6543
10781TIP3   OH253757   5.169   1.081   4.960  0.1713 -0.5304 -0.0029
10781TIP3    H153758   5.122   1.164   4.953  1.5978  0.2760 -0.6204
10781TIP3    H253759   5.103   1.018   4.988 -1.0599  0.7075  0.0076
10782TIP3   OH253760   2.025   5.668  14.337  0.6532 -0.0400 -0.3052
10782TIP3    H153761   2.019   5.661  14.242 -0.0584 -1.5498 -0.1846
10782TIP3    H253762   1.936   5.650  14.368  1.2925 -1.6677  0.7271
10783TIP3   OH253763   3.300   1.781  12.126  0.4552 -0.2278  0.4132
10783TIP3    H153764   3.295   1.719  12.053  1.8790  0.4527 -0.2866
10783TIP3    H253765   3.211   1.782  12.162 -0.0575 -1.2407 -0.7452
10784TIP3   OH253766   5.528   6.241  15.585 -0.2214 -0.1491  0.4520
10784TIP3    H153767   5.573   6.207  15.507  0.2271 -1.9810  1.4363
10784TIP3    H253768   5.442   6.199  15.584 -0.8872  1.1698  0.0637
10785TIP3   OH253769   3.467   4.002  13.445 -0.3729 -0.1437 -0.7182
10785TIP3    H153770   3.516   4.081  13.468 -1.7566  0.2518  1.1139
10785TIP3    H253771   3.477   3.994  13.350  0.8944  1.4586 -0.7639
10786TIP3   OH253772   1.664   6.244   2.336  0.5980  0.2668  0.0207
10786TIP3    H153773   1.692   6.179   2.272  1.6310  1.2481 -0.5530
10786TIP3    H253774   1.568   6.243   2.330  0.6330 -0.5619 -0.6056
10787TIP3   OH253775   1.380   3.378  15.181  0.0785 -0.6481  0.0755
10787TIP3    H153776   1.459   3.334  15.149  1.0426 -0.4225  1.9933
10787TIP3    H253777   1.379   3.463  15.136 -1.0037 -1.9531 -2.5416
10788TIP3   OH253778   3.459   3.296  13.147 -0.2018  0.6261  0.2749
10788TIP3    H153779   3.400   3.222  13.153  0.3701  0.0625 -0.8001
10788TIP3    H253780   3.450   3.327  13.057  1.8062 -0.0718 -0.2145
10789TIP3   OH253781   1.627   6.250  16.641  0.0535 -0.1205 -0.2924
10789TIP3    H153782   1.560   6.276  16.578  0.7406  2.6180  0.0155
10789TIP3    H253783   1.580   6.236  16.723 -0.8499 -3.7135 -1.2213
10790TIP3   OH253784   4.256   3.637  11.858  0.6553 -0.3846 -0.2013
10790TIP3    H153785   4.290   3.547  11.864  0.7648 -0.3274  0.1123
10790TIP3    H253786   4.163   3.627  11.840  0.0941 -0.6510  2.3489
10791TIP3   OH253787   2.278   6.542  13.376 -0.0028  0.1894  0.3020
10791TIP3    H153788   2.251   6.458  13.338  0.1102  1.2713 -2.3990
10791TIP3    H253789   2.195   6.586  13.396 -0.0661 -0.3198  1.2228
10792TIP3   OH253790   1.121   3.423  10.960  0.0440  0.0125 -0.2737
10792TIP3    H153791   1.193   3.363  10.941 -0.8806 -0.5672 -2.2835
10792TIP3    H253792   1.140   3.501  10.908 -0.1208  0.3792  0.2070
10793TIP3   OH253793   2.796   4.155  15.661  0.2147 -0.0905 -0.1461
10793TIP3    H153794   2.738   4.086  15.630  1.1284 -0.3030 -1.4322
10793TIP3    H253795   2.737   4.222  15.694 -0.7464 -0.5696 -0.8346
10794TIP3   OH253796   3.415   0.659   6.103  0.0759  0.1867 -0.1925
10794TIP3    H153797   3.475   0.642   6.030  0.2668  1.4974 -0.3534
10794TIP3    H253798   3.464   0.632   6.181 -1.0136 -3.6281 -0.6185
10795TIP3   OH253799   6.429   5.274   2.839  0.5671 -0.3902  0.2518
10795TIP3    H153800   6.355   5.335   2.835  1.1904  0.4277  0.8146
10795TIP3    H253801   6.446   5.252   2.748  1.0105  1.1481 -0.0788
10796TIP3   OH253802   2.090   3.670  11.080 -0.3321  0.3195  0.3292
10796TIP3    H153803   2.157   3.723  11.037 -0.9916 -1.4585 -3.2765
10796TIP3    H253804   2.135   3.589  11.104 -0.6375  0.1154  0.2208
10797TIP3   OH253805   0.358   1.016  15.592  0.2733  0.0816 -0.1191
10797TIP3    H153806   0.359   0.926  15.560  2.3201  0.1002 -0.2680
10797TIP3    H253807   0.393   1.067  15.519  0.0780  0.8641  0.3239
10798TIP3   OH253808   2.572   1.141   0.020 -0.2332 -0.1650 -0.0807
10798TIP3    H153809   2.636   1.092  -0.031 -0.8886 -1.0709 -0.0518
10798TIP3    H253810   2.619   1.166   0.100  0.2959 -0.1900 -0.3832
10799TIP3   OH253811   3.146   6.328   3.585 -0.1119 -0.3477 -0.3343
10799TIP3    H153812   3.183   6.353   3.501  0.5262 -0.9377 -0.2385
10799TIP3    H253813   3.052   6.319   3.568  0.2200 -2.2412 -1.4555
10800TIP3   OH253814   3.751   0.581  12.009 -0.2564 -0.2666 -0.1089
10800TIP3    H153815   3.819   0.579  11.942 -1.1100  1.6618 -1.1329
10800TIP3    H253816   3.785   0.528  12.080  1.6958 -0.4856 -1.1428
10801TIP3   OH253817   3.173   6.286   4.588  0.7771  0.1472  0.0468
10801TIP3    H153818   3.260   6.247   4.587  0.5923 -0.2979  0.9379
10801TIP3    H253819   3.152   6.298   4.681 -0.4060 -0.4232 -0.1205
10802TIP3   OH253820   4.511   2.329  11.449 -0.0437 -0.8758  0.2538
10802TIP3    H153821   4.536   2.269  11.519  0.6583  0.6812  1.3901
10802TIP3    H253822   4.593   2.356  11.409 -0.2350  0.2517  0.5723
10803TIP3   OH253823   3.923   1.275   2.681 -0.1894  0.2743  0.1184
10803TIP3    H153824   3.955   1.189   2.651  0.6807  0.9366 -0.9617
10803TIP3    H253825   3.845   1.291   2.627 -0.5444  0.0269  0.5526
10804TIP3   OH253826   0.631   5.183   6.445 -0.2935  0.0588  0.5866
10804TIP3    H153827   0.541   5.151   6.435  0.0042 -0.1824 -1.7376
10804TIP3    H253828   0.620   5.273   6.478 -1.3226 -0.3384  1.3985
10805TIP3   OH253829   4.766   5.156  14.725 -0.7588  0.3546  0.4135
10805TIP3    H153830   4.735   5.176  14.636  0.1497  1.7637  0.3715
10805TIP3    H253831   4.712   5.211  14.781  0.9657  2.1667  0.4087
10806TIP3   OH253832   4.586   5.609  11.306  0.3892 -0.1326  0.1841
10806TIP3    H153833   4.601   5.630  11.214  3.9737 -1.1290  0.3774
10806TIP3    H253834   4.568   5.693  11.347  0.3266  0.5521 -1.1987
10807TIP3   OH253835   0.808   3.126   0.193  0.7019  0.3447  0.3115
10807TIP3    H153836   0.766   3.179   0.261  0.8066 -0.3472  0.9294
10807TIP3    H253837   0.807   3.037   0.228 -1.0552 -0.3920 -1.4466
10808TIP3   OH253838   3.267   2.279  12.472  0.5667 -0.0129  0.4083
10808TIP3    H153839   3.225   2.228  12.402 -0.2864  0.9356  0.2012
10808TIP3    H253840   3.260   2.370  12.443  5.1936  0.1262 -0.9309
10809TIP3   OH253841   0.005   4.570  17.141 -0.1318  0.1613 -0.4508
10809TIP3    H153842   0.029   4.662  17.129 -0.8099  0.4623  0.3908
10809TIP3    H253843   0.041   4.546  17.226 -2.4765  0.5499  0.7167
10810TIP3   OH253844   1.627   6.115   3.799  0.1139  0.2123  0.4819
10810TIP3    H153845   1.642   6.110   3.893  1.0640  0.2064  0.3404
10810TIP3    H253846   1.709   6.084   3.760  0.9142  3.1096 -0.3717
10811TIP3   OH253847   4.505   3.246   1.573  0.3492  0.0219  0.5692
10811TIP3    H153848   4.591   3.207   1.558  0.0863 -0.5208  0.4317
10811TIP3    H253849   4.508   3.330   1.527  0.6266 -0.2326  0.1156
10812TIP3   OH253850   3.610   2.381  12.479  0.1017  0.3658  0.6677
10812TIP3    H153851   3.596   2.336  12.396  0.2729  0.7193  0.4459
10812TIP3    H253852   3.551   2.337  12.540 -0.9627  0.9233  0.0646
10813TIP3   OH253853   3.141   6.337  17.304  0.4011 -0.2326 -0.3254
10813TIP3    H153854   3.178   6.304  17.387  3.6395  3.6472  0.0777
10813TIP3    H253855   3.078   6.403  17.330  0.0307 -0.3157 -0.9935
10814TIP3   OH253856   2.248   5.018  14.760 -0.1043 -0.1251  0.1530
10814TIP3    H153857   2.166   4.972  14.778  0.4748 -2.3171 -2.2172
10814TIP3    H253858   2.295   5.019  14.843 -2.6097  1.5524  1.6800
10815TIP3   OH253859   3.438   1.947   6.658 -0.2626  0.4203  0.2904
10815TIP3    H153860   3.467   1.859   6.680 -1.0262  0.1353  0.2062
10815TIP3    H253861   3.346   1.949   6.684 -0.6543  0.7179 -1.0149
10816TIP3   OH253862   3.353   2.828   6.316  0.0549 -0.6990  0.1223
10816TIP3    H153863   3.398   2.747   6.337  1.3443 -0.1682 -0.4530
10816TIP3    H253864   3.304   2.850   6.395  1.5233 -0.8530  1.1259
10817TIP3   OH253865   0.555   1.026  17.034 -0.6252  0.4999  0.7978
10817TIP3    H153866   0.588   0.938  17.015 -0.6699  1.0835 -2.5122
10817TIP3    H253867   0.528   1.022  17.126  1.1109 -2.3580  1.3035
10818TIP3   OH253868   6.634   0.252   5.282 -0.6488 -0.0581 -0.2345
10818TIP3    H153869   6.716   0.244   5.331 -1.5195  0.3268  1.3672
10818TIP3    H253870   6.621   0.346   5.273 -1.9684 -0.0282  1.4745
10819TIP3   OH253871   2.363   5.919  11.571 -0.9134 -0.2772  0.0573
10819TIP3    H153872   2.453   5.920  11.539 -1.7119  2.0994 -2.4654
10819TIP3    H253873   2.371   5.940  11.664  1.1016  1.3464 -0.4067
10820TIP3   OH253874   0.942   3.332  11.716  0.3685 -0.3052 -0.7298
10820TIP3    H153875   0.896   3.406  11.677 -1.0935 -1.1459 -0.6372
10820TIP3    H253876   1.023   3.370  11.752 -0.9245  1.4753  0.4368
10821TIP3   OH253877   2.426   5.385   1.529  1.0814 -0.6862 -0.0603
10821TIP3    H153878   2.431   5.327   1.453  1.5394 -1.7201  0.7429
10821TIP3    H253879   2.339   5.368   1.566  0.1829  1.0094 -1.2459
10822TIP3   OH253880   2.926   2.007   2.317 -1.0364 -0.1763  0.0219
10822TIP3    H153881   2.842   1.995   2.272  0.1560  0.0620 -2.4528
10822TIP3    H253882   2.952   2.096   2.296 -0.0055 -0.3514  0.4772
10823TIP3   OH253883   3.385   1.898   0.336  0.0971 -0.0687  0.2649
10823TIP3    H153884   3.438   1.885   0.414 -0.5703  0.4226  0.8114
10823TIP3    H253885   3.361   1.809   0.309  1.4787 -0.3203 -0.2121
10824TIP3   OH253886   6.456   3.550   4.045  0.2094 -0.2395 -0.3117
10824TIP3    H153887   6.454   3.499   3.963  2.4855 -0.4927 -0.2788
10824TIP3    H253888   6.497   3.491   4.108 -0.4759  0.3681  0.7129
10825TIP3   OH253889   0.165   0.828   4.721 -0.8351  0.4642 -0.0384
10825TIP3    H153890   0.076   0.839   4.753 -0.3837  0.9770  1.0919
10825TIP3    H253891   0.213   0.793   4.796  0.0090  0.5903 -0.5120
10826TIP3   OH253892   5.534   4.918  16.454  0.1202  0.2501  0.0146
10826TIP3    H153893   5.559   4.832  16.489 -1.2253 -0.8736 -1.6198
10826TIP3    H253894   5.539   4.977  16.529  0.2828 -1.4198  1.3781
10827TIP3   OH253895   0.296   0.662   6.295 -0.4151 -0.0486 -0.6175
10827TIP3    H153896   0.311   0.746   6.337 -0.8232 -0.1873 -0.1818
10827TIP3    H253897   0.215   0.629   6.335 -0.0139 -0.8575 -0.4469
10828TIP3   OH253898   2.746   0.217   5.746  0.1874 -0.6840 -0.5979
10828TIP3    H153899   2.656   0.204   5.777  0.8790 -1.1554  1.3190
10828TIP3    H253900   2.756   0.312   5.744  0.0756 -0.6271  0.5780
10829TIP3   OH253901   1.057   5.994   0.920 -0.4438  0.8660 -0.2696
10829TIP3    H153902   1.138   5.971   0.965  0.4916  1.0012 -1.8044
10829TIP3    H253903   0.988   5.975   0.983  0.7617  0.4721  0.9735
10830TIP3   OH253904   5.480   6.208  14.624 -0.4312 -0.1428 -0.7595
10830TIP3    H153905   5.407   6.172  14.572 -0.6996  0.9960 -1.1924
10830TIP3    H253906   5.540   6.245  14.559 -0.5658  0.9215 -0.2973
10831TIP3   OH253907   5.457   0.713   4.144 -0.1059 -0.3563 -0.1122
10831TIP3    H153908   5.524   0.650   4.116  1.3887  0.8067  0.6802
10831TIP3    H253909   5.505   0.778   4.196 -1.7580  0.8662 -0.0162
10832TIP3   OH253910   3.149   1.120   5.451  0.2380  0.1807  0.2934
10832TIP3    H153911   3.068   1.171   5.447  0.1226  0.3894  3.1782
10832TIP3    H253912   3.171   1.117   5.544  3.5359  0.0617 -0.3580
10833TIP3   OH253913   4.133   1.489  13.013 -0.1787 -0.3956  0.6627
10833TIP3    H153914   4.214   1.442  13.034  0.8392  1.4285  1.0512
10833TIP3    H253915   4.093   1.437  12.944  2.4486 -0.2316 -1.1201
10834TIP3   OH253916   4.024   6.748   3.424  0.4365 -0.1403 -0.1964
10834TIP3    H153917   4.011   6.816   3.358 -1.2724  0.5152  0.7438
10834TIP3    H253918   3.994   6.668   3.381  0.3072  0.1003 -0.5600
10835TIP3   OH253919   3.922   3.522   3.761 -0.0846  0.7448  0.2466
10835TIP3    H153920   4.000   3.555   3.715  0.6575  0.7517  1.4614
10835TIP3    H253921   3.848   3.551   3.707  0.6397  2.5717  0.1630
10836TIP3   OH253922   1.468   2.097  12.255 -0.4448 -0.0883 -0.2570
10836TIP3    H153923   1.430   2.185  12.251  1.2661  0.7453  1.0392
10836TIP3    H253924   1.396   2.041  12.285 -1.2935  1.0165 -0.1794
10837TIP3   OH253925   5.901   1.663   1.495 -0.3740  0.2535  0.1338
10837TIP3    H153926   5.929   1.704   1.413 -0.2663 -0.9736 -0.4667
10837TIP3    H253927   5.970   1.599   1.513 -1.2913 -0.7147  0.2361
10838TIP3   OH253928   1.817   0.731   5.101 -0.4163 -0.1230 -0.1912
10838TIP3    H153929   1.730   0.733   5.139 -0.2113 -0.5929  0.3160
10838TIP3    H253930   1.829   0.641   5.071  0.1776 -0.2679  0.4439
10839TIP3   OH253931   4.136   5.206   6.045  0.4585  0.0192 -0.2414
10839TIP3    H153932   4.077   5.281   6.036  0.0702 -0.3555 -0.8846
10839TIP3    H253933   4.117   5.171   6.132 -0.2294 -0.0501 -0.4102
10840TIP3   OH253934   3.478   5.485   5.500 -0.0876  0.8473  0.1753
10840TIP3    H153935   3.552   5.520   5.450  1.7564 -1.4442  1.0831
10840TIP3    H253936   3.492   5.390   5.500 -2.6693  0.3783  1.0162
10841TIP3   OH253937   1.926   5.565   6.120  0.8490  0.3562 -0.0003
10841TIP3    H153938   1.831   5.568   6.117  0.7623 -0.9459  0.6349
10841TIP3    H253939   1.952   5.543   6.031  0.5763  0.9507 -0.2308
10842TIP3   OH253940   4.862   3.663  14.043 -0.2246 -0.0039  0.4719
10842TIP3    H153941   4.793   3.639  14.104  0.3314  0.5281  1.3262
10842TIP3    H253942   4.927   3.709  14.096  0.6831 -0.2885 -0.3591
10843TIP3   OH253943   6.739   3.882   5.003 -0.1641 -0.2565 -0.0135
10843TIP3    H153944   6.680   3.913   5.071  0.7968 -1.2925  1.3421
10843TIP3    H253945   6.824   3.874   5.046  0.4403 -1.0663 -1.2841
10844TIP3   OH253946   0.556   0.252   5.004  0.2058 -0.5316  0.4193
10844TIP3    H153947   0.505   0.293   5.074  0.5378  0.8545 -0.1238
10844TIP3    H253948   0.491   0.224   4.940 -0.0674 -1.4352  1.0645
10845TIP3   OH253949   1.408   4.021   4.289  0.3193  0.6320  0.4601
10845TIP3    H153950   1.313   4.021   4.303  0.4052  0.7553  1.0483
10845TIP3    H253951   1.421   4.075   4.211 -0.0376  1.1334  0.7489
10846TIP3   OH253952   6.187   1.867   3.186  0.0843 -0.2013  0.7506
10846TIP3    H153953   6.155   1.954   3.164  1.7885  0.3786  0.4046
10846TIP3    H253954   6.237   1.840   3.109  2.2359 -0.1200  2.0596
10847TIP3   OH253955   2.374   6.684   5.319 -0.1293  0.2702  0.1259
10847TIP3    H153956   2.323   6.762   5.296  0.3400 -0.0687 -2.3130
10847TIP3    H253957   2.308   6.621   5.348 -1.1613  0.0152 -2.4640
10848TIP3   OH253958   3.537   4.759   3.429  0.4785  0.0270  0.7555
10848TIP3    H153959   3.542   4.668   3.457 -0.0303  0.0745  0.9995
10848TIP3    H253960   3.559   4.810   3.508 -0.6223  0.1511  0.9920
10849TIP3   OH253961   3.707   4.043  12.401  0.3198 -0.1939  0.0788
10849TIP3    H153962   3.703   4.098  12.479  0.7372  0.6874 -0.5154
10849TIP3    H253963   3.794   4.003  12.404 -0.4978 -2.0251  1.2913
10850TIP3   OH253964   0.897   0.982   2.846 -0.3571  0.0124 -0.0021
10850TIP3    H153965   0.923   0.932   2.923  0.6372  1.4612  0.6376
10850TIP3    H253966   0.912   0.922   2.772  1.9683 -0.2501  0.6192
10851TIP3   OH253967   0.934   0.695  14.559 -0.0627 -1.0409  0.1365
10851TIP3    H153968   0.972   0.607  14.569  0.4772 -0.8678 -0.3594
10851TIP3    H253969   0.928   0.728  14.648 -0.5085 -1.6766  0.3547
10852TIP3   OH253970   3.390   3.093  17.107  0.0437  0.5840 -0.2530
10852TIP3    H153971   3.315   3.111  17.164  0.8766  2.4502  0.3435
10852TIP3    H253972   3.379   3.152  17.033 -0.4451 -1.0519 -1.5505
10853TIP3   OH253973   2.342   0.248   3.051  0.1211 -0.2693 -0.2656
10853TIP3    H153974   2.403   0.319   3.073  0.9553 -1.6562  2.4261
10853TIP3    H253975   2.273   0.256   3.117 -1.1071 -0.5109 -1.4792
10854TIP3   OH253976   1.825   4.933   4.233  0.0355  0.0522 -0.2026
10854TIP3    H153977   1.762   4.948   4.303  1.3304  1.2162  0.7774
10854TIP3    H253978   1.833   4.838   4.227 -0.2947 -0.0699  1.0700
10855TIP3   OH253979   5.946   6.693   0.085  0.2103 -0.5828 -0.0353
10855TIP3    H153980   6.037   6.713   0.108  0.2811 -1.8415  0.9025
10855TIP3    H253981   5.913   6.643   0.160 -0.8830 -1.1958 -0.8986
10856TIP3   OH253982   0.781   4.941   1.668 -0.1131 -0.7151  0.5537
10856TIP3    H153983   0.780   4.959   1.762 -1.0218 -2.4109  0.8920
10856TIP3    H253984   0.847   4.872   1.657  0.9255  0.3413 -0.2697
10857TIP3   OH253985   2.140   3.185  16.403 -0.0134 -1.0064 -0.1448
10857TIP3    H153986   2.201   3.112  16.414 -1.4338 -2.2353 -0.1147
10857TIP3    H253987   2.173   3.231  16.325  0.2001 -2.4286 -0.9370
10858TIP3   OH253988   1.861   6.533  12.212 -0.2087  0.6473  0.1115
10858TIP3    H153989   1.893   6.560  12.126 -0.9057  0.6422 -0.1590
10858TIP3    H253990   1.788   6.474  12.193  0.4573 -0.3785  0.7073
10859TIP3   OH253991   4.724   2.870  11.502 -0.5087 -0.2783  0.1512
10859TIP3    H153992   4.642   2.840  11.464 -1.0089  1.3043 -0.1116
10859TIP3    H253993   4.785   2.873  11.428  0.0772 -2.2321  0.4862
10860TIP3   OH253994   6.447   4.963   4.037  0.2298 -0.6037 -0.2879
10860TIP3    H153995   6.472   5.053   4.058  2.3206 -0.7475 -1.8112
10860TIP3    H253996   6.375   4.943   4.097  1.3768  1.2009  1.8473
10861TIP3   OH253997   1.576   1.811  12.814 -0.9073 -0.5618  0.1182
10861TIP3    H153998   1.596   1.894  12.857  2.1559 -1.1443  0.0823
10861TIP3    H253999   1.560   1.834  12.723 -1.1903  0.0873  0.3270
10862TIP3   OH254000   4.710   6.583  12.403  0.2094 -0.3447 -0.5450
10862TIP3    H154001   4.697   6.599  12.309 -0.0173  0.2596 -0.4164
10862TIP3    H254002   4.725   6.670  12.440  1.1629 -0.6708 -0.1484
10863TIP3   OH254003   1.290   4.874  16.000 -0.0432  0.0181 -0.8793
10863TIP3    H154004   1.356   4.941  16.020 -0.6261  0.5560 -0.6998
10863TIP3    H254005   1.218   4.894  16.060 -0.1466 -0.8993 -0.6911
10864TIP3   OH254006   1.383   0.971   2.289  0.7303  0.4923  0.3201
10864TIP3    H154007   1.405   1.026   2.364  0.4601 -0.3700  1.0465
10864TIP3    H254008   1.322   1.023   2.237  2.3981  1.8726 -0.3376
10865TIP3   OH254009   5.491   4.731   2.445  0.7038 -0.0520 -0.0758
10865TIP3    H154010   5.533   4.653   2.409  2.8043  0.8483  0.2761
10865TIP3    H254011   5.506   4.799   2.380  0.4212  0.4775  0.4030
10866TIP3   OH254012   5.942   4.491  13.574  0.1279  0.0903 -0.2507
10866TIP3    H154013   6.006   4.428  13.608 -0.3908 -0.7316 -0.7586
10866TIP3    H254014   5.901   4.445  13.501 -0.8366  0.7152 -0.1084
10867TIP3   OH254015   2.346   0.655  16.707 -0.3616 -0.1139  0.2153
10867TIP3    H154016   2.337   0.645  16.613 -1.5871  2.5453 -0.0599
10867TIP3    H254017   2.318   0.571  16.744  1.6765 -1.7783 -1.7519
10868TIP3   OH254018   4.147   3.348   2.346  0.6732 -0.3868 -0.1622
10868TIP3    H154019   4.176   3.369   2.435 -0.7304 -0.5126  0.3560
10868TIP3    H254020   4.178   3.258   2.332  1.2798 -0.2128  0.0245
10869TIP3   OH254021   5.718   1.553  11.606  0.1836  0.1832 -0.0601
10869TIP3    H154022   5.735   1.605  11.685  0.4677  1.2596 -0.8093
10869TIP3    H254023   5.681   1.615  11.544 -0.3283 -0.7236 -0.6764
10870TIP3   OH254024   3.083   1.822   2.506 -0.7164 -0.4130 -0.2309
10870TIP3    H154025   3.101   1.870   2.587  2.9599  1.1779 -1.7293
10870TIP3    H254026   3.047   1.887   2.447  0.3676 -0.5050 -1.0246
10871TIP3   OH254027   2.188   5.755   6.163  0.8828 -0.1937 -0.7168
10871TIP3    H154028   2.138   5.734   6.243  1.4463 -0.6516 -0.4818
10871TIP3    H254029   2.184   5.675   6.111 -1.3520  0.7616 -2.1835
10872TIP3   OH254030   3.919   0.903   1.206  0.1677  0.3585 -0.1383
10872TIP3    H154031   3.858   0.830   1.208 -0.0909  0.5469 -0.7261
10872TIP3    H254032   3.895   0.952   1.127 -2.2574  3.2927  2.1567
10873TIP3   OH254033   1.300   6.034  12.237 -0.1858 -0.5190 -0.3992
10873TIP3    H154034   1.363   6.069  12.174  0.7496 -1.1524  0.1472
10873TIP3    H254035   1.238   6.106  12.252 -0.0570 -0.1498 -1.5455
10874TIP3   OH254036   3.713   4.579  15.432 -0.3155  0.1911  0.1165
10874TIP3    H154037   3.691   4.619  15.347 -0.2126 -0.5286 -0.2619
10874TIP3    H254038   3.709   4.485  15.415 -0.3607  0.0399  0.9359
10875TIP3   OH254039   4.993   5.671  14.969 -0.4425 -0.6119 -0.4321
10875TIP3    H154040   5.080   5.676  15.010 -1.0147  0.7810  0.6961
10875TIP3    H254041   4.938   5.727  15.023 -1.6033  0.1066 -2.2657
10876TIP3   OH254042   0.628   2.772  16.490 -0.4051 -0.4975 -0.2545
10876TIP3    H154043   0.565   2.721  16.440  0.6125 -0.9439 -1.1311
10876TIP3    H254044   0.714   2.743  16.458  0.2598 -0.0554  1.0301
10877TIP3   OH254045   0.094   4.354  13.509  0.1596  0.5492  0.1840
10877TIP3    H154046   0.147   4.415  13.561  0.3948  0.6588 -0.1734
10877TIP3    H254047   0.034   4.315  13.571  1.9835 -1.1028  1.0210
10878TIP3   OH254048   1.121   6.270   4.025 -0.2577 -0.1982  0.1835
10878TIP3    H154049   1.050   6.326   4.054 -0.3297 -0.5382  0.6775
10878TIP3    H254050   1.159   6.234   4.106  0.4707 -0.0244 -0.0679
10879TIP3   OH254051   3.961   3.225   2.519  0.4923  0.2245  0.0105
10879TIP3    H154052   3.928   3.185   2.438  0.7878  1.0269 -0.5213
10879TIP3    H254053   4.020   3.295   2.489 -0.3725  1.3768  0.8918
10880TIP3   OH254054   3.397   0.313   3.705 -0.4837  0.3050 -0.5890
10880TIP3    H154055   3.469   0.363   3.666  0.6986 -0.4556  0.5340
10880TIP3    H254056   3.354   0.375   3.764  1.1968 -0.0072  1.0692
10881TIP3   OH254057   3.307   0.737   3.539 -0.8754  0.4178  0.2943
10881TIP3    H154058   3.299   0.780   3.454 -1.2545  0.2874  0.2638
10881TIP3    H254059   3.338   0.807   3.598  1.6207 -0.0015 -0.3919
10882TIP3   OH254060   4.821   2.362  12.437  0.0433  0.4235  0.3018
10882TIP3    H154061   4.883   2.374  12.510 -0.6537 -1.3214  1.2405
10882TIP3    H254062   4.869   2.310  12.373  1.0248  2.8526 -1.0469
10883TIP3   OH254063   4.616   3.405  12.988 -0.4906 -0.4352  0.5116
10883TIP3    H154064   4.661   3.485  12.960 -0.3950 -0.6868 -0.0613
10883TIP3    H254065   4.663   3.334  12.943 -1.2428 -0.7283  0.1738
10884TIP3   OH254066   0.070   6.486   4.065 -0.1956  0.1839 -0.0673
10884TIP3    H154067   0.145   6.454   4.014  1.2540  1.5022  1.1404
10884TIP3    H254068   0.030   6.406   4.100  1.0544 -0.5349 -0.1812
10885TIP3   OH254069   5.090   6.067   4.972  0.4216  0.4699 -0.3256
10885TIP3    H154070   5.141   5.986   4.977 -1.2986 -0.6155  1.1074
10885TIP3    H254071   5.021   6.048   4.909 -1.7440 -0.3716  2.1061
10886TIP3   OH254072   2.248   1.088   3.249 -0.0721  0.0169  0.5080
10886TIP3    H154073   2.184   1.071   3.317 -1.1520 -0.7771 -0.6594
10886TIP3    H254074   2.292   1.004   3.234  1.0376  0.4741  1.0658
10887TIP3   OH254075   2.819   1.259   5.684  0.8274  0.1799 -0.3264
10887TIP3    H154076   2.815   1.175   5.640  0.1829  0.6583 -1.2044
10887TIP3    H254077   2.846   1.238   5.773 -0.5489 -1.0953 -0.1648
10888TIP3   OH254078   2.636   1.811  13.347  0.4988  0.4198 -0.1330
10888TIP3    H154079   2.689   1.890  13.359  2.7194 -1.0901  0.6090
10888TIP3    H254080   2.694   1.749  13.305 -1.9550 -0.1161 -3.0720
10889TIP3   OH254081   6.388   3.445   3.114  0.4439 -0.5827  0.2411
10889TIP3    H154082   6.480   3.468   3.129  0.6274 -1.6799  0.8537
10889TIP3    H254083   6.388   3.350   3.105 -0.6213 -0.5797  0.1376
10890TIP3   OH254084   5.677   2.725  14.013 -0.7886 -0.3075 -0.2635
10890TIP3    H154085   5.690   2.793  13.947 -0.7139  0.7368  0.8201
10890TIP3    H254086   5.763   2.710  14.051 -1.1567  0.4751  0.9246
10891TIP3   OH254087   5.367   5.866   0.923 -0.2281  0.6553 -0.2999
10891TIP3    H154088   5.348   5.809   0.848  2.1670 -0.2785 -0.2995
10891TIP3    H254089   5.404   5.807   0.989  0.1051  1.8529  0.6134
10892TIP3   OH254090   2.755   1.209   5.337 -0.0669 -0.2168  0.2185
10892TIP3    H154091   2.735   1.218   5.244  0.4055 -1.2455 -0.0036
10892TIP3    H254092   2.757   1.114   5.351  0.1990 -0.0714  1.2000
10893TIP3   OH254093   2.686   0.828  14.912 -0.2517  0.0313  0.4160
10893TIP3    H154094   2.746   0.875  14.970 -2.5476  4.2817 -0.2610
10893TIP3    H254095   2.599   0.844  14.949 -1.4143 -1.5939 -1.4093
10894TIP3   OH254096   4.046   0.266   4.882  0.5366 -0.0231  0.6701
10894TIP3    H154097   4.125   0.243   4.930  0.3415 -2.0551  0.1279
10894TIP3    H254098   4.007   0.181   4.858 -0.1457  0.8949 -1.7642
10895TIP3   OH254099   6.658   1.955   5.476  0.0723  0.0359  0.0315
10895TIP3    H154100   6.663   1.860   5.486 -0.3477 -0.0471 -0.5005
10895TIP3    H254101   6.728   1.988   5.531  0.2416 -0.5856  0.2025
10896TIP3   OH254102   0.930   1.364   4.372  0.4045 -0.2468 -0.8172
10896TIP3    H154103   1.023   1.366   4.395  0.0898 -1.9965  0.8139
10896TIP3    H254104   0.885   1.401   4.448 -0.3197 -0.6293 -1.0430
10897TIP3   OH254105   3.032   1.741   3.695 -0.2296  0.1539  0.1352
10897TIP3    H154106   3.098   1.674   3.675  0.5616  0.9378  0.0532
10897TIP3    H254107   3.057   1.815   3.640  1.2723  1.9578  2.9783
10898TIP3   OH254108   1.375   5.570   4.800  0.1229 -0.0885  0.0819
10898TIP3    H154109   1.347   5.651   4.841  1.4463  0.8089 -0.7026
10898TIP3    H254110   1.425   5.524   4.868  2.3399  1.4095 -0.4187
10899TIP3   OH254111   2.351   0.066  17.109 -0.2541 -0.3214  0.1977
10899TIP3    H154112   2.425   0.013  17.138 -0.0615 -0.0688  0.1676
10899TIP3    H254113   2.279   0.003  17.099 -0.1214 -0.5250  0.4965
10900TIP3   OH254114   5.161   2.758   3.450 -0.0804  0.1276 -0.2211
10900TIP3    H154115   5.087   2.773   3.391 -0.4103  0.2176  0.2089
10900TIP3    H254116   5.197   2.846   3.466  1.6999 -0.1197 -2.4123
10901TIP3   OH254117   3.644   2.615   5.653 -0.1555 -0.1748 -0.2326
10901TIP3    H154118   3.588   2.559   5.707 -0.1993  0.9400  0.9140
10901TIP3    H254119   3.685   2.675   5.715 -2.8772  3.5228 -1.6298
10902TIP3   OH254120   6.595   1.675   2.228  0.2262 -0.0850  0.2533
10902TIP3    H154121   6.548   1.747   2.186 -1.8470 -0.9061  1.0389
10902TIP3    H254122   6.569   1.679   2.320  1.6796 -0.6318  0.7170
10903TIP3   OH254123   3.044   4.827  15.050  1.0204 -0.6555  0.2391
10903TIP3    H154124   2.958   4.853  15.084  0.3049 -0.4457 -1.6034
10903TIP3    H254125   3.029   4.742  15.009  2.1119 -1.4263  1.3640
10904TIP3   OH254126   4.767   0.139   5.751 -1.2063  0.0767  0.2473
10904TIP3    H154127   4.759   0.142   5.846  0.7666  0.0076  0.4615
10904TIP3    H254128   4.733   0.052   5.727 -0.4641 -0.4561  1.0558
10905TIP3   OH254129   2.479   4.409   0.297 -0.2985 -0.3906 -0.5594
10905TIP3    H154130   2.455   4.450   0.380 -1.8330 -0.1339 -1.0904
10905TIP3    H254131   2.575   4.408   0.297 -0.2491  1.2373  0.4037
10906TIP3   OH254132   1.143   6.239  14.046 -0.6620  0.5544  0.1315
10906TIP3    H154133   1.107   6.176  13.984 -1.1181  1.9108 -1.0392
10906TIP3    H254134   1.128   6.324  14.005  0.7335  1.3840  1.2407
10907TIP3   OH254135   5.442   4.290   0.349  0.5121  0.5708 -0.4705
10907TIP3    H154136   5.437   4.386   0.343 -0.7327  0.4493 -2.3476
10907TIP3    H254137   5.501   4.265   0.278  1.2937 -0.0390  0.3831
10908TIP3   OH254138   0.494   1.707  14.629 -0.9981 -0.3266  0.0405
10908TIP3    H154139   0.480   1.796  14.598 -0.2524 -0.7947 -1.7909
10908TIP3    H254140   0.518   1.717  14.721 -1.0402  1.3405 -0.0951
10909TIP3   OH254141   4.649   6.559  14.657  0.7265 -0.5252  0.5423
10909TIP3    H154142   4.701   6.632  14.691  0.2250  0.0151  0.1469
10909TIP3    H254143   4.706   6.518  14.591  0.2331  0.7636 -0.7201
10910TIP3   OH254144   6.063   4.868  11.040  0.2479  0.1813 -0.9267
10910TIP3    H154145   6.127   4.807  11.004  0.4902  0.3829 -0.8434
10910TIP3    H254146   6.005   4.888  10.967 -0.5222 -1.0192 -0.6805
10911TIP3   OH254147   3.987   3.097   3.281 -0.2655  0.3758  0.4744
10911TIP3    H154148   3.972   3.023   3.222  2.4400  1.0697 -1.2763
10911TIP3    H254149   3.928   3.165   3.249 -3.2142 -1.0672  2.4715
10912TIP3   OH254150   4.800   0.438  13.348  0.2799  0.4980 -0.5147
10912TIP3    H154151   4.725   0.419  13.293  0.5102 -0.3945 -0.5349
10912TIP3    H254152   4.866   0.374  13.322  1.1658  1.4467 -0.7129
10913TIP3   OH254153   6.504   6.227   3.947  0.0232  0.3175 -0.5918
10913TIP3    H154154   6.474   6.219   4.038 -0.0319 -0.0623 -0.6419
10913TIP3    H254155   6.494   6.320   3.927 -1.6446  0.1409 -0.7819
10914TIP3   OH254156   6.091   1.562  11.352 -0.0268 -0.0310 -0.2983
10914TIP3    H154157   6.175   1.576  11.307  0.5434  0.5915  0.9061
10914TIP3    H254158   6.114   1.556  11.445 -1.1079 -1.8780 -0.0999
10915TIP3   OH254159   3.924   1.355  12.285 -0.5426  0.0729  0.0208
10915TIP3    H154160   3.832   1.327  12.280 -0.3712 -0.3134 -1.8959
10915TIP3    H254161   3.966   1.291  12.342 -1.1342 -0.7848 -0.4774
10916TIP3   OH254162   5.768   2.753   4.633  0.0782 -0.1758  0.0522
10916TIP3    H154163   5.713   2.820   4.590 -0.7978 -0.0972  1.2408
10916TIP3    H254164   5.758   2.675   4.578  2.1135  0.9257 -2.0903
10917TIP3   OH254165   4.130   2.156   6.086 -0.2398 -0.4033 -0.3711
10917TIP3    H154166   4.201   2.096   6.066  2.2112  1.6569  1.4200
10917TIP3    H254167   4.138   2.225   6.020 -0.0744  0.2160  0.2893
10918TIP3   OH254168   6.744   5.454  12.900  0.1388 -0.1002  0.3409
10918TIP3    H154169   6.793   5.403  12.835 -0.6692  1.6569 -1.7712
10918TIP3    H254170   6.779   5.426  12.984 -0.2321 -4.0465 -0.6471
10919TIP3   OH254171   4.240   4.704  16.818 -0.1585 -0.0503 -0.0088
10919TIP3    H154172   4.205   4.793  16.822  0.2957  0.0999  0.8211
10919TIP3    H254173   4.218   4.674  16.729 -0.5956  0.7652 -0.1912
10920TIP3   OH254174   5.433   0.736   3.564  0.3982  0.1485 -0.4520
10920TIP3    H154175   5.517   0.689   3.566  0.9043  1.0429  0.6611
10920TIP3    H254176   5.443   0.805   3.630 -0.7795  1.0246 -1.1499
10921TIP3   OH254177   4.077   4.321  16.070 -0.1115 -0.1707  0.5418
10921TIP3    H154178   4.030   4.240  16.053  0.3406 -0.3514  0.1265
10921TIP3    H254179   4.049   4.348  16.157 -0.1437 -0.8571  0.7462
10922TIP3   OH254180   0.663   6.497  11.612  0.1835  0.1118 -0.1543
10922TIP3    H154181   0.701   6.584  11.599  0.3541  0.0065 -0.3647
10922TIP3    H254182   0.682   6.450  11.531 -0.2966  0.0179 -0.2161
10923TIP3   OH254183   6.144   6.632   0.440  0.1249  0.1947  0.1147
10923TIP3    H154184   6.165   6.625   0.347 -4.1627  2.4269 -1.2884
10923TIP3    H254185   6.103   6.549   0.463  1.0413 -0.2976 -0.0031
10924TIP3   OH254186   4.647   4.723   6.105  0.3506  0.0918  0.2046
10924TIP3    H154187   4.625   4.766   6.188  1.4292  1.2806 -0.0983
10924TIP3    H254188   4.708   4.783   6.063  1.9877 -1.7994 -0.2230
10925TIP3   OH254189   0.123   6.280   1.191 -0.0976 -0.3302 -0.6711
10925TIP3    H154190   0.119   6.184   1.193  0.1589 -0.3386  0.8182
10925TIP3    H254191   0.209   6.299   1.153  0.7643 -0.7626  0.9518
10926TIP3   OH254192   3.782   1.058   1.449 -0.6794 -0.5417  0.2870
10926TIP3    H154193   3.766   1.150   1.424 -0.0513 -0.3601  0.5473
10926TIP3    H254194   3.836   1.024   1.378 -0.9452 -0.7199  0.1722
10927TIP3   OH254195   4.367   0.579   1.182 -0.2839  0.7518  0.4727
10927TIP3    H154196   4.411   0.505   1.224  0.8425  1.9932  1.5905
10927TIP3    H254197   4.356   0.643   1.253 -1.8200  1.4220 -0.3133
10928TIP3   OH254198   4.386   1.823   3.625 -0.0918  0.1459 -0.1413
10928TIP3    H154199   4.392   1.850   3.534 -0.2620 -0.9441 -0.4877
10928TIP3    H254200   4.448   1.880   3.671 -1.9514  2.5906 -0.4667
10929TIP3   OH254201   4.740   1.695   4.089 -0.1758 -0.1307  0.1148
10929TIP3    H154202   4.749   1.722   4.180 -0.5084 -0.1161  0.1438
10929TIP3    H254203   4.771   1.604   4.088 -1.2981 -0.5346  0.4790
10930TIP3   OH254204   6.534   5.069  11.165 -0.0500 -0.6748 -0.1164
10930TIP3    H154205   6.584   5.057  11.084  2.3738 -1.2234  1.3402
10930TIP3    H254206   6.449   5.029  11.148  0.9377 -2.1226 -1.9085
10931TIP3   OH254207   1.452   0.577  14.199 -0.0601  0.5505 -0.0976
10931TIP3    H154208   1.523   0.527  14.159 -0.4852 -0.3851  0.2898
10931TIP3    H254209   1.490   0.664  14.213  0.9789  0.1025  0.0180
10932TIP3   OH254210   0.824   3.459   6.419  0.2227 -0.1994  0.0144
10932TIP3    H154211   0.904   3.428   6.376 -0.7266  0.3870 -2.3354
10932TIP3    H254212   0.841   3.551   6.438  0.9423 -0.6553  1.7344
10933TIP3   OH254213   0.398   2.254   2.277  0.5510  0.0766 -0.6318
10933TIP3    H154214   0.326   2.275   2.336 -0.3247  0.3935 -1.7891
10933TIP3    H254215   0.429   2.168   2.307  0.7396  0.6275  0.8422
10934TIP3   OH254216   4.520   3.904  11.227 -0.1131  0.3246 -0.2649
10934TIP3    H154217   4.598   3.944  11.267  0.3874 -0.4730 -0.4365
10934TIP3    H254218   4.527   3.926  11.134 -0.4910  0.8801 -0.1724
10935TIP3   OH254219   1.586   1.431  14.912 -0.2219  0.1381  0.0264
10935TIP3    H154220   1.567   1.345  14.950  0.8987 -0.0271  0.2562
10935TIP3    H254221   1.677   1.424  14.882 -0.0233  1.3424  0.3187
10936TIP3   OH254222   4.934   2.778  16.570 -0.1621  0.1617  0.5542
10936TIP3    H154223   4.909   2.859  16.614 -1.4715  0.6836 -1.0480
10936TIP3    H254224   4.893   2.709  16.622 -1.8466  0.7714  0.0845
10937TIP3   OH254225   6.248   5.677   0.218 -0.2067  0.3869 -0.0970
10937TIP3    H154226   6.213   5.603   0.170  0.9082 -0.0061 -0.3249
10937TIP3    H254227   6.343   5.672   0.206 -0.1734  2.6282 -1.2768
10938TIP3   OH254228   5.606   1.098   3.477  0.0902 -0.2185 -0.0132
10938TIP3    H154229   5.666   1.024   3.472  0.5080  0.0905  0.4034
10938TIP3    H254230   5.546   1.076   3.548 -0.4887 -0.6645 -0.6245
10939TIP3   OH254231   1.238   5.349   6.091 -0.2417  0.2605 -1.2578
10939TIP3    H154232   1.181   5.422   6.115  0.1201 -0.1646  1.2167
10939TIP3    H254233   1.299   5.342   6.165  0.6716 -1.6099 -2.1319
10940TIP3   OH254234   1.467   1.497  16.310  0.0657 -0.4686 -0.4790
10940TIP3    H154235   1.457   1.473  16.217  1.0272 -0.2275 -0.6563
10940TIP3    H254236   1.484   1.591  16.309  1.4979 -0.7048 -0.1777
10941TIP3   OH254237   0.480   6.448  14.004  0.4403 -0.2137  0.3070
10941TIP3    H154238   0.450   6.391  14.076 -1.4817 -2.4405 -2.0745
10941TIP3    H254239   0.551   6.499  14.043  0.2364 -2.0515  3.4873
10942TIP3   OH254240   6.314   6.335  16.500  0.3972 -0.0536  0.1891
10942TIP3    H154241   6.336   6.359  16.410 -0.9225  0.0173 -0.1433
10942TIP3    H254242   6.342   6.410  16.553 -0.7798  0.8613 -0.4459
10943TIP3   OH254243   2.144   2.281  15.866 -0.0212 -0.2944  0.7468
10943TIP3    H154244   2.160   2.361  15.816  1.8843 -0.9247  0.2714
10943TIP3    H254245   2.089   2.228  15.808  0.2648 -0.0852  0.2787
10944TIP3   OH254246   2.722   0.907   2.869 -0.1849 -0.6082 -1.2391
10944TIP3    H154247   2.747   0.824   2.909  1.1981  0.5425  0.4253
10944TIP3    H254248   2.748   0.898   2.777 -2.1458 -2.7979 -1.6805
10945TIP3   OH254249   1.433   4.663  12.885  0.1624 -0.1232  0.3352
10945TIP3    H154250   1.398   4.575  12.871  0.9443 -0.4874  0.6169
10945TIP3    H254251   1.363   4.722  12.857 -1.5502 -0.8047  2.9354
10946TIP3   OH254252   1.525   1.198   5.636 -0.1098 -0.1981  0.0283
10946TIP3    H154253   1.469   1.270   5.665  1.0239  0.9452 -0.5287
10946TIP3    H254254   1.538   1.214   5.542 -0.7013 -1.7442 -0.3562
10947TIP3   OH254255   0.151   6.344  11.972  0.0217  0.5990 -0.3022
10947TIP3    H154256   0.193   6.430  11.979  1.1057  0.1814 -1.2398
10947TIP3    H254257   0.213   6.292  11.921 -1.9624  0.1427 -2.4076
10948TIP3   OH254258   4.826   2.070   1.256 -0.1932  0.0700 -0.2692
10948TIP3    H154259   4.858   2.088   1.168  3.5128 -0.9552  0.7131
10948TIP3    H254260   4.885   2.118   1.314 -0.8425 -1.4112  1.7396
10949TIP3   OH254261   1.704   5.389  13.360  0.4810  0.1629 -0.6147
10949TIP3    H154262   1.715   5.480  13.335  1.0835 -0.0907 -1.3009
10949TIP3    H254263   1.657   5.349  13.287 -0.4164  0.0766  0.0007
10950TIP3   OH254264   6.534   6.240   3.024  0.5482  0.3231  0.2245
10950TIP3    H154265   6.587   6.315   3.000  1.7758 -0.7671 -0.6142
10950TIP3    H254266   6.498   6.208   2.941  0.0290 -0.0131  0.5694
10951TIP3   OH254267   4.026   5.956  12.534  0.1747  0.5468  0.1145
10951TIP3    H154268   3.956   5.921  12.590 -0.2247  1.1982  0.0411
10951TIP3    H254269   4.106   5.916  12.567 -0.2883 -0.6194 -0.1289
10952TIP3   OH254270   1.396   3.533   5.919  0.9372 -0.3302  0.0320
10952TIP3    H154271   1.313   3.486   5.923  1.2326 -0.7682  2.2650
10952TIP3    H254272   1.458   3.469   5.885  0.4413 -0.0509 -1.4844
10953TIP3   OH254273   0.286   1.682   5.536 -0.0175 -0.0979 -0.2390
10953TIP3    H154274   0.334   1.610   5.576  1.3122  0.4009 -0.8929
10953TIP3    H254275   0.342   1.759   5.548 -0.2975  0.3599 -1.6591
10954TIP3   OH254276   5.417   6.563  13.658 -0.6192 -0.0285  0.3064
10954TIP3    H154277   5.371   6.629  13.709 -0.1801 -0.6897  1.6202
10954TIP3    H254278   5.509   6.588  13.663 -0.7362  1.0370 -1.9287
10955TIP3   OH254279   1.812   0.390  11.652 -0.1506  0.0447 -0.3270
10955TIP3    H154280   1.780   0.466  11.604 -0.5920  0.2056  0.2074
10955TIP3    H254281   1.838   0.426  11.737  2.3167  0.0917 -1.0188
10956TIP3   OH254282   4.718   1.332   2.151 -0.0794 -0.0595 -0.4393
10956TIP3    H154283   4.710   1.304   2.059  0.7234 -1.3426 -0.1311
10956TIP3    H254284   4.645   1.288   2.195  0.4934 -0.7363 -0.1667
10957TIP3   OH254285   0.189   2.344   3.094 -0.5689  0.5096  0.5566
10957TIP3    H154286   0.257   2.310   3.153 -0.0490  0.8667  0.1670
10957TIP3    H254287   0.210   2.307   3.009 -2.3552 -1.4683  0.9001
10958TIP3   OH254288   2.718   3.251  13.278  0.3515 -0.2179  0.2225
10958TIP3    H154289   2.652   3.311  13.312 -0.2183 -0.3192 -0.6773
10958TIP3    H254290   2.686   3.164  13.301  1.1661 -0.2103  1.5070
10959TIP3   OH254291   4.862   5.738   0.922 -0.6719 -0.5831  0.4941
10959TIP3    H154292   4.776   5.697   0.912 -0.4403 -1.3047  1.3664
10959TIP3    H254293   4.913   5.706   0.847 -1.3632  0.4399 -0.4523
10960TIP3   OH254294   1.070   6.571   1.178  0.6460  0.4470 -0.2243
10960TIP3    H154295   0.987   6.560   1.223 -0.3745  0.0552 -2.1028
10960TIP3    H254296   1.136   6.566   1.247 -0.8107 -0.5599  1.1518
10961TIP3   OH254297   2.986   1.036   3.093  0.1230 -0.4800 -0.6197
10961TIP3    H154298   2.979   1.113   3.036  1.5148 -0.7731 -1.2334
10961TIP3    H254299   2.963   1.068   3.180  0.2780  0.5339 -0.9382
10962TIP3   OH254300   4.969   6.142   1.895 -0.6636  0.1472  0.0067
10962TIP3    H154301   4.926   6.062   1.866 -1.8636  0.5500  0.5955
10962TIP3    H254302   4.991   6.126   1.987  3.0570 -1.1006 -0.9176
10963TIP3   OH254303   4.374   4.390  15.564 -0.1409 -0.1316  0.2743
10963TIP3    H154304   4.301   4.334  15.591 -0.3528 -0.7252 -1.4539
10963TIP3    H254305   4.406   4.351  15.483  1.4447  0.7257  0.4531
10964TIP3   OH254306   5.222   3.326   2.648 -0.4118 -0.2532  0.7027
10964TIP3    H154307   5.198   3.400   2.592 -1.0155  0.1023  1.4294
10964TIP3    H254308   5.187   3.347   2.734  1.0569 -0.4985  1.3972
10965TIP3   OH254309   3.253   3.281   2.142 -0.0264 -0.2823 -0.1224
10965TIP3    H154310   3.185   3.348   2.135 -0.8166 -0.5756  3.0530
10965TIP3    H254311   3.274   3.279   2.236  3.1911 -1.3999 -0.7494
10966TIP3   OH254312   6.389   1.358   4.012 -0.2328  0.1312 -0.0554
10966TIP3    H154313   6.385   1.302   4.089 -1.4955  0.1888 -0.0479
10966TIP3    H254314   6.455   1.424   4.033  2.1653 -1.9658 -0.5336
10967TIP3   OH254315   3.093   3.790   0.326  0.1865  0.2987 -0.1937
10967TIP3    H154316   3.062   3.881   0.333  1.8768  0.7373  4.2986
10967TIP3    H254317   3.012   3.739   0.316 -0.8859  2.1174 -1.6600
10968TIP3   OH254318   3.148   2.015  17.285 -0.0081  0.1232 -0.4410
10968TIP3    H154319   3.079   2.074  17.314  1.0858  0.1982  2.3188
10968TIP3    H254320   3.109   1.928  17.293  0.2083  0.1533  1.2670
10969TIP3   OH254321   2.987   3.593   3.176  0.6006 -0.3369  0.4909
10969TIP3    H154322   3.062   3.616   3.120 -0.8284 -1.7009 -2.1936
10969TIP3    H254323   2.921   3.660   3.157  0.0767 -0.8468  0.4789
10970TIP3   OH254324   1.398   1.278  16.519  0.0335 -0.0413  0.2940
10970TIP3    H154325   1.430   1.252  16.432  0.5988  0.5102  0.3258
10970TIP3    H254326   1.357   1.363  16.504  0.3307  0.1566  0.6058
10971TIP3   OH254327   6.579   3.458   2.578  0.1947  0.3436 -0.5950
10971TIP3    H154328   6.489   3.490   2.581 -0.7013 -1.8280 -1.9550
10971TIP3    H254329   6.616   3.496   2.499  0.8700  2.0459  0.4828
10972TIP3   OH254330   0.293   5.100  16.543 -0.1441  0.2984  0.1519
10972TIP3    H154331   0.288   5.121  16.636 -0.4754  0.9132  0.0004
10972TIP3    H254332   0.236   5.163  16.501  1.0608  0.9265 -0.6054
10973TIP3   OH254333   2.456   2.208  12.207 -0.2934 -0.4165  0.0122
10973TIP3    H154334   2.528   2.268  12.188  0.5307 -2.0269 -2.4020
10973TIP3    H254335   2.378   2.251  12.172 -0.3423  0.7341  1.4379
10974TIP3   OH254336   2.375   1.627  16.313 -0.1127  0.2788  0.0721
10974TIP3    H154337   2.362   1.607  16.405  1.0636 -0.8381  0.0125
10974TIP3    H254338   2.332   1.712  16.301  1.3334  1.3803  2.0694
10975TIP3   OH254339   5.015   4.246   1.074 -0.5498  0.1266  0.8584
10975TIP3    H154340   5.095   4.296   1.060 -0.0771  0.4743  4.0163
10975TIP3    H254341   4.954   4.308   1.114 -1.5154 -0.7457  0.8058
10976TIP3   OH254342   0.758   1.530   0.555  0.0150 -0.5270 -0.4251
10976TIP3    H154343   0.853   1.538   0.545 -0.0996 -1.8818 -3.6146
10976TIP3    H254344   0.743   1.439   0.579 -0.5442 -0.5005 -0.6537
10977TIP3   OH254345   6.570   0.506  16.667 -0.2342  0.1519  0.0279
10977TIP3    H154346   6.647   0.481  16.717 -0.6064  0.4229  0.7511
10977TIP3    H254347   6.597   0.498  16.576  0.0893 -1.5336  0.2352
10978TIP3   OH254348   6.265   4.600  14.064  0.0834  0.0521 -0.2614
10978TIP3    H154349   6.214   4.575  14.141 -0.6032  1.1206 -0.3500
10978TIP3    H254350   6.214   4.566  13.990  1.1056 -1.6110 -0.2493
10979TIP3   OH254351   4.531   5.844  12.118  0.2975 -0.1162 -0.3272
10979TIP3    H154352   4.625   5.849  12.136  0.5551 -2.5517 -0.6559
10979TIP3    H254353   4.523   5.868  12.025  0.6432 -0.2630 -0.3965
10980TIP3   OH254354   6.501   5.959   3.180 -0.7610  0.1444  0.0227
10980TIP3    H154355   6.578   5.936   3.232 -0.4754  0.2420 -0.3513
10980TIP3    H254356   6.463   6.034   3.226 -1.1116 -0.4205  0.6717
10981TIP3   OH254357   5.635   5.090  14.119  0.0250 -0.3463  0.7242
10981TIP3    H154358   5.568   5.052  14.175  0.4172 -1.6518  0.3422
10981TIP3    H254359   5.716   5.047  14.146  0.2438 -0.9154 -0.7226
10982TIP3   OH254360   4.475   6.294  11.189  0.2574  0.0421 -0.0622
10982TIP3    H154361   4.560   6.287  11.231  0.5125 -2.0155 -0.8261
10982TIP3    H254362   4.483   6.370  11.131  1.6815 -0.3539 -0.4080
10983TIP3   OH254363   3.705   0.529   0.701 -0.5396 -0.2299 -0.2038
10983TIP3    H154364   3.632   0.541   0.639  0.3805 -0.9030 -1.4591
10983TIP3    H254365   3.766   0.472   0.655  0.4211 -0.3355  1.1520
10984TIP3   OH254366   3.023   3.208  13.550  0.3315  0.1400  0.4107
10984TIP3    H154367   3.033   3.298  13.583  1.5653  0.3223 -0.3899
10984TIP3    H254368   3.089   3.158  13.599 -0.9434 -0.5427  1.4966
10985TIP3   OH254369   6.492   4.437   4.718  0.0102  0.9510  0.0377
10985TIP3    H154370   6.518   4.515   4.767 -0.7425  0.5449  1.1337
10985TIP3    H254371   6.536   4.365   4.762  1.9956  0.8610 -1.9447
10986TIP3   OH254372   4.380   5.000   2.161 -0.4182  0.4294  0.4247
10986TIP3    H154373   4.314   4.959   2.217 -1.7591  3.6394  1.4139
10986TIP3    H254374   4.349   4.983   2.072 -0.4775 -1.2381  0.7204
10987TIP3   OH254375   0.680   3.879   3.906 -0.6543 -0.3727  0.2516
10987TIP3    H154376   0.606   3.857   3.849 -0.0574 -1.3356 -0.1719
10987TIP3    H254377   0.743   3.922   3.848 -0.4958 -0.3907  0.4100
10988TIP3   OH254378   3.949   5.526  11.700  0.0331  0.4520  0.3344
10988TIP3    H154379   3.993   5.446  11.672  0.8357  1.3314 -1.1120
10988TIP3    H254380   4.016   5.594  11.689 -1.2249  1.6165 -0.5177
10989TIP3   OH254381   4.329   5.805  14.877  0.0024 -0.4022  0.3784
10989TIP3    H154382   4.358   5.806  14.786  2.7820  0.6545  1.1598
10989TIP3    H254383   4.305   5.714  14.894  0.3745 -0.8057 -1.1329
10990TIP3   OH254384   6.723   4.862   1.811  0.2053  0.1595 -0.3153
10990TIP3    H154385   6.715   4.782   1.863  0.5410  0.2988 -0.0404
10990TIP3    H254386   6.642   4.866   1.760 -0.3446  0.2789  0.5574
10991TIP3   OH254387   1.490   4.141   1.191  0.1682  0.5782 -0.1868
10991TIP3    H154388   1.405   4.170   1.223  0.1994  0.4068  0.0546
10991TIP3    H254389   1.470   4.068   1.133  0.0730  1.2185 -0.9686
10992TIP3   OH254390   2.428   3.414   2.851  0.5485  0.5744  0.3710
10992TIP3    H154391   2.473   3.498   2.866  1.5200  0.5324 -1.8738
10992TIP3    H254392   2.370   3.432   2.777 -0.7636 -0.2391  1.1779
10993TIP3   OH254393   4.554   0.400   1.284  0.3225 -0.4773  0.2604
10993TIP3    H154394   4.551   0.460   1.358  1.4907 -0.5588  0.4005
10993TIP3    H254395   4.601   0.323   1.318  1.8658 -0.0717 -0.8453
10994TIP3   OH254396   2.929   4.712   0.119 -0.0962 -0.2825  0.0067
10994TIP3    H154397   2.888   4.670   0.043  0.9282 -1.9741  0.3206
10994TIP3    H254398   2.992   4.647   0.150  1.1240  1.2971  0.9406
10995TIP3   OH254399   6.202   4.546  15.851 -0.2734  0.2068  0.2743
10995TIP3    H154400   6.114   4.520  15.827  0.0349 -0.4047 -0.2164
10995TIP3    H254401   6.192   4.593  15.934 -0.9930 -0.3012  0.4806
10996TIP3   OH254402   0.145   4.269  12.225  0.1604 -0.3523 -0.8746
10996TIP3    H154403   0.078   4.336  12.211 -1.3948 -0.7522  3.2015
10996TIP3    H254404   0.100   4.186  12.212 -0.5427 -0.6412  2.4515
10997TIP3   OH254405   0.292   5.268   3.004  0.4445  0.2526  0.1145
10997TIP3    H154406   0.261   5.327   2.935  1.4308  0.3201 -0.2863
10997TIP3    H254407   0.358   5.214   2.961  0.0182 -0.7064  0.6481
10998TIP3   OH254408   1.329   4.133  15.060 -0.1070  0.0575  0.0300
10998TIP3    H154409   1.349   4.124  14.967 -2.6038 -1.6341 -0.4489
10998TIP3    H254410   1.257   4.196  15.063  0.5071  0.7343  0.9310
10999TIP3   OH254411   0.858   4.265  13.692 -0.3967 -0.5718 -0.1415
10999TIP3    H154412   0.930   4.276  13.631  0.8392 -0.1396  1.3358
10999TIP3    H254413   0.834   4.354  13.718 -0.2528 -0.7795  0.7320
11000TIP3   OH254414   3.549   1.553   0.042 -0.5876 -0.5282 -0.1584
11000TIP3    H154415   3.473   1.537  -0.014 -0.8640 -2.8850  0.7829
11000TIP3    H254416   3.578   1.466   0.069  1.7348  0.3634  0.4912
11001TIP3   OH254417   6.116   0.817   6.476 -0.4742 -0.1693 -0.8646
11001TIP3    H154418   6.113   0.845   6.385  1.5936 -0.5061 -1.0796
11001TIP3    H254419   6.192   0.760   6.482  0.0278  0.6077  1.2766
11002TIP3   OH254420   5.284   6.699   2.262  0.0110  0.3709 -0.8844
11002TIP3    H154421   5.291   6.778   2.208 -0.3171  1.5868  0.7483
11002TIP3    H254422   5.219   6.723   2.329  2.0993 -0.1612  1.4756
11003TIP3   OH254423   5.641   3.915  14.835 -0.1181  0.3279  0.3541
11003TIP3    H154424   5.713   3.856  14.858 -0.1799  0.5190  1.0674
11003TIP3    H254425   5.684   3.994  14.802  0.0129  0.4781  0.8645
11004TIP3   OH254426   0.490   3.052  16.149  0.4279 -0.4862 -0.3543
11004TIP3    H154427   0.531   2.967  16.165  1.0822 -0.0255  0.5586
11004TIP3    H254428   0.400   3.042  16.179  1.0481 -0.2922  1.7340
11005TIP3   OH254429   1.222   5.874  12.726 -0.0520  0.1194 -0.1067
11005TIP3    H154430   1.229   5.810  12.656  0.6027  0.4728 -0.3715
11005TIP3    H254431   1.180   5.949  12.686  1.4752  0.8130 -0.4897
11006TIP3   OH254432   1.143   0.162  11.166 -0.3529  0.6592  0.0566
11006TIP3    H154433   1.222   0.110  11.183 -0.3884  0.2869 -0.8836
11006TIP3    H254434   1.177   0.246  11.134 -0.3189 -0.2902 -2.6216
11007TIP3   OH254435   5.028   0.884  13.098  0.5689 -0.1405 -0.1379
11007TIP3    H154436   4.980   0.802  13.110  0.4487 -0.1107 -0.4119
11007TIP3    H254437   5.060   0.880  13.008 -0.3812  0.6089 -0.5212
11008TIP3   OH254438   5.586   0.105  15.322  0.0173 -0.2060 -0.0734
11008TIP3    H154439   5.652   0.075  15.385 -0.5639 -0.1653  0.5709
11008TIP3    H254440   5.524   0.032  15.316 -0.2322  0.0124 -0.1703
11009TIP3   OH254441   3.388   2.075  11.178  0.3074 -0.1749 -0.3927
11009TIP3    H154442   3.380   2.168  11.159  0.7029  0.0519  0.4604
11009TIP3    H254443   3.298   2.045  11.192  0.1647  0.0352 -0.8719
11010TIP3   OH254444   2.728   1.965   2.991 -0.1933 -0.6932 -0.0718
11010TIP3    H154445   2.820   1.970   2.966  0.3812  0.5340  2.0820
11010TIP3    H254446   2.718   1.878   3.029  0.4821 -0.2745  1.0946
11011TIP3   OH254447   3.349   2.395   3.881  0.0146  0.2599 -0.2897
11011TIP3    H154448   3.328   2.470   3.936  1.7311 -0.5478  1.5848
11011TIP3    H254449   3.319   2.319   3.932  0.1894 -0.4433 -1.2025
11012TIP3   OH254450   1.404   6.091   4.200 -0.0148 -0.3364  0.1515
11012TIP3    H154451   1.312   6.106   4.222 -0.3245 -0.5250 -0.9090
11012TIP3    H254452   1.451   6.096   4.283 -1.0412 -0.6424  0.7637
11013TIP3   OH254453   1.571   0.735   5.250 -0.1800  0.0051  0.1839
11013TIP3    H154454   1.495   0.743   5.192  0.0700  0.0557 -0.1369
11013TIP3    H254455   1.578   0.641   5.267  0.7268 -0.1902 -1.1823
11014TIP3   OH254456   5.256   0.706  16.502 -0.0765 -0.1080  0.5321
11014TIP3    H154457   5.224   0.790  16.534 -0.7398 -0.2291  0.2084
11014TIP3    H254458   5.348   0.721  16.483 -0.2683  0.6449  0.1488
11015TIP3   OH254459   4.308   3.777   2.471 -0.2560 -0.0636  0.0335
11015TIP3    H154460   4.321   3.851   2.411 -0.2943 -2.0788 -2.6292
11015TIP3    H254461   4.216   3.782   2.494 -0.2132  0.8357  0.0755
11016TIP3   OH254462   6.006   2.104   0.114 -0.1598 -0.3139 -0.1381
11016TIP3    H154463   5.930   2.104   0.056 -0.5315  3.4486  0.0696
11016TIP3    H254464   6.073   2.055   0.066 -1.5184 -0.3521 -2.1240
11017TIP3   OH254465   1.426   1.271   4.250  0.1688 -0.6902  0.3898
11017TIP3    H154466   1.459   1.260   4.340  0.6437  1.6868  0.5756
11017TIP3    H254467   1.504   1.280   4.197 -0.0860  1.5464  0.3174
11018TIP3   OH254468   0.988   4.563  17.367  0.0151  0.2970  0.3933
11018TIP3    H154469   0.986   4.652  17.402 -0.8439  0.4274  0.0494
11018TIP3    H254470   0.912   4.559  17.309 -0.1509 -0.7712  0.6708
11019TIP3   OH254471   4.495   1.992  12.124  0.2640  0.4094 -0.0921
11019TIP3    H154472   4.464   1.902  12.136 -1.6480  1.1090  0.5681
11019TIP3    H254473   4.562   1.985  12.056  1.5241 -1.7635  1.2499
11020TIP3   OH254474   3.710   0.243  16.588  0.5159 -0.0161 -0.2226
11020TIP3    H154475   3.785   0.302  16.579 -0.5545  1.5162  0.3743
11020TIP3    H254476   3.684   0.251  16.679 -1.5451  1.0624 -0.8392
11021TIP3   OH254477   0.399   0.705   3.578 -1.3799  0.3254 -0.1756
11021TIP3    H154478   0.435   0.666   3.658 -0.5421  1.2903 -0.0576
11021TIP3    H254479   0.310   0.731   3.602 -1.0949  0.7126  0.4980
11022TIP3   OH254480   4.421   3.451   0.293  0.1863 -0.7267  0.2115
11022TIP3    H154481   4.452   3.399   0.218 -0.3587 -0.8728  0.0823
11022TIP3    H254482   4.424   3.542   0.262  2.2936 -0.5256  0.8350
11023TIP3   OH254483   6.672   2.828   1.959 -0.0787  0.0926  0.1615
11023TIP3    H154484   6.608   2.877   2.010  1.7984  0.0428  2.7127
11023TIP3    H254485   6.737   2.893   1.932  0.6436 -0.4023  0.6601
11024TIP3   OH254486   5.134   6.189   3.787 -0.0045 -0.5034 -0.4817
11024TIP3    H154487   5.062   6.251   3.791 -1.9485 -2.6055 -1.0301
11024TIP3    H254488   5.140   6.163   3.695  1.9366  0.1061 -0.5765
11025TIP3   OH254489   6.689   4.991   0.551 -0.3653 -0.4833 -0.0851
11025TIP3    H154490   6.623   4.931   0.515 -0.0309 -0.6698 -0.3906
11025TIP3    H254491   6.669   4.995   0.644  0.1411 -1.7592  0.1046
11026TIP3   OH254492   4.592   0.898  13.749  0.1363  0.4511 -0.3943
11026TIP3    H154493   4.594   0.804  13.768 -0.4330  0.5977  0.4382
11026TIP3    H254494   4.617   0.904  13.657 -1.0200 -0.6209 -0.8155
11027TIP3   OH254495   2.307   3.419   2.568 -0.1032  0.2068  0.2278
11027TIP3    H154496   2.334   3.508   2.543  1.6156  0.1012  1.5218
11027TIP3    H254497   2.375   3.363   2.531  1.2649 -0.1430  3.0129
11028TIP3   OH254498   1.750   4.327   2.873  0.3869 -0.0178  0.6766
11028TIP3    H154499   1.796   4.358   2.950 -0.9365 -2.8201  2.7735
11028TIP3    H254500   1.659   4.349   2.888 -0.0453 -1.5563  0.5167
11029TIP3   OH254501   2.588   1.372   0.639  0.3160 -0.2751  0.3577
11029TIP3    H154502   2.505   1.414   0.615 -0.2114 -1.5255 -0.1553
11029TIP3    H254503   2.561   1.296   0.691  1.2240 -0.0416  1.1994
11030TIP3   OH254504   1.234   2.668  12.331  0.4213 -0.1899  0.1419
11030TIP3    H154505   1.284   2.687  12.410 -0.0620  1.2998  0.1214
11030TIP3    H254506   1.161   2.730  12.334 -1.2070 -2.0027 -0.0367
11031TIP3   OH254507   3.044   2.946   4.228 -0.5805  0.1363 -0.5286
11031TIP3    H154508   3.068   2.906   4.145 -1.4481 -1.2608 -0.1365
11031TIP3    H254509   2.949   2.947   4.229 -0.5891  0.1065  0.4596
11032TIP3   OH254510   3.611   1.962   3.722  0.0028  0.0679 -0.0232
11032TIP3    H154511   3.622   1.944   3.816 -0.3861 -0.1372 -0.0146
11032TIP3    H254512   3.563   1.886   3.689 -1.0109  0.7485 -0.1361
11033TIP3   OH254513   2.442   3.180   5.206 -0.0372 -0.3525 -0.6900
11033TIP3    H154514   2.379   3.111   5.225 -0.8656  0.1821 -1.4221
11033TIP3    H254515   2.490   3.149   5.130  1.0388 -1.0413  0.2483
11034TIP3   OH254516   4.396   6.307  11.645 -0.1605  0.9860 -0.4727
11034TIP3    H154517   4.310   6.270  11.661  0.3570 -0.3066 -0.5347
11034TIP3    H254518   4.438   6.309  11.731  0.5664 -0.6225 -0.7404
11035TIP3   OH254519   4.225   5.077  16.374  0.1903 -0.1324 -0.4544
11035TIP3    H154520   4.226   5.050  16.466  0.4846  0.6724 -0.2166
11035TIP3    H254521   4.304   5.131  16.364  1.3042 -1.8754 -1.6962
11036TIP3   OH254522   4.176   0.009  14.322 -0.7953  0.9530 -0.1162
11036TIP3    H154523   4.151  -0.020  14.410  2.3211 -1.0913  0.2325
11036TIP3    H254524   4.213  -0.068  14.280 -0.8501  2.2325 -2.7561
11037TIP3   OH254525   3.192   3.812  16.765 -0.0086  0.4902 -0.3302
11037TIP3    H154526   3.236   3.769  16.692  1.1948  0.6075  0.3105
11037TIP3    H254527   3.260   3.823  16.831 -0.4626  2.6928 -0.1664
11038TIP3   OH254528   0.953   4.179   3.308 -0.4631 -0.0159 -0.5706
11038TIP3    H154529   0.976   4.146   3.221 -1.4382  0.1083 -0.8793
11038TIP3    H254530   1.020   4.141   3.365 -0.5847 -1.2023 -1.1677
11039TIP3   OH254531   4.221   3.552   2.800  0.6273  0.3438 -0.0856
11039TIP3    H154532   4.244   3.645   2.804 -0.1738  0.5514 -0.1845
11039TIP3    H254533   4.298   3.507   2.835  0.0819  1.1829  2.3931
11040TIP3   OH254534   1.382   2.240  10.703 -0.2738  0.2218  0.2320
11040TIP3    H154535   1.316   2.298  10.740  0.3135  0.9441  0.1611
11040TIP3    H254536   1.465   2.276  10.734  0.0345 -2.1062  2.4532
11041TIP3   OH254537   0.109   6.425  13.077  0.3902 -1.0906 -0.7952
11041TIP3    H154538   0.036   6.424  13.139  0.6838 -0.8992 -0.4375
11041TIP3    H254539   0.186   6.402  13.130  0.5259 -1.7298 -1.2565
11042TIP3   OH254540   2.583   3.253  13.917  0.3082 -0.6310  0.1857
11042TIP3    H154541   2.581   3.159  13.898  0.4396 -0.5995  0.0232
11042TIP3    H254542   2.568   3.258  14.012  2.5070 -0.9447  0.5913
11043TIP3   OH254543   4.945   4.562   5.029 -0.4142  0.2960  0.5389
11043TIP3    H154544   4.997   4.570   4.950  0.5547  0.0623  1.1420
11043TIP3    H254545   4.987   4.492   5.079 -2.9808 -1.9751 -0.2341
11044TIP3   OH254546   4.269   5.661   2.089  0.4246 -0.6714 -0.0594
11044TIP3    H154547   4.220   5.654   2.007 -1.6597 -0.5381  1.1028
11044TIP3    H254548   4.296   5.753   2.093 -0.5644 -0.3749 -0.0151
11045TIP3   OH254549   6.714   4.232   4.586  0.4967 -0.5574  0.2595
11045TIP3    H154550   6.732   4.161   4.648 -1.3001 -0.3341  1.1037
11045TIP3    H254551   6.766   4.306   4.618 -0.1920 -0.5293  1.3531
11046TIP3   OH254552   5.657   5.315  16.901  0.4715  0.0711  0.0823
11046TIP3    H154553   5.740   5.364  16.898  0.2987  0.3331 -0.6502
11046TIP3    H254554   5.590   5.383  16.906  0.3130 -0.1549  1.1346
11047TIP3   OH254555   5.368   2.205   1.721 -0.4782 -0.1146 -0.3149
11047TIP3    H154556   5.309   2.247   1.658 -2.8378 -0.4010  1.5857
11047TIP3    H254557   5.311   2.176   1.792  2.1410  0.9218  2.3977
11048TIP3   OH254558   3.432   3.654  12.971  0.1502  0.1849  0.4262
11048TIP3    H154559   3.512   3.650  13.024 -0.5287 -1.6634  1.4222
11048TIP3    H254560   3.430   3.570  12.925  0.9013  1.8630 -2.9433
11049TIP3   OH254561   5.721   1.171  11.308 -0.1471 -0.0774  0.2625
11049TIP3    H154562   5.773   1.235  11.356  1.5340  0.3529 -1.9033
11049TIP3    H254563   5.780   1.096  11.297  0.2213  0.4801 -2.4088
11050TIP3   OH254564   3.073   1.115   3.739 -0.0345  0.2466  0.3463
11050TIP3    H154565   3.157   1.086   3.772 -0.4188  0.1425  1.2506
11050TIP3    H254566   3.011   1.095   3.809 -0.9866 -0.6271 -0.6884
11051TIP3   OH254567   0.748   4.449  16.594 -0.0029 -0.0332 -0.9029
11051TIP3    H154568   0.731   4.447  16.688 -0.5737  0.6420 -0.9880
11051TIP3    H254569   0.670   4.411  16.555  0.5354 -1.0094 -1.0847
11052TIP3   OH254570   2.471   3.899   2.015 -0.3848 -0.9578 -0.8584
11052TIP3    H154571   2.426   3.921   2.096  1.3252 -0.0329 -0.1081
11052TIP3    H254572   2.412   3.929   1.946 -2.2307 -2.4675 -0.0335
11053TIP3   OH254573   5.951   2.717  14.065  0.6450  0.7245  0.1375
11053TIP3    H154574   5.945   2.808  14.094 -0.5814  1.1058 -1.1608
11053TIP3    H254575   5.970   2.723  13.971  0.7405 -0.3704  0.0727
11054TIP3   OH254576   2.174   5.953  16.027  0.1057 -0.3716  0.2023
11054TIP3    H154577   2.144   5.916  15.944  0.4039  1.1997 -0.6579
11054TIP3    H254578   2.201   5.877  16.079 -0.7320 -1.4432 -0.8628
11055TIP3   OH254579   2.844   6.089   2.275  0.6009  0.2662  0.4173
11055TIP3    H154580   2.890   6.010   2.248  1.7579  1.3111 -0.8038
11055TIP3    H254581   2.877   6.157   2.217 -2.0820  1.2199 -0.1096
11056TIP3   OH254582   4.106   4.837  16.470 -0.3789  0.5166 -0.1530
11056TIP3    H154583   4.015   4.807  16.468 -0.1881 -0.1155  0.4134
11056TIP3    H254584   4.118   4.880  16.385 -0.1773 -2.4651 -1.7722
11057TIP3   OH254585   6.514   3.456  15.209 -0.0111 -0.3801  0.3314
11057TIP3    H154586   6.527   3.548  15.234 -0.4103  0.0363 -0.9092
11057TIP3    H254587   6.578   3.408  15.262  1.3143  0.7881 -0.1182
11058TIP3   OH254588   2.223   6.296  16.639 -0.1440 -0.2755  0.4087
11058TIP3    H154589   2.274   6.229  16.592  3.1876  2.4121 -0.2144
11058TIP3    H254590   2.185   6.349  16.569  0.5230  0.7308  0.7939
11059TIP3   OH254591   2.405   5.175  13.361  0.5515  0.0870  0.8414
11059TIP3    H154592   2.373   5.089  13.334  1.6584 -0.0567 -0.0834
11059TIP3    H254593   2.342   5.237  13.324  1.3296 -0.1834 -0.9847
11060TIP3   OH254594   3.970   6.611   5.938  0.6322 -0.2019  0.3719
11060TIP3    H154595   4.000   6.687   5.988 -0.7159 -0.5525  1.7789
11060TIP3    H254596   3.893   6.579   5.986  0.8031 -2.0959 -0.5138
11061TIP3   OH254597   2.649   3.347   6.288  0.1252  0.0737  0.5370
11061TIP3    H154598   2.669   3.398   6.366  1.2457 -0.6884  0.7759
11061TIP3    H254599   2.734   3.323   6.253 -0.3509  0.6369 -1.1003
11062TIP3   OH254600   5.093   5.335   3.234  0.1798  0.6404 -0.3673
11062TIP3    H154601   5.068   5.423   3.263  2.1046  1.1442 -0.1161
11062TIP3    H254602   5.032   5.315   3.162  0.4095  2.6346 -1.1781
11063TIP3   OH254603   4.528   1.752   3.949  0.1633 -0.0915  0.6993
11063TIP3    H154604   4.471   1.675   3.948  0.4184 -0.2759  0.0510
11063TIP3    H254605   4.612   1.720   3.980  0.1094  0.0525  1.0079
11064TIP3   OH254606   5.675   3.080  16.972  0.0983 -0.1561  0.3297
11064TIP3    H154607   5.736   3.149  16.946  0.6393 -0.4701  0.7352
11064TIP3    H254608   5.713   3.043  17.052 -1.3696  0.6036  1.4310
11065TIP3   OH254609   1.207   3.960  17.223  0.2330 -0.0534  0.0183
11065TIP3    H154610   1.240   3.966  17.133  1.1287 -1.3778  0.2328
11065TIP3    H254611   1.112   3.949  17.213 -0.3898  4.1531 -0.5982
11066TIP3   OH254612   5.328   2.921  13.351 -0.1153  0.2789  0.0689
11066TIP3    H154613   5.255   2.908  13.411 -0.6031  1.0695 -0.3341
11066TIP3    H254614   5.318   3.011  13.320  1.2208  0.5303  0.2630
11067TIP3   OH254615   2.304   3.224   0.884  0.2492  0.1767 -0.5612
11067TIP3    H154616   2.268   3.136   0.887 -2.0942  1.0997  0.9956
11067TIP3    H254617   2.393   3.214   0.920  0.4393 -1.6589 -1.4053
11068TIP3   OH254618   4.220   2.942  17.137 -0.2883  0.1651  0.6579
11068TIP3    H154619   4.248   3.033  17.127 -1.7257  0.5922  0.3312
11068TIP3    H254620   4.294   2.899  17.179  0.9132  1.1977 -0.3157
11069TIP3   OH254621   4.045   5.924   1.924  0.2834 -0.1548 -0.0580
11069TIP3    H154622   4.085   5.933   1.837 -0.4184 -1.6869 -0.5822
11069TIP3    H254623   4.090   5.988   1.978  0.1791  1.4219 -1.7490
11070TIP3   OH254624   0.618   3.171   0.855  0.0042  0.1168 -0.0230
11070TIP3    H154625   0.666   3.247   0.888  0.0740 -0.1436  0.4725
11070TIP3    H254626   0.616   3.110   0.928  1.0359 -0.8971 -0.8087
11071TIP3   OH254627   3.526   3.475  16.827  0.0551  0.3803 -0.6046
11071TIP3    H154628   3.524   3.555  16.775 -0.0942  0.7036 -0.1133
11071TIP3    H254629   3.539   3.505  16.917  0.5304 -0.1770 -0.4734
11072TIP3   OH254630   0.667   3.542   3.844  0.3015 -0.0055  0.3919
11072TIP3    H154631   0.688   3.607   3.911 -1.3210  1.5597 -0.5477
11072TIP3    H254632   0.722   3.566   3.769 -0.3846  0.3981  0.0024
11073TIP3   OH254633   5.812   3.977   1.466  0.1295 -0.1674  0.3195
11073TIP3    H154634   5.858   4.020   1.394 -0.1465 -1.3122 -0.5735
11073TIP3    H254635   5.766   3.904   1.424  0.2010 -1.0342  1.7137
11074TIP3   OH254636   0.768   2.753   4.043  0.2484  0.3591 -0.1184
11074TIP3    H154637   0.759   2.703   3.962 -1.2775 -0.4248  0.4846
11074TIP3    H254638   0.678   2.763   4.075  0.8494  0.2527  1.7207
11075TIP3   OH254639   5.397   2.305  12.825 -0.1503  0.5459  0.0665
11075TIP3    H154640   5.485   2.341  12.813 -0.1504  0.3949 -0.3898
11075TIP3    H254641   5.339   2.382  12.826  0.0144  0.6703  0.6895
11076TIP3   OH254642   1.180   6.277  12.335 -0.2400  0.6119 -0.5659
11076TIP3    H154643   1.139   6.349  12.382  1.8050  1.8013 -0.5011
11076TIP3    H254644   1.194   6.311  12.247 -0.8850 -0.3664 -1.0591
11077TIP3   OH254645   1.269   4.847   3.121 -0.6123 -0.1554 -0.1858
11077TIP3    H154646   1.253   4.941   3.125  0.5361  0.1331 -1.4205
11077TIP3    H254647   1.347   4.839   3.066  0.3833 -1.7213  1.3763
11078TIP3   OH254648   4.311   5.795   1.689 -0.4348  0.2432  0.6704
11078TIP3    H154649   4.275   5.883   1.698  0.1259  0.5640 -0.0976
11078TIP3    H254650   4.239   5.743   1.655 -0.2518  0.8532 -0.7460
11079TIP3   OH254651   0.556   6.029  16.029 -0.3720  0.1945 -0.4818
11079TIP3    H154652   0.553   6.019  15.934  1.1852 -0.6693 -0.4733
11079TIP3    H254653   0.647   6.010  16.053 -1.0051 -0.8701  1.2973
11080TIP3   OH254654   2.886   5.775   3.512  0.7591  0.4008  0.1879
11080TIP3    H154655   2.874   5.774   3.607  4.0905 -1.5699  0.7433
11080TIP3    H254656   2.822   5.711   3.479 -0.4711  1.1486  1.0194
11081TIP3   OH254657   0.098   0.995   1.389 -0.5453 -0.2781 -0.4544
11081TIP3    H154658   0.062   1.082   1.371 -0.8235 -0.1901  0.4441
11081TIP3    H254659   0.043   0.962   1.460  0.8463 -0.3494  0.6250
11082TIP3   OH254660   1.572   5.418  11.455  0.0526 -0.1657  0.1207
11082TIP3    H154661   1.548   5.511  11.457  0.2218 -0.1210  2.2172
11082TIP3    H254662   1.659   5.415  11.493 -1.2381 -1.4303  3.3650
11083TIP3   OH254663   6.506   5.473   1.263  0.1034 -0.1366  0.0372
11083TIP3    H154664   6.577   5.535   1.282 -0.7358  0.6188  0.8428
11083TIP3    H254665   6.508   5.462   1.168  0.5131  0.8301 -0.0784
11084TIP3   OH254666   0.755   4.274  16.950  0.5322  0.1430  0.1491
11084TIP3    H154667   0.701   4.229  17.015 -0.4940  1.3773  0.1697
11084TIP3    H254668   0.817   4.206  16.920 -1.0617 -1.3411  0.0332
11085TIP3   OH254669   0.541   3.751  15.172  0.0190 -0.1793 -0.4336
11085TIP3    H154670   0.495   3.774  15.092  0.2437  1.6209 -0.0830
11085TIP3    H254671   0.473   3.719  15.231 -0.4410  0.3162 -0.6871
11086TIP3   OH254672   6.197   3.677  14.263 -0.6773 -0.2953 -0.0024
11086TIP3    H154673   6.121   3.682  14.204 -0.0920 -0.5192 -0.7983
11086TIP3    H254674   6.159   3.662  14.349 -1.5107 -1.7679 -0.5726
11087TIP3   OH254675   4.281   2.604   5.791  0.0549  0.2599  0.5730
11087TIP3    H154676   4.253   2.593   5.882  0.0175  1.3194  0.6995
11087TIP3    H254677   4.200   2.600   5.740  0.2184 -2.0237  0.3822
11088TIP3   OH254678   4.590   6.331   0.720  0.4531  0.1320 -0.5783
11088TIP3    H154679   4.577   6.419   0.684 -0.3806  0.6243  0.8273
11088TIP3    H254680   4.652   6.344   0.791 -0.7716 -0.1400  0.5722
11089TIP3   OH254681   0.510   2.755  17.124  0.6612  0.3961 -0.2331
11089TIP3    H154682   0.593   2.725  17.161  0.8382  1.1380 -0.0152
11089TIP3    H254683   0.507   2.849  17.144  0.5344  0.7288 -1.6611
11090TIP3   OH254684   4.307   1.317   0.664 -0.2799 -0.2828  0.4770
11090TIP3    H154685   4.294   1.251   0.595  1.5130 -0.2156  0.0329
11090TIP3    H254686   4.383   1.285   0.713  0.0501  0.9963  0.8225
11091TIP3   OH254687   3.985   5.452   2.894 -0.4477  0.0253  0.4448
11091TIP3    H154688   3.972   5.378   2.953 -0.3175 -0.4298 -0.0971
11091TIP3    H254689   3.897   5.471   2.861 -0.1253 -1.7690 -1.6633
11092TIP3   OH254690   1.381   0.523  16.050 -0.4641 -0.2194 -0.0863
11092TIP3    H154691   1.374   0.546  16.142  1.3219  0.5780 -0.1241
11092TIP3    H254692   1.379   0.607  16.004 -1.0885 -0.5972 -0.7698
11093TIP3   OH254693   5.206   6.464   2.756  0.3861 -0.0921 -0.3156
11093TIP3    H154694   5.139   6.528   2.781  0.8024  0.5005 -0.7030
11093TIP3    H254695   5.289   6.505   2.781  0.6971 -0.2347 -1.0981
11094TIP3   OH254696   2.150   0.493   0.153  0.1083 -0.4249 -0.8769
11094TIP3    H154697   2.228   0.513   0.205 -0.2182 -0.7452 -0.2585
11094TIP3    H254698   2.106   0.424   0.202 -2.3075  1.9352  0.5575
11095TIP3   OH254699   5.140   6.419   2.442  0.0672  0.3059  0.1239
11095TIP3    H154700   5.113   6.398   2.532  1.4699 -1.6366  0.1635
11095TIP3    H254701   5.213   6.480   2.453 -0.9812  1.5948  0.1896
11096TIP3   OH254702   3.838   4.577   1.361 -0.3097  0.1783 -0.1370
11096TIP3    H154703   3.783   4.656   1.360 -0.6367  0.0442  2.1431
11096TIP3    H254704   3.921   4.605   1.400 -0.5195 -0.6147  0.9409
11097TIP3   OH254705   1.419   0.512  13.895  0.1030 -0.2036  0.5581
11097TIP3    H154706   1.327   0.499  13.871  0.6595 -0.4242 -1.6654
11097TIP3    H254707   1.451   0.578  13.833  1.3802  0.1058  1.4978
11098TIP3   OH254708   0.068   4.450   1.354 -0.0203  0.0982  1.0422
11098TIP3    H154709   0.119   4.519   1.313  0.5988 -0.4414  0.8841
11098TIP3    H254710   0.133   4.390   1.390 -0.5447  0.5223  2.7765
11099TIP3   OH254711   2.314   2.482   4.733  0.0388  0.1398 -0.1501
11099TIP3    H154712   2.264   2.403   4.711  0.0301  0.0271  0.2543
11099TIP3    H254713   2.387   2.483   4.671  0.1316 -0.2779 -0.0541
11100TIP3   OH254714   4.421   6.336   5.891 -0.2916  0.4083 -0.2376
11100TIP3    H154715   4.484   6.274   5.856 -0.5904  0.0826 -0.2069
11100TIP3    H254716   4.386   6.293   5.969  0.4145  1.1466  0.5111
11101TIP3   OH254717   4.040   2.091   1.358  0.6713  0.2748 -0.4405
11101TIP3    H154718   4.075   2.043   1.434 -0.1607  0.1053 -0.1473
11101TIP3    H254719   4.116   2.132   1.318  1.1548  0.2115  0.3843
11102TIP3   OH254720   3.100   5.742   0.387  0.3143  0.1162 -0.6930
11102TIP3    H154721   3.028   5.751   0.324  0.0171  0.2384 -0.3398
11102TIP3    H254722   3.139   5.656   0.367  0.5050  0.3422 -1.3298
11103TIP3   OH254723   1.248   4.565   3.328 -0.1238  0.5278  0.4281
11103TIP3    H154724   1.321   4.597   3.381 -1.0968  2.0091  0.9388
11103TIP3    H254725   1.282   4.562   3.239  0.9334 -0.0767  0.8330
11104TIP3   OH254726   4.773   3.626  12.968 -0.3690 -0.2325  0.3526
11104TIP3    H154727   4.755   3.718  12.986 -1.5108 -0.3059 -0.2931
11104TIP3    H254728   4.868   3.621  12.955 -0.4973  1.2316 -1.5934
11105TIP3   OH254729   4.879   3.964   5.347 -0.6229  0.1529 -0.0076
11105TIP3    H154730   4.851   3.874   5.332 -0.7203 -0.5861  3.6954
11105TIP3    H254731   4.961   3.972   5.297 -0.2247 -2.2264  0.1497
11106TIP3   OH254732   2.973   0.605   5.099 -1.0996  0.2402  0.1042
11106TIP3    H154733   3.052   0.588   5.150 -1.8855 -0.7452  1.0298
11106TIP3    H254734   2.913   0.646   5.161 -2.0473 -0.9122 -0.0278
11107TIP3   OH254735   1.527   4.040  16.585 -0.4371 -0.3669  0.3839
11107TIP3    H154736   1.454   4.019  16.527  0.0068  0.8486 -0.6438
11107TIP3    H254737   1.502   4.122  16.628 -0.0140 -0.3614  0.6309
11108TIP3   OH254738   3.800   1.173  10.831  0.2145 -0.0480  0.0497
11108TIP3    H154739   3.840   1.202  10.914 -1.0806 -0.8979  1.0066
11108TIP3    H254740   3.715   1.138  10.857  0.3785 -1.6934 -1.4658
11109TIP3   OH254741   4.015   5.651   0.175  0.6333 -0.1417  0.2071
11109TIP3    H154742   4.015   5.654   0.079  0.0669 -0.6803  0.1774
11109TIP3    H254743   3.977   5.735   0.201  0.2346 -0.2317 -0.0642
11110TIP3   OH254744   2.760   3.472  13.919  0.6337 -0.0699 -0.2196
11110TIP3    H154745   2.694   3.504  13.858  0.0161  1.2561  1.1012
11110TIP3    H254746   2.729   3.385  13.945  0.2045 -0.0776 -0.7556
11111TIP3   OH254747   0.215   0.762   2.226 -0.0538  0.1401  0.0502
11111TIP3    H154748   0.127   0.724   2.220 -0.0729  0.1754  0.1070
11111TIP3    H254749   0.206   0.849   2.189 -0.2622  0.5102  0.9531
11112TIP3   OH254750   3.361   3.776  11.819  0.0467  0.1629 -0.1381
11112TIP3    H154751   3.318   3.729  11.748  2.0231  1.9018 -2.6824
11112TIP3    H254752   3.418   3.711  11.860 -1.3715 -0.9564  0.1081
11113TIP3   OH254753   5.049   0.789  16.923  0.3349  0.4815 -0.0652
11113TIP3    H154754   5.073   0.875  16.888  0.8677 -0.4706 -2.2502
11113TIP3    H254755   5.104   0.727  16.874  0.4302 -1.0777  1.8942
11114TIP3   OH254756   4.618   0.956  16.199  0.6213 -0.3027 -0.0059
11114TIP3    H154757   4.686   1.005  16.247  1.8935 -0.7601 -1.2712
11114TIP3    H254758   4.664   0.920  16.123 -1.4061  0.7822 -1.8536
11115TIP3   OH254759   3.706   5.384  15.010 -0.2416  0.3075  0.2120
11115TIP3    H154760   3.716   5.403  15.103 -1.6873  1.4383  0.1843
11115TIP3    H254761   3.788   5.413  14.970 -0.6331  2.4184  0.8116
11116TIP3   OH254762   6.686   4.569   6.064  0.3149 -0.1920 -0.7255
11116TIP3    H154763   6.664   4.575   6.157  1.2204 -1.0467 -0.4382
11116TIP3    H254764   6.605   4.593   6.019 -0.5763 -1.1570  0.2954
11117TIP3   OH254765   1.948   2.434  13.872  0.5873 -0.4714 -0.4282
11117TIP3    H154766   1.932   2.482  13.953 -0.0781 -1.4168  0.0258
11117TIP3    H254767   2.032   2.391  13.886 -0.0893 -1.6202  0.2865
11118TIP3   OH254768   0.426   3.896  12.971 -0.0220  0.0892  0.5072
11118TIP3    H154769   0.390   3.974  12.928 -0.3977  0.0058  0.6613
11118TIP3    H254770   0.508   3.925  13.010  0.3973  0.1305 -0.3901
11119TIP3   OH254771   6.318   0.446  11.501  0.0496  0.5094 -0.4875
11119TIP3    H154772   6.375   0.422  11.428 -1.2672 -1.2567 -1.0013
11119TIP3    H254773   6.268   0.520  11.470  0.8235  0.9701 -0.6658
11120TIP3   OH254774   0.724   3.124  15.943  0.1422  0.0573 -0.1904
11120TIP3    H154775   0.659   3.081  15.998  1.0972 -0.2854  0.6989
11120TIP3    H254776   0.736   3.064  15.869  0.0713 -0.2771  0.0672
11121TIP3   OH254777   5.480   4.598   6.572  0.5002  0.3528  0.2644
11121TIP3    H154778   5.391   4.608   6.540  0.8066  1.5153 -0.2962
11121TIP3    H254779   5.525   4.677   6.542  1.5788  0.0443  1.0067
11122TIP3   OH254780   3.421   0.643   2.527  0.0643  0.0455 -0.1950
11122TIP3    H154781   3.473   0.711   2.483  1.1825 -0.7856 -0.2043
11122TIP3    H254782   3.450   0.646   2.618  0.8362 -1.0653 -0.3951
11123TIP3   OH254783   2.524   6.335   5.530 -0.4409 -0.3033 -0.3629
11123TIP3    H154784   2.517   6.422   5.569 -2.6344 -1.6031  2.4295
11123TIP3    H254785   2.594   6.292   5.580  0.8879 -0.1397 -1.9688
11124TIP3   OH254786   2.328   3.065  14.812  0.3719  0.2183 -0.0939
11124TIP3    H154787   2.380   3.114  14.875  1.9434 -1.3720 -0.0877
11124TIP3    H254788   2.321   3.124  14.736  2.5839  0.3502 -0.2653
11125TIP3   OH254789   1.292   5.688  15.343 -0.2951 -0.4493 -0.1203
11125TIP3    H154790   1.318   5.602  15.376  0.8585 -0.1671 -0.2415
11125TIP3    H254791   1.198   5.693  15.360 -0.4662 -1.9056 -0.5000
11126TIP3   OH254792   1.685   2.520   5.882  0.1548  0.9367 -0.0903
11126TIP3    H154793   1.742   2.569   5.942 -0.5876  1.6331  0.0578
11126TIP3    H254794   1.738   2.508   5.803  1.2701 -0.2898  0.8060
11127TIP3   OH254795   5.490   0.994   1.516  0.7885  0.3704  0.3324
11127TIP3    H154796   5.410   1.011   1.466  1.9756  2.6198 -1.0038
11127TIP3    H254797   5.509   0.902   1.500 -2.0793 -0.5758  1.6522
11128TIP3   OH254798   5.601   3.295   3.918  0.2156 -0.5682 -0.0299
11128TIP3    H154799   5.665   3.224   3.906  1.9561  0.8677  0.2467
11128TIP3    H254800   5.652   3.375   3.904 -1.3262  0.6828  1.1714
11129TIP3   OH254801   0.830   6.299  17.094 -0.1194  0.0166 -0.3227
11129TIP3    H154802   0.877   6.379  17.070 -1.1985 -0.0352 -2.9555
11129TIP3    H254803   0.770   6.326  17.163  2.1516  0.5603  1.5671
11130TIP3   OH254804   5.312   5.200  12.555  0.0630  0.1379  0.4233
11130TIP3    H154805   5.324   5.114  12.596 -0.8077  0.3899  1.2278
11130TIP3    H254806   5.234   5.236  12.597  0.4858  1.3743  0.1672
11131TIP3   OH254807   5.034   0.420  11.769  0.1830  0.2498 -0.1007
11131TIP3    H154808   5.098   0.469  11.820  1.1590 -0.5624 -0.5286
11131TIP3    H254809   5.083   0.347  11.732 -1.0055 -0.4345 -0.3769
11132TIP3   OH254810   6.723   3.683   4.386  0.1851 -0.8673 -0.1217
11132TIP3    H154811   6.680   3.724   4.311 -0.7688 -0.6603  0.5263
11132TIP3    H254812   6.769   3.756   4.429 -0.7223 -0.6394  0.4854
11133TIP3   OH254813   1.688   3.557  17.353  0.4270  0.2792  0.1971
11133TIP3    H154814   1.636   3.482  17.326  1.8870 -0.7572  0.1147
11133TIP3    H254815   1.752   3.568  17.283 -1.4453  3.4031 -1.1984
11134TIP3   OH254816   0.500   3.460  10.570  0.3284 -0.3795  0.4098
11134TIP3    H154817   0.436   3.402  10.612  1.4084 -0.9905  1.2906
11134TIP3    H254818   0.570   3.400  10.541  0.3843  0.2347 -0.7808
11135TIP3   OH254819   1.944   4.194  12.894  0.1125 -0.3303  0.0973
11135TIP3    H154820   1.910   4.121  12.945  0.2117 -0.9818 -0.7362
11135TIP3    H254821   2.027   4.162  12.858  0.0661  0.1193 -0.4296
11136TIP3   OH254822   6.644   5.603   2.746  0.3149 -0.5292  0.1396
11136TIP3    H154823   6.739   5.612   2.757  0.3551  1.1907 -1.2076
11136TIP3    H254824   6.634   5.532   2.682  0.7234 -0.5230  0.0646
11137TIP3   OH254825   1.361   1.645   2.739 -0.4989  0.1522  0.0799
11137TIP3    H154826   1.316   1.704   2.679  0.1530 -0.8222 -1.4297
11137TIP3    H254827   1.449   1.681   2.748 -0.4209 -0.0162 -0.0048
11138TIP3   OH254828   3.017   1.298   5.952 -0.1544 -0.1141 -0.1738
11138TIP3    H154829   3.023   1.268   6.043  0.3246  1.5944  0.3930
11138TIP3    H254830   2.928   1.332   5.945 -0.0568  0.1313 -0.2206
11139TIP3   OH254831   2.530   3.853  13.908 -0.0483 -0.3657 -0.8042
11139TIP3    H154832   2.582   3.780  13.942 -0.2660 -1.0512 -1.8643
11139TIP3    H254833   2.466   3.811  13.850 -0.5960  0.6233 -0.9341
11140TIP3   OH254834   4.468   5.993  15.444  0.5407 -0.2969  0.7989
11140TIP3    H154835   4.515   6.072  15.418  1.2111 -0.4197  1.5995
11140TIP3    H254836   4.509   5.966  15.526 -0.4257 -0.8441  1.1251
11141TIP3   OH254837   3.666   0.256  13.278 -0.6350  0.5882 -0.4399
11141TIP3    H154838   3.618   0.174  13.279 -0.9113  0.7156  1.7415
11141TIP3    H254839   3.748   0.236  13.232 -0.1080 -1.3011  1.1932
11142TIP3   OH254840   4.255   4.918  14.480  0.4004  0.1954 -0.0036
11142TIP3    H154841   4.281   4.893  14.391  0.9089  0.1428  0.1539
11142TIP3    H254842   4.197   4.848  14.509  0.9464 -0.2515  0.0305
11143TIP3   OH254843   0.369   3.469   1.964  0.2081 -0.3481  0.1576
11143TIP3    H154844   0.305   3.458   1.894 -0.0124  0.6039  0.1996
11143TIP3    H254845   0.453   3.479   1.919 -0.0343  1.0499 -0.0314
11144TIP3   OH254846   6.338   2.236   1.026 -0.1683  0.1180  1.0470
11144TIP3    H154847   6.372   2.178   1.095 -1.1041 -0.5314  0.9922
11144TIP3    H254848   6.266   2.186   0.987  0.8862  0.1100 -0.9978
11145TIP3   OH254849   0.181   4.254   5.537 -0.7319  0.4661 -0.1127
11145TIP3    H154850   0.161   4.175   5.587 -0.9174  0.1675 -0.6436
11145TIP3    H254851   0.245   4.301   5.590  0.4201 -0.7034 -0.4050
11146TIP3   OH254852   2.140   3.687   5.277 -0.2515 -0.0816  0.1257
11146TIP3    H154853   2.124   3.595   5.297 -1.9807  0.3841  1.0890
11146TIP3    H254854   2.082   3.735   5.336 -0.4341  1.5859 -1.3290
11147TIP3   OH254855   0.178   1.200  15.840  0.3151  0.0357 -0.2302
11147TIP3    H154856   0.089   1.225  15.814  0.6163 -0.0141 -1.3510
11147TIP3    H254857   0.169   1.110  15.874 -0.1441  0.2388  0.1982
11148TIP3   OH254858   5.234   6.559   5.663  0.2649  0.5385 -0.2040
11148TIP3    H154859   5.164   6.499   5.688  0.3782  0.0911 -0.9400
11148TIP3    H254860   5.201   6.604   5.585  0.5062  0.8419 -0.1320
11149TIP3   OH254861   6.289   6.229  15.064 -0.1436 -0.2253 -0.1476
11149TIP3    H154862   6.268   6.237  14.971  1.4664  0.3403 -0.4809
11149TIP3    H254863   6.255   6.309  15.103 -1.2779 -0.6925 -0.1397
11150TIP3   OH254864   2.530   2.937   2.975 -0.2940  0.0242 -0.1328
11150TIP3    H154865   2.528   3.024   2.936 -0.6707  0.0185 -0.1357
11150TIP3    H254866   2.545   2.878   2.901 -2.6877 -0.1313 -0.5735
11151TIP3   OH254867   5.294   4.599   0.680 -0.1181 -0.0877 -0.4392
11151TIP3    H154868   5.303   4.635   0.768 -0.3247 -0.3366 -0.3149
11151TIP3    H254869   5.301   4.675   0.621  2.8099 -0.1969 -0.3783
11152TIP3   OH254870   5.233   4.975  16.649 -0.1444  0.1492  0.9827
11152TIP3    H154871   5.212   5.068  16.636  2.0469  0.6602  0.7323
11152TIP3    H254872   5.308   4.959  16.592 -0.6530 -1.8773  0.8056
11153TIP3   OH254873   0.313   4.100   3.995 -0.2384 -0.2947  0.5746
11153TIP3    H154874   0.259   4.057   3.929 -0.5503 -2.9843  2.4350
11153TIP3    H254875   0.380   4.036   4.017  1.1811  1.3729  1.3399
11154TIP3   OH254876   5.883   4.885  17.015 -0.1597  0.1799  0.0560
11154TIP3    H154877   5.967   4.844  17.037 -1.2809 -0.5238  3.6770
11154TIP3    H254878   5.894   4.977  17.041 -0.5076  0.0721  0.5953
11155TIP3   OH254879   3.809   0.858   4.704 -0.5952 -1.2063  0.5344
11155TIP3    H154880   3.888   0.912   4.697 -3.0639  2.7716 -0.1017
11155TIP3    H254881   3.810   0.827   4.795  1.2676 -0.5365  0.7898
11156TIP3   OH254882   0.843   1.648  10.792  0.0617  0.2939 -0.5153
11156TIP3    H154883   0.757   1.688  10.802 -0.2282 -0.4744  0.2236
11156TIP3    H254884   0.883   1.694  10.718 -0.8554  0.8687 -0.6676
11157TIP3   OH254885   1.769   3.367  17.014  0.0032  0.1958 -0.3397
11157TIP3    H154886   1.722   3.290  16.981  0.5733  0.6934 -2.4353
11157TIP3    H254887   1.862   3.344  17.004  0.2024  0.4486  0.8018
11158TIP3   OH254888   2.225   1.224  15.210 -0.4004 -0.2435 -0.8358
11158TIP3    H154889   2.176   1.233  15.292 -1.1452  0.2378 -1.3261
11158TIP3    H254890   2.281   1.302  15.208 -0.6244 -0.0852 -0.9457
11159TIP3   OH254891   2.576   0.713   3.274  0.4127 -0.0194 -0.2905
11159TIP3    H154892   2.666   0.715   3.307  1.3909  1.2993 -2.7162
11159TIP3    H254893   2.570   0.629   3.228 -0.3523 -1.0439  1.5782
11160TIP3   OH254894   5.305   4.736  12.945  0.0140 -0.5123 -0.3543
11160TIP3    H154895   5.356   4.691  12.878 -0.5735 -2.5907  0.4997
11160TIP3    H254896   5.214   4.726  12.918 -0.1112  0.5648 -0.3577
11161TIP3   OH254897   2.750   2.470   5.422  0.1651 -0.4906  0.3685
11161TIP3    H154898   2.716   2.422   5.497  2.4363 -0.0496  1.7840
11161TIP3    H254899   2.781   2.554   5.459  1.9250 -0.5168 -0.8813
11162TIP3   OH254900   4.189   0.395   0.787 -0.8207 -0.1225 -0.2218
11162TIP3    H154901   4.159   0.416   0.875  0.3521 -0.2794  0.2372
11162TIP3    H254902   4.272   0.348   0.800 -1.1766 -1.1293 -1.3693
11163TIP3   OH254903   4.267   0.185   2.820 -0.1981 -0.3499  0.2510
11163TIP3    H154904   4.239   0.262   2.869 -1.6555 -0.5759 -0.1789
11163TIP3    H254905   4.191   0.127   2.820  0.0504 -0.7375 -1.5004
11164TIP3   OH254906   6.385   0.937   3.838 -0.1049  0.8716 -0.1143
11164TIP3    H154907   6.440   1.007   3.803 -0.0449  0.9464  0.1269
11164TIP3    H254908   6.447   0.874   3.874 -0.1812  1.0750  0.3829
11165TIP3   OH254909   2.982   4.841   3.317  0.3072 -0.2818  0.1026
11165TIP3    H154910   3.056   4.862   3.374  0.3202 -0.6116  0.2115
11165TIP3    H254911   2.982   4.910   3.251  0.8516 -0.4055 -0.0357
11166TIP3   OH254912   3.435   4.654  16.531 -0.2375 -0.3929  0.1450
11166TIP3    H154913   3.430   4.725  16.595 -2.2854 -0.0625 -0.2916
11166TIP3    H254914   3.493   4.688  16.462  0.0281  0.2218  0.6612
11167TIP3   OH254915   0.854   4.795  11.393 -0.0846 -0.5594 -0.1811
11167TIP3    H154916   0.931   4.798  11.450  0.3347 -0.7263 -0.7362
11167TIP3    H254917   0.889   4.781  11.305 -0.8085 -1.8988 -0.2873
11168TIP3   OH254918   1.272   3.229  13.144  0.8857 -0.0077  0.1092
11168TIP3    H154919   1.327   3.305  13.123  0.1851  0.2748 -0.7610
11168TIP3    H254920   1.266   3.229  13.239  0.8576  1.0593  0.1183
11169TIP3   OH254921   6.203   3.146   6.585 -0.4841 -0.3909  0.7722
11169TIP3    H154922   6.149   3.101   6.648  0.4159  0.1975  2.0101
11169TIP3    H254923   6.291   3.111   6.598 -0.0930  0.4686  0.5695
11170TIP3   OH254924   6.622   1.337   2.674  0.0528  0.5038 -0.4471
11170TIP3    H154925   6.700   1.323   2.621 -0.4793  0.6504 -1.2964
11170TIP3    H254926   6.558   1.374   2.613 -0.6364  0.5131  0.2608
11171TIP3   OH254927   0.519   0.183  15.770  0.0801 -0.3916 -0.5442
11171TIP3    H154928   0.589   0.246  15.756  0.9526 -1.4961 -1.3457
11171TIP3    H254929   0.450   0.209  15.708 -0.3977  0.8990  0.4848
11172TIP3   OH254930   4.801   5.229  15.684 -0.4616  0.4375 -0.5482
11172TIP3    H154931   4.826   5.254  15.595  0.1337  0.6059 -0.3368
11172TIP3    H254932   4.755   5.146  15.673  0.2723  0.0665 -0.9484
11173TIP3   OH254933   0.037   4.602   3.473  0.4653 -0.3007 -0.0183
11173TIP3    H154934   0.018   4.576   3.383  0.9911 -0.0050 -0.2155
11173TIP3    H254935  -0.006   4.687   3.484 -0.3226 -0.7246  0.2843
11174TIP3   OH254936   1.832   1.105   4.390 -0.0087 -0.0321  0.2559
11174TIP3    H154937   1.763   1.077   4.330  0.3556 -0.7657  0.1769
11174TIP3    H254938   1.800   1.080   4.477  0.6612 -1.4240  0.1163
11175TIP3   OH254939   6.016   2.263  15.793  0.5820  0.4899 -0.4249
11175TIP3    H154940   5.972   2.348  15.799  0.3067  0.4418 -1.4715
11175TIP3    H254941   5.968   2.217  15.724  1.4640 -0.0620 -0.6851
11176TIP3   OH254942   6.582   2.460   3.354  0.1996  0.2579 -0.7220
11176TIP3    H154943   6.663   2.428   3.394  1.0372 -0.2944 -2.7416
11176TIP3    H254944   6.579   2.418   3.268 -1.4848  1.4343 -1.2978
11177TIP3   OH254945   2.005   3.735   3.208  0.2667  0.3364 -0.0652
11177TIP3    H154946   2.016   3.673   3.280 -0.5990 -0.2355 -0.4153
11177TIP3    H254947   1.973   3.815   3.250 -0.2607 -0.0049  0.1801
11178TIP3   OH254948   4.803   3.771  14.701  0.0934  0.1590 -0.1968
11178TIP3    H154949   4.859   3.754  14.776 -0.2775 -0.3114 -0.0216
11178TIP3    H254950   4.833   3.710  14.634  0.3993  0.5520 -0.4228
11179TIP3   OH254951   5.517   0.279  10.936 -0.1515  0.2672 -0.6477
11179TIP3    H154952   5.580   0.234  10.992 -1.0511 -0.0408  0.1477
11179TIP3    H254953   5.448   0.214  10.920  0.4239  0.0768 -2.7727
11180TIP3   OH254954   1.488   2.666  16.113  0.0927  0.4733 -0.3167
11180TIP3    H154955   1.554   2.597  16.107  1.7266  2.0799 -1.5905
11180TIP3    H254956   1.536   2.744  16.139 -2.0406  0.7898  3.5301
11181TIP3   OH254957   2.126   4.154   6.610 -0.7683  0.0948 -0.2198
11181TIP3    H154958   2.061   4.093   6.645  1.4015 -2.8054 -0.8745
11181TIP3    H254959   2.075   4.232   6.587 -3.6132 -1.1622  1.2878
11182TIP3   OH254960   4.571   6.484   3.989 -0.1325  0.0907  0.2718
11182TIP3    H154961   4.565   6.490   3.894 -0.1381 -0.0555  0.2633
11182TIP3    H254962   4.534   6.566   4.021 -1.1217 -0.3176  0.1867
11183TIP3   OH254963   6.666   4.066   4.284 -0.3414 -0.1009  0.8484
11183TIP3    H154964   6.632   3.990   4.237  1.7144 -1.4066  1.3754
11183TIP3    H254965   6.628   4.141   4.237 -1.4466 -1.3984 -0.4528
11184TIP3   OH254966   4.664   5.076   0.199 -0.1977 -0.3843  0.2124
11184TIP3    H154967   4.726   5.113   0.262 -0.2854 -0.8905  0.6007
11184TIP3    H254968   4.578   5.087   0.240 -0.2020 -1.2642  0.4682
11185TIP3   OH254969   1.551   3.255  11.811 -0.0950  0.0708 -0.7462
11185TIP3    H154970   1.504   3.309  11.874 -1.1729 -1.0431 -0.5461
11185TIP3    H254971   1.641   3.288  11.812 -0.8134  2.1801 -1.0373
11186TIP3   OH254972   4.596   5.714   0.405  0.8414  0.3429  0.3477
11186TIP3    H154973   4.550   5.796   0.420  1.5813  0.5518  1.6526
11186TIP3    H254974   4.677   5.722   0.455  0.0514 -1.9568  2.2080
11187TIP3   OH254975   1.302   1.585   0.614  0.4695  0.5362 -0.1298
11187TIP3    H154976   1.264   1.640   0.545 -0.7560 -0.6865 -0.4851
11187TIP3    H254977   1.303   1.640   0.692  1.9277  1.9652 -1.1105
11188TIP3   OH254978   5.999   1.530  14.864 -0.0129  0.3347 -0.0571
11188TIP3    H154979   5.983   1.544  14.771  0.6586  0.0986 -0.2121
11188TIP3    H254980   6.094   1.530  14.872 -0.0443 -0.8616  0.4392
11189TIP3   OH254981   0.967   2.600  14.471 -0.2239  0.6673  0.5191
11189TIP3    H154982   1.023   2.646  14.408 -0.6036  2.2959  1.3125
11189TIP3    H254983   0.878   2.623  14.446 -0.5265 -0.8695  0.0511
11190TIP3   OH254984   2.697   6.305  14.969  0.1912 -0.4012 -0.4114
11190TIP3    H154985   2.661   6.323  14.883  0.0404  1.2333 -0.0471
11190TIP3    H254986   2.621   6.301  15.027  0.4420  2.6001  0.2827
11191TIP3   OH254987   1.174   6.502  11.122  0.1868 -0.2255  0.0126
11191TIP3    H154988   1.172   6.519  11.028  1.0575 -0.9145 -0.1332
11191TIP3    H254989   1.248   6.443  11.135  0.1213 -0.0807  1.1423
11192TIP3   OH254990   6.079   3.239   2.271 -0.4005 -0.0630  0.0847
11192TIP3    H154991   5.993   3.229   2.232 -0.7289  2.8235 -0.1664
11192TIP3    H254992   6.133   3.171   2.230 -2.6508 -2.4974  0.8626
11193TIP3   OH254993   5.699   2.670  15.466 -0.4086 -0.1364 -0.1312
11193TIP3    H154994   5.749   2.619  15.403  0.9522  0.6608  0.2666
11193TIP3    H254995   5.617   2.621  15.477  0.9519 -2.4464  0.4972
11194TIP3   OH254996   5.334   0.173   1.359 -0.1703  0.6387  0.1506
11194TIP3    H154997   5.303   0.197   1.271  3.2575 -1.0629 -1.6986
11194TIP3    H254998   5.269   0.109   1.390 -0.4294 -0.2705 -2.0473
11195TIP3   OH254999   2.296   1.004  16.046  0.6866 -0.5812 -0.1760
11195TIP3    H155000   2.386   1.036  16.049  0.9653 -1.4433  1.3253
11195TIP3    H255001   2.253   1.062  15.983  1.9956  0.5936 -0.0493
11196TIP3   OH255002   1.638   3.971  14.793  0.1583  0.4155 -0.2867
11196TIP3    H155003   1.648   4.012  14.707  1.4169 -1.7230 -1.2303
11196TIP3    H255004   1.619   3.880  14.774 -0.3103  0.0516  1.7260
11197TIP3   OH255005   4.442   3.973   2.636 -0.0009 -0.7093 -0.1803
11197TIP3    H155006   4.418   3.939   2.550 -0.0224 -1.4028  0.0977
11197TIP3    H255007   4.418   3.904   2.697 -0.4197 -0.0371  0.4340
11198TIP3   OH255008   2.828   1.077  13.427  0.0110  0.2180 -0.0325
11198TIP3    H155009   2.817   1.009  13.493  1.8612 -1.6743 -1.5106
11198TIP3    H255010   2.756   1.138  13.443 -1.2750 -1.6440  1.9010
11199TIP3   OH255011   4.577   6.562   6.460 -0.1206 -0.3426 -0.4919
11199TIP3    H155012   4.663   6.562   6.502  0.6766  0.3037 -2.0564
11199TIP3    H255013   4.515   6.566   6.533  1.2019  0.9701  0.6269
11200TIP3   OH255014   5.864   3.744   1.920  0.0936 -0.6092  0.3264
11200TIP3    H155015   5.826   3.685   1.854  0.0961 -0.8096  0.5049
11200TIP3    H255016   5.795   3.753   1.986 -1.0099  1.7668 -1.0149
11201TIP3   OH255017   1.675   2.380  14.323  0.0760  0.0288  0.1568
11201TIP3    H155018   1.718   2.399  14.406  1.9608 -1.6719 -0.3390
11201TIP3    H255019   1.607   2.316  14.345  1.0075 -0.9200  0.3223
11202TIP3   OH255020   2.241   3.641  14.567  0.1339 -0.1651  0.2794
11202TIP3    H155021   2.236   3.570  14.632 -2.0564 -0.6700 -0.3819
11202TIP3    H255022   2.156   3.684  14.571  0.5370  0.8420 -1.1314
11203TIP3   OH255023   3.325   0.968  16.954  0.7983  0.5764 -0.2126
11203TIP3    H155024   3.281   1.052  16.942  0.0886  0.6020  2.1301
11203TIP3    H255025   3.399   0.971  16.893  0.4929  2.6734 -0.5508
11204TIP3   OH255026   6.465   4.499   2.681 -0.6582  0.3041 -0.1669
11204TIP3    H155027   6.523   4.487   2.606  0.5613 -1.3124  0.9594
11204TIP3    H255028   6.414   4.577   2.659  0.5025  0.6005 -2.1142
11205TIP3   OH255029   4.898   5.418  14.412  0.7858  0.0506 -0.9781
11205TIP3    H155030   4.854   5.472  14.347 -0.1567  2.4556  1.4208
11205TIP3    H255031   4.846   5.338  14.416 -1.7982  1.6373 -0.2645
11206TIP3   OH255032   0.074   2.947  14.636 -0.7220  0.2538 -0.0837
11206TIP3    H155033   0.049   3.037  14.619  0.8122  0.5758 -0.8300
11206TIP3    H255034   0.097   2.912  14.550 -1.4067 -0.9035  0.1781
11207TIP3   OH255035   5.582   6.544   0.896  1.0515  0.4148 -0.2422
11207TIP3    H155036   5.533   6.569   0.817 -0.1252  2.4090  1.0166
11207TIP3    H255037   5.520   6.559   0.968  3.0947  1.8940  1.3312
11208TIP3   OH255038   3.628   4.181  16.112  0.6500 -0.1897  0.3077
11208TIP3    H155039   3.536   4.207  16.107  0.7462  0.2782  0.8264
11208TIP3    H255040   3.626   4.089  16.137  0.3042 -0.6301 -1.2539
11209TIP3   OH255041   2.554   3.121   1.005  0.0636 -0.2060 -0.1223
11209TIP3    H155042   2.629   3.139   0.948  0.8885  0.6200  1.1661
11209TIP3    H255043   2.584   3.049   1.062 -0.5748 -0.7011 -0.4018
11210TIP3   OH255044   0.543   0.448   6.731  0.0113  1.0012  0.4127
11210TIP3    H155045   0.590   0.526   6.762  0.9684  0.9624 -0.8171
11210TIP3    H255046   0.456   0.480   6.709  0.0932  1.5241  0.8148
11211TIP3   OH255047   5.869   3.071  16.118 -0.2131  0.0311  0.3954
11211TIP3    H155048   5.894   3.006  16.052  0.3244  2.4859 -2.0135
11211TIP3    H255049   5.946   3.078  16.175 -0.7709 -2.2955  1.5853
11212TIP3   OH255050   4.148   0.605  14.988 -0.2243 -0.5301 -0.4502
11212TIP3    H155051   4.086   0.663  14.942  0.1048 -0.6821 -1.1048
11212TIP3    H255052   4.143   0.632  15.079 -1.2897 -0.5570 -0.4796
11213TIP3   OH255053   2.153   1.332  16.556  0.1154 -0.1046 -0.0602
11213TIP3    H155054   2.240   1.305  16.529  0.3130 -0.1257  0.5668
11213TIP3    H255055   2.107   1.251  16.578  0.7014  0.0018  1.7969
11214TIP3   OH255056   4.979   0.161  16.040  0.0476 -0.1890  1.2653
11214TIP3    H155057   4.938   0.165  15.954  0.6654  0.7258  1.0068
11214TIP3    H255058   4.959   0.072  16.071  1.0744 -1.0760 -0.4512
11215TIP3   OH255059   3.473   4.628   4.660  0.0248  0.0489  0.6017
11215TIP3    H155060   3.404   4.606   4.597  0.1151  0.1257  0.4767
11215TIP3    H255061   3.428   4.682   4.725 -0.2637 -0.7455  1.0705
11216TIP3   OH255062   4.230   5.881  13.355 -0.3459  0.3094 -0.3651
11216TIP3    H155063   4.193   5.821  13.420  0.1399 -1.2676 -1.4824
11216TIP3    H255064   4.316   5.904  13.391  0.1175 -0.9203 -0.6036
11217TIP3   OH255065   4.866   3.384  16.571  0.6599 -0.3643  0.4147
11217TIP3    H155066   4.953   3.350  16.555  1.5831  1.7231  0.6197
11217TIP3    H255067   4.861   3.463  16.517 -0.5693  0.3148  1.4694
11218TIP3   OH255068   4.956   6.593   2.840  0.0426  0.4281 -0.5371
11218TIP3    H155069   4.891   6.573   2.772  1.6924  2.3187 -2.8364
11218TIP3    H255070   4.947   6.687   2.854  0.2211  0.1876  1.4261
11219TIP3   OH255071   6.724   5.624  16.513  0.1124 -0.0099 -0.5865
11219TIP3    H155072   6.731   5.690  16.582 -2.7618  0.1446 -0.3195
11219TIP3    H255073   6.673   5.668  16.444 -0.2364 -1.3267 -1.1932
11220TIP3   OH255074   5.510   2.444  14.452  0.3514 -0.1480  0.3610
11220TIP3    H155075   5.475   2.478  14.535 -0.3792 -0.6840  0.2725
11220TIP3    H255076   5.591   2.495  14.439  0.1995  0.3174  1.1271
11221TIP3   OH255077   1.022   3.880  16.224 -0.1690 -0.1708 -0.3543
11221TIP3    H155078   1.106   3.863  16.265 -1.1786 -2.7611  0.8458
11221TIP3    H255079   1.041   3.880  16.130  1.4758  1.6268 -0.0886
11222TIP3   OH255080   6.632   4.899   5.884 -0.2769  0.0989  0.0315
11222TIP3    H155081   6.650   4.982   5.842  0.6029 -0.4320 -0.6866
11222TIP3    H255082   6.680   4.903   5.967  0.5011 -0.0216 -0.4013
11223TIP3   OH255083   5.140   0.236  16.976  0.0083  0.3062  0.2842
11223TIP3    H155084   5.229   0.253  17.006  0.5676  0.7942 -1.5485
11223TIP3    H255085   5.097   0.322  16.977  0.1350  0.3879 -0.5848
11224TIP3   OH255086   4.769   1.430   4.624 -0.1021  0.1272 -0.4356
11224TIP3    H155087   4.693   1.476   4.657 -1.8046 -0.2723 -3.4062
11224TIP3    H255088   4.804   1.383   4.699 -1.6435  1.8056  1.4297
11225TIP3   OH255089   6.729   2.261  17.107  0.2941 -0.6122  0.0091
11225TIP3    H155090   6.726   2.197  17.178  0.2685  0.2082  0.7605
11225TIP3    H255091   6.701   2.212  17.029 -3.6919 -0.6096  1.2458
11226TIP3   OH255092   0.216   2.814  15.749  0.3801  0.1497  0.1214
11226TIP3    H155093   0.188   2.728  15.782  0.7221  0.1700  0.4779
11226TIP3    H255094   0.223   2.802  15.654 -3.8984  1.0070 -0.4902
11227TIP3   OH255095   0.724   1.184  13.838 -0.0122 -0.2716  0.1623
11227TIP3    H155096   0.762   1.103  13.872 -2.1563 -1.1116  0.7664
11227TIP3    H255097   0.651   1.155  13.783  0.1249  1.2381 -0.8870
11228TIP3   OH255098   6.124   0.926   1.436 -0.6588 -0.3486 -0.4472
11228TIP3    H155099   6.193   0.870   1.401  0.4442  0.6334  0.0854
11228TIP3    H255100   6.134   1.009   1.388 -0.0675  0.5164  1.1051
11229TIP3   OH255101   2.484   5.810   1.671 -0.3427 -0.1015 -0.1645
11229TIP3    H155102   2.475   5.862   1.751 -0.9861 -0.2635 -0.1309
11229TIP3    H255103   2.565   5.841   1.632 -0.6556  0.8447 -0.0766
11230TIP3   OH255104   6.579   0.345  13.622  0.0690  0.7340 -0.0837
11230TIP3    H155105   6.522   0.277  13.588 -0.6899  0.7922  1.0245
11230TIP3    H255106   6.667   0.320  13.593 -0.0312 -1.3416  1.2448
11231TIP3   OH255107   2.561   1.627  15.953  0.0792 -0.5788  0.2123
11231TIP3    H155108   2.557   1.629  15.857  0.5419 -1.5096  0.1591
11231TIP3    H255109   2.596   1.713  15.978  0.8126 -0.6659 -0.5020
11232TIP3   OH255110   1.375   0.019  11.213 -0.4496  0.2197 -0.2620
11232TIP3    H155111   1.405  -0.030  11.289 -1.5199  1.2716  0.8832
11232TIP3    H255112   1.418  -0.024  11.139  1.3550 -0.2676  0.9837
11233TIP3   OH255113   1.972   2.436   2.579 -0.6793  0.2330  0.1550
11233TIP3    H155114   1.993   2.351   2.618 -0.7270 -0.6781 -1.6919
11233TIP3    H255115   2.031   2.497   2.623  0.6379 -1.0654  0.2894
11234TIP3   OH255116   1.745   2.571  13.360  0.2557 -0.1355 -0.0059
11234TIP3    H155117   1.810   2.542  13.424 -1.2070 -1.5192  0.9416
11234TIP3    H255118   1.682   2.622  13.411  0.1382  0.4727 -0.7412
11235TIP3   OH255119   3.268   4.726  14.250 -0.0768  0.4292 -0.0332
11235TIP3    H155120   3.251   4.654  14.310  0.2480  0.0740 -0.3585
11235TIP3    H255121   3.182   4.748  14.214 -0.1537  0.0857 -0.0630
11236TIP3   OH255122   4.034   1.714   0.859 -1.0120  0.0306  0.0492
11236TIP3    H155123   4.096   1.769   0.908 -0.3968 -0.2471 -0.3958
11236TIP3    H255124   4.089   1.646   0.820 -1.4239  0.4820 -1.3798
11237TIP3   OH255125   6.741   3.699   0.230 -0.1485  0.3640 -0.7156
11237TIP3    H155126   6.656   3.738   0.248 -0.5722 -0.4870 -0.7847
11237TIP3    H255127   6.803   3.748   0.284 -0.9850 -0.3542  0.9583
11238TIP3   OH255128   5.189   5.850   3.164  0.1308  1.0078 -0.5056
11238TIP3    H155129   5.193   5.939   3.127 -1.1709  1.4684  0.3952
11238TIP3    H255130   5.248   5.799   3.109  1.7533  2.6500 -0.4135
11239TIP3   OH255131   1.949   5.594   3.806 -0.3106 -0.2547 -0.8972
11239TIP3    H155132   2.006   5.551   3.742  0.7793 -0.6751  0.3025
11239TIP3    H255133   1.896   5.523   3.843 -0.3511 -0.1517 -0.7554
11240TIP3   OH255134   6.667   2.944  12.341  0.0667  0.1621  0.3471
11240TIP3    H155135   6.668   3.039  12.344  0.6875  0.1511  0.6360
11240TIP3    H255136   6.702   2.922  12.254 -0.1030  0.1991  0.2700
11241TIP3   OH255137   1.497   1.359  13.829  0.0148 -0.0374  0.1549
11241TIP3    H155138   1.519   1.289  13.768  0.8913  0.0589  0.3473
11241TIP3    H255139   1.552   1.343  13.905  0.9450  1.3892 -0.1705
11242TIP3   OH255140   0.106   5.059  13.851 -0.2906 -0.4378  0.0185
11242TIP3    H155141   0.113   5.033  13.943 -1.3708 -0.2820  0.1536
11242TIP3    H255142   0.156   5.141  13.846  1.9991 -1.7567 -0.1265
11243TIP3   OH255143   3.408   1.606  15.478  0.0436  0.1449 -0.3293
11243TIP3    H155144   3.495   1.617  15.440  0.4272  1.5153  0.8677
11243TIP3    H255145   3.421   1.545  15.550  0.0876  0.5674  0.0271
11244TIP3   OH255146   5.867   4.404   4.110 -0.5234 -0.4858 -0.3631
11244TIP3    H155147   5.895   4.436   4.196 -1.2122  0.2313 -0.3909
11244TIP3    H255148   5.837   4.315   4.125 -1.3737 -0.0922  0.2921
11245TIP3   OH255149   1.397   0.750  16.525 -0.0251  0.3991 -0.5829
11245TIP3    H155150   1.346   0.830  16.522 -2.1094 -0.7418  1.3446
11245TIP3    H255151   1.480   0.776  16.564 -1.2038  1.4246  1.4031
11246TIP3   OH255152   2.865   6.338  14.653  0.3860 -0.1454 -0.0078
11246TIP3    H155153   2.899   6.318  14.740 -0.5193  0.6614  0.5464
11246TIP3    H255154   2.824   6.256  14.624 -0.4476 -0.0681  0.8883
11247TIP3   OH255155   6.449   5.308  10.940 -0.1413  0.3629 -0.3285
11247TIP3    H155156   6.389   5.378  10.917 -0.2178  0.9778  1.5709
11247TIP3    H255157   6.393   5.237  10.972  0.0160 -0.0693 -0.9856
11248TIP3   OH255158   3.481   2.968  12.615 -0.5432 -0.4210 -0.0186
11248TIP3    H155159   3.402   2.961  12.561 -2.2136  2.8710  1.6833
11248TIP3    H255160   3.527   3.044  12.581  1.2547 -1.4837 -0.0996
11249TIP3   OH255161   2.542   3.510   4.664  0.0443 -0.3819  0.2740
11249TIP3    H155162   2.482   3.441   4.636  0.8561 -0.6207 -0.9278
11249TIP3    H255163   2.517   3.528   4.754 -3.6979  1.4581 -0.9438
11250TIP3   OH255164   4.292   4.950  13.514  0.7293  0.2051 -0.3066
11250TIP3    H155165   4.364   4.893  13.541  0.3608 -0.6368 -1.0749
11250TIP3    H255166   4.334   5.016  13.458  0.8487 -0.5076 -1.0626
11251TIP3   OH255167   1.776   2.189  11.852 -0.0490 -0.5018 -0.3465
11251TIP3    H155168   1.715   2.262  11.858 -0.4930 -0.6275 -2.4486
11251TIP3    H255169   1.724   2.113  11.878 -0.4158 -0.4172 -0.8035
11252TIP3   OH255170   4.535   0.023   6.028 -0.7603  0.6745  0.4867
11252TIP3    H155171   4.603  -0.008   6.087  0.5080  2.8377  0.2783
11252TIP3    H255172   4.525   0.116   6.050 -2.0871  0.9225 -0.9771
11253TIP3   OH255173   1.958   2.691  11.422 -0.1425 -0.7692  0.1425
11253TIP3    H155174   1.933   2.668  11.512 -0.2713 -0.4446  0.1934
11253TIP3    H255175   1.906   2.634  11.367 -0.5443 -0.5259  0.2627
11254TIP3   OH255176   5.232   5.199   2.238 -0.1184 -0.3846 -0.3165
11254TIP3    H155177   5.246   5.176   2.146 -1.3833  0.6862 -0.8006
11254TIP3    H255178   5.278   5.130   2.287 -0.6181 -1.7887 -1.7282
11255TIP3   OH255179   1.455   5.237   5.928  0.0583  0.1211  0.3659
11255TIP3    H155180   1.375   5.248   5.980 -0.7987  1.9707 -1.2048
11255TIP3    H255181   1.525   5.228   5.992 -1.0815  1.3103  1.8389
11256TIP3   OH255182   2.279   1.974   4.116 -0.0386  0.8437 -0.1099
11256TIP3    H155183   2.235   1.916   4.054  0.6857  0.7433 -0.5352
11256TIP3    H255184   2.272   1.929   4.200  0.3298  0.2404 -0.3951
11257TIP3   OH255185   4.600   0.308   4.451  0.2081  0.1597 -0.0899
11257TIP3    H155186   4.512   0.272   4.438  0.3260 -0.5190  0.9164
11257TIP3    H255187   4.586   0.402   4.460 -0.1223  0.4082 -2.5250
11258TIP3   OH255188   0.801   1.433  15.546  0.3054  0.0154  0.2184
11258TIP3    H155189   0.873   1.424  15.609  1.1740  1.3746 -0.5277
11258TIP3    H255190   0.733   1.375  15.579  1.4772 -0.7847  1.3371
11259TIP3   OH255191   0.142   3.009   1.836 -0.2306 -0.1749 -0.3019
11259TIP3    H155192   0.193   3.084   1.867 -1.4673  0.4722  0.1945
11259TIP3    H255193   0.106   3.037   1.752 -0.3627 -0.3641 -0.3091
11260TIP3   OH255194   1.512   1.577   5.418  0.1603 -0.4875 -0.1301
11260TIP3    H155195   1.538   1.661   5.380  2.0711 -0.6675  0.6862
11260TIP3    H255196   1.555   1.575   5.504 -0.5717 -1.9203  0.2250
11261TIP3   OH255197   3.230   3.741   1.322 -0.4275 -0.0663  0.2715
11261TIP3    H155198   3.283   3.663   1.335 -1.2434 -0.3867  2.0668
11261TIP3    H255199   3.290   3.804   1.282  0.8285 -0.9548  0.6806
11262TIP3   OH255200   1.806   6.697   6.295 -0.3162 -0.6431 -0.0079
11262TIP3    H155201   1.797   6.711   6.390 -1.5081 -1.5049  0.0250
11262TIP3    H255202   1.782   6.606   6.282 -0.0797 -0.5560 -1.1504
11263TIP3   OH255203   3.801   2.540  17.264  0.3223  0.3219  0.4492
11263TIP3    H155204   3.884   2.557  17.309  0.9217 -2.4286  0.5882
11263TIP3    H255205   3.771   2.626  17.235  3.5008  1.3833 -0.0987
11264TIP3   OH255206   2.919   5.220  16.386 -0.1742  0.9143  0.0368
11264TIP3    H155207   2.864   5.146  16.412  0.0329  1.7036  3.0928
11264TIP3    H255208   2.986   5.181  16.329 -1.9375 -0.6087 -1.1220
11265TIP3   OH255209   0.834   2.936   1.497 -0.0199 -0.3987  0.0542
11265TIP3    H155210   0.764   2.915   1.559  1.9447 -1.0863  2.1399
11265TIP3    H255211   0.854   3.028   1.514 -0.5136 -0.1429 -0.6876
11266TIP3   OH255212   0.661   1.062  12.106 -0.1061  0.0921  0.7071
11266TIP3    H155213   0.646   1.156  12.118  1.0843  0.3231  0.5484
11266TIP3    H255214   0.721   1.057  12.032 -0.9091 -0.8636  0.0893
11267TIP3   OH255215   5.735   2.211  11.895  0.2045 -0.5408  0.0138
11267TIP3    H155216   5.704   2.210  11.986  1.4969  1.1697  0.5088
11267TIP3    H255217   5.655   2.200  11.843 -1.0852  2.0788  1.2772
11268TIP3   OH255218   1.549   1.789   5.264  0.0117 -0.1274  0.0510
11268TIP3    H155219   1.599   1.865   5.294 -0.0106  0.8226 -2.1345
11268TIP3    H255220   1.459   1.821   5.256 -0.0671 -0.4654 -0.5226
11269TIP3   OH255221   3.177   6.701   5.437 -0.1504  0.0668  0.4636
11269TIP3    H155222   3.172   6.783   5.388  0.2647 -0.3842 -0.3704
11269TIP3    H255223   3.093   6.693   5.480 -0.5673  0.4385 -0.2663
11270TIP3   OH255224   2.126   5.865  16.621  0.8710  0.1103 -0.4949
11270TIP3    H155225   2.096   5.860  16.530  0.9486 -1.5808 -0.4600
11270TIP3    H255226   2.046   5.871  16.673  0.8008  0.4535 -0.6409
11271TIP3   OH255227   0.828   6.731   0.292  0.2438  0.1213  0.3201
11271TIP3    H155228   0.865   6.672   0.357  1.7531 -0.7961 -1.2801
11271TIP3    H255229   0.874   6.814   0.306 -0.3066  0.2955  1.1646
11272TIP3   OH255230   1.747   6.181  11.613 -0.6867 -0.7314 -0.4593
11272TIP3    H155231   1.758   6.159  11.521 -0.6576 -0.2901 -0.5626
11272TIP3    H255232   1.817   6.243  11.631 -2.6245  1.7398 -0.9896
11273TIP3   OH255233   0.392   0.310   5.284 -0.4377 -0.5959  0.2135
11273TIP3    H155234   0.318   0.356   5.324 -0.3174 -1.8161  1.9811
11273TIP3    H255235   0.374   0.218   5.302  0.1168 -1.1434 -1.8453
11274TIP3   OH255236   6.242   0.540  15.335 -0.0787  0.8170 -0.1040
11274TIP3    H155237   6.305   0.589  15.389  0.4552  0.0962 -0.0565
11274TIP3    H255238   6.289   0.460  15.311 -0.6136  0.7455 -0.9405
11275TIP3   OH255239   4.822   0.595  12.221  0.3211  0.7013 -0.0325
11275TIP3    H155240   4.744   0.582  12.274  0.7266 -0.3834  0.3251
11275TIP3    H255241   4.854   0.682  12.246 -0.2705  0.7784  0.4669
11276TIP3   OH255242   5.196   3.199  11.330  0.0293  0.2466 -0.1652
11276TIP3    H155243   5.184   3.133  11.398 -1.4458 -1.0176 -1.5700
11276TIP3    H255244   5.282   3.178  11.292 -0.2544 -0.6436 -0.3423
11277TIP3   OH255245   3.370   2.870   3.712  0.1265  0.3497  0.0984
11277TIP3    H155246   3.421   2.790   3.698  0.2960  0.4965 -0.1441
11277TIP3    H255247   3.298   2.864   3.649  0.3213  0.5355 -0.1487
11278TIP3   OH255248   2.352   5.602   4.075 -0.2726 -0.2213 -0.0207
11278TIP3    H155249   2.444   5.577   4.062  0.2468  0.5546  1.8334
11278TIP3    H255250   2.307   5.518   4.087  0.6501 -0.5617  1.4700
11279TIP3   OH255251   0.535   5.506  12.506 -0.1538  0.0914  0.6275
11279TIP3    H155252   0.512   5.439  12.441 -0.7444  0.8132  0.0705
11279TIP3    H255253   0.629   5.516  12.497 -0.1131 -0.3979  0.4501
11280TIP3   OH255254   4.939   4.743  13.566 -0.0534  0.2771 -0.1995
11280TIP3    H155255   4.916   4.797  13.491 -0.1828 -0.5120 -0.7432
11280TIP3    H255256   5.005   4.683  13.533 -0.4301 -0.3708  0.1991
11281TIP3   OH255257   5.463   5.152  15.124  0.2546 -0.1757 -0.2161
11281TIP3    H155258   5.389   5.096  15.147  2.2133 -3.5124 -1.3262
11281TIP3    H255259   5.535   5.120  15.179  0.8914  3.2386  1.1538
11282TIP3   OH255260   2.192   3.535   4.791 -0.2818 -0.7676  0.5852
11282TIP3    H155261   2.210   3.556   4.699  0.6638  0.8699  1.1047
11282TIP3    H255262   2.268   3.569   4.838 -0.0035 -2.9865  1.8422
11283TIP3   OH255263   4.178   3.378   4.677  0.1603 -0.1364  0.6190
11283TIP3    H155264   4.119   3.403   4.749 -0.6884  0.1713 -0.1693
11283TIP3    H255265   4.247   3.444   4.679 -1.2166  1.3975 -0.4373
11284TIP3   OH255266   3.702   2.532   1.377 -0.3563  0.2785 -0.4874
11284TIP3    H155267   3.762   2.457   1.369 -0.0994  0.5340 -0.9766
11284TIP3    H255268   3.705   2.575   1.292  0.9864  1.9763  0.3533
11285TIP3   OH255269   6.371   5.403   3.442 -0.0526  0.1177 -0.0657
11285TIP3    H155270   6.408   5.315   3.429 -1.0423 -0.6889  2.1470
11285TIP3    H255271   6.277   5.388   3.454 -0.2666  1.5183  0.1833
11286TIP3   OH255272   0.826   5.151  16.332 -0.0649 -0.3783  0.1523
11286TIP3    H155273   0.884   5.201  16.275 -0.4243  0.8041  0.7698
11286TIP3    H255274   0.884   5.096  16.384  0.4156 -0.0821 -0.0637
11287TIP3   OH255275   0.027   0.806  16.329 -0.4071  1.1523  0.3428
11287TIP3    H155276   0.042   0.714  16.351 -0.2651  1.1174  0.1023
11287TIP3    H255277  -0.041   0.835  16.390 -0.2209  0.9767  0.6358
11288TIP3   OH255278   2.248   3.381  13.862 -0.3191  0.0189 -0.0571
11288TIP3    H155279   2.162   3.421  13.873  0.0722  0.7538  0.4085
11288TIP3    H255280   2.269   3.393  13.769 -1.1923 -1.1661 -0.4285
11289TIP3   OH255281   1.841   3.027   2.025  0.0815 -0.0488 -0.6283
11289TIP3    H155282   1.817   3.113   1.991  0.1870  0.2604  0.0570
11289TIP3    H255283   1.931   3.014   1.995  0.3201  0.4043 -0.1318
11290TIP3   OH255284   0.006   2.407  12.636 -0.3090  0.1789 -0.5528
11290TIP3    H155285  -0.035   2.339  12.690 -0.2490  1.0288  0.5917
11290TIP3    H255286  -0.024   2.489  12.674  0.8602  0.8112 -0.9473
11291TIP3   OH255287   4.375   6.751   0.184  0.2010  0.1520 -0.2824
11291TIP3    H155288   4.345   6.708   0.104  0.1555 -0.0898 -0.1377
11291TIP3    H255289   4.467   6.724   0.193  1.1610  2.5817 -1.8695
11292TIP3   OH255290   2.796   2.657  17.105 -0.6176 -0.0968 -0.9375
11292TIP3    H155291   2.760   2.739  17.073  0.4894  0.8730  0.1922
11292TIP3    H255292   2.872   2.641  17.050  0.0805  0.4847 -0.1662
11293TIP3   OH255293   5.119   1.390   3.443 -0.3308 -0.2640 -0.3750
11293TIP3    H155294   5.071   1.307   3.444 -1.8913  0.5703  1.3919
11293TIP3    H255295   5.205   1.367   3.408 -1.3194 -2.2385 -1.7379
11294TIP3   OH255296   5.862   5.693   3.244 -0.6714  0.1216  0.1678
11294TIP3    H155297   5.826   5.779   3.266 -3.3655 -1.0689  0.9005
11294TIP3    H255298   5.821   5.671   3.160 -1.2251 -1.0199  0.7118
11295TIP3   OH255299   3.735   4.339   1.413 -0.0941  0.1917  0.0900
11295TIP3    H155300   3.741   4.308   1.504  0.2229  0.6977  0.2452
11295TIP3    H255301   3.766   4.430   1.417  0.5231  0.0141 -0.6368
11296TIP3   OH255302   6.665   0.521   4.848 -0.0750 -0.3688  0.3448
11296TIP3    H155303   6.676   0.557   4.760  3.8257 -1.1403  0.3549
11296TIP3    H255304   6.650   0.597   4.904 -2.1588  0.1663 -0.8205
11297TIP3   OH255305   0.989   4.626  15.449  0.9574  0.4087 -0.0417
11297TIP3    H155306   0.985   4.715  15.484  1.7441  0.4371 -0.0041
11297TIP3    H255307   0.906   4.586  15.476  0.3643  1.2846 -0.4958
11298TIP3   OH255308   1.860   0.511   4.066  0.7325 -0.1217 -0.4915
11298TIP3    H155309   1.947   0.472   4.068  0.4491 -0.7376  0.8525
11298TIP3    H255310   1.856   0.566   4.145  0.0949  0.3381 -0.8282
11299TIP3   OH255311   1.414   3.113   1.043 -0.1120  0.4288  0.0781
11299TIP3    H155312   1.477   3.105   0.972 -1.0668 -0.0619 -0.7347
11299TIP3    H255313   1.419   3.028   1.088 -0.1661  0.4084  0.0452
11300TIP3   OH255314   6.488   4.236   5.984 -0.3714 -0.6350  0.0969
11300TIP3    H155315   6.439   4.263   5.907  0.4512 -1.2947 -0.6820
11300TIP3    H255316   6.579   4.260   5.964 -0.4184  1.2393  1.8097
11301TIP3   OH255317   1.512   2.724   3.075 -0.2632 -0.0772  0.4915
11301TIP3    H155318   1.508   2.660   3.146  1.1644 -0.3138  0.3969
11301TIP3    H255319   1.604   2.726   3.050 -0.7298 -0.0160 -1.3795
11302TIP3   OH255320   1.603   1.792   2.743  0.0378  0.0737 -0.1618
11302TIP3    H155321   1.542   1.822   2.811  0.1341 -2.2957  1.0838
11302TIP3    H255322   1.684   1.839   2.761 -0.8237  1.7858 -0.6085
11303TIP3   OH255323   5.102   0.268   0.904 -0.7423  0.0801  0.0195
11303TIP3    H155324   5.132   0.304   0.987  0.2642  0.5941 -0.5452
11303TIP3    H255325   5.181   0.235   0.862 -1.2505 -0.2607 -0.6906
11304TIP3   OH255326   1.080   4.251  11.579 -0.2741  0.0073  0.5484
11304TIP3    H155327   1.163   4.208  11.595 -1.0975 -0.6672  3.6446
11304TIP3    H255328   1.098   4.316  11.511  2.6072 -0.5124  0.7316
11305TIP3   OH255329   6.205   2.592   5.925 -0.2373  1.1220 -0.2381
11305TIP3    H155330   6.180   2.555   6.010  0.3305 -0.4393 -0.7181
11305TIP3    H255331   6.284   2.642   5.944  1.0308 -0.7955 -0.1067
11306TIP3   OH255332   3.068   3.380  16.070 -0.1171 -0.5091  0.0216
11306TIP3    H155333   3.100   3.369  16.160  0.7331  1.3110 -0.0103
11306TIP3    H255334   3.008   3.454  16.074 -1.3405 -1.4357 -0.6481
11307TIP3   OH255335   2.833   1.507  12.386  0.6088 -0.4016 -0.4641
11307TIP3    H155336   2.886   1.432  12.413  0.0068 -0.7598 -0.2672
11307TIP3    H255337   2.835   1.504  12.291 -0.6500 -1.5790 -0.4901
11308TIP3   OH255338   6.405   4.819  14.996 -0.0098 -0.4589  0.3491
11308TIP3    H155339   6.446   4.779  14.920  0.2846 -1.4396  1.0025
11308TIP3    H255340   6.474   4.821  15.063  0.1361  1.6237  0.2019
11309TIP3   OH255341   2.000   3.968   4.468  0.5095 -0.3282  0.5177
11309TIP3    H155342   1.989   4.056   4.433  1.3598 -0.3011  0.2834
11309TIP3    H255343   1.912   3.931   4.472  0.3680 -0.3769 -1.7708
11310TIP3   OH255344   3.093   4.062  12.858  0.0543 -0.8419  0.4172
11310TIP3    H155345   3.135   4.122  12.797 -0.3704  0.6309  1.4931
11310TIP3    H255346   3.000   4.084  12.853 -0.0582 -1.1026  1.1374
11311TIP3   OH255347   2.375   4.574   6.124 -0.6025 -0.4082  0.0739
11311TIP3    H155348   2.456   4.549   6.170  0.4188 -0.3321 -1.5706
11311TIP3    H255349   2.324   4.493   6.121  0.9674 -1.4484 -1.8102
11312TIP3   OH255350   1.336   3.985   5.801 -0.6275 -0.0749  0.1236
11312TIP3    H155351   1.372   3.981   5.712 -3.8926 -0.3476 -1.3391
11312TIP3    H255352   1.345   3.896   5.835 -0.8043 -0.3776 -0.6041
11313TIP3   OH255353   3.466   6.088  15.566  0.2529 -0.0702  0.5542
11313TIP3    H155354   3.438   6.007  15.608 -0.1308 -1.3414 -1.9881
11313TIP3    H255355   3.561   6.079  15.556  0.6975  1.1845  2.9250
11314TIP3   OH255356   0.033   1.598  13.652 -0.8994 -0.3730  0.4259
11314TIP3    H155357   0.093   1.660  13.611 -0.7325 -0.8984 -0.1304
11314TIP3    H255358  -0.054   1.637  13.640 -0.6636  0.4626  1.3722
11315TIP3   OH255359   1.204   1.684  15.656  0.0861 -0.2004 -0.2269
11315TIP3    H155360   1.254   1.636  15.590  0.3834  0.7571 -0.7150
11315TIP3    H255361   1.164   1.757  15.608  0.0896  0.3570  0.5943
11316TIP3   OH255362   4.641   2.799   1.184 -0.0603 -0.0951  0.1310
11316TIP3    H155363   4.584   2.800   1.261 -0.5417 -1.1208 -0.1977
11316TIP3    H255364   4.628   2.885   1.144  0.3665  0.5367  1.3020
11317TIP3   OH255365   3.123   4.698  12.890 -0.0097 -0.1804 -0.0874
11317TIP3    H155366   3.075   4.692  12.973 -1.4784  0.0048 -0.8878
11317TIP3    H255367   3.158   4.610  12.876 -1.1331 -0.6479 -0.0620
11318TIP3   OH255368   4.840   5.829  14.389 -0.1299 -0.2719  0.1083
11318TIP3    H155369   4.846   5.882  14.468  0.6855 -0.2067  0.0163
11318TIP3    H255370   4.754   5.787  14.394  0.9487 -2.4900  2.4642
11319TIP3   OH255371   4.645   3.444  14.520  0.2565 -0.2112 -0.6134
11319TIP3    H155372   4.620   3.368  14.573  0.7319 -1.2954 -1.9118
11319TIP3    H255373   4.572   3.505  14.530 -0.3974 -1.0732 -0.0314
11320TIP3   OH255374   5.310   1.702  14.858 -0.5831  0.0969 -0.2763
11320TIP3    H155375   5.281   1.755  14.933 -1.6143 -1.1290  0.2364
11320TIP3    H255376   5.230   1.684  14.809 -0.4802 -1.9475  0.2227
11321TIP3   OH255377   4.238   6.610   0.007 -0.0853 -0.1057 -0.3224
11321TIP3    H155378   4.149   6.606  -0.030  0.4859  1.5470 -2.0077
11321TIP3    H255379   4.294   6.574  -0.062  0.7205  0.2623  0.1312
11322TIP3   OH255380   5.553   4.133  12.033  0.8505 -0.6751  0.0611
11322TIP3    H155381   5.483   4.132  11.968 -0.4330 -1.9977  1.3935
11322TIP3    H255382   5.616   4.067  12.002  2.8695  2.1479 -2.4151
11323TIP3   OH255383   2.210   4.882  16.363 -0.4225  0.0448 -0.3927
11323TIP3    H155384   2.255   4.951  16.411  1.3547 -1.1011 -0.3443
11323TIP3    H255385   2.140   4.853  16.421 -0.7139  1.2559 -0.1099
11324TIP3   OH255386   3.495   4.961   3.233 -0.2844  0.0168  0.4388
11324TIP3    H155387   3.574   5.015   3.230  0.5039 -1.1303 -1.5834
11324TIP3    H255388   3.518   4.889   3.292 -0.1023  0.1048  0.4774
11325TIP3   OH255389   2.461   4.949   2.554 -0.2224 -0.0026 -0.3484
11325TIP3    H155390   2.494   5.030   2.515 -0.2863  0.4798  0.5608
11325TIP3    H255391   2.496   4.879   2.498  0.5564  0.6113 -0.6489
11326TIP3   OH255392   2.842   0.269  15.562  0.2594 -0.8248  0.1391
11326TIP3    H155393   2.893   0.290  15.484  1.2793  0.7546  1.1783
11326TIP3    H255394   2.880   0.323  15.631  0.2169 -3.0433  2.0401
11327TIP3   OH255395   3.746   3.051   6.148 -0.1650  0.2759  0.3458
11327TIP3    H155396   3.717   3.143   6.142 -0.6383  0.1666  0.8789
11327TIP3    H255397   3.723   3.025   6.237  0.0464 -0.3372  0.2201
11328TIP3   OH255398   2.349   0.579  17.134  0.2369 -0.0528 -0.5382
11328TIP3    H155399   2.277   0.526  17.101  0.3869  0.6009 -1.9749
11328TIP3    H255400   2.355   0.556  17.227 -1.2765 -0.7218 -0.5829
11329TIP3   OH255401   2.784   6.300   0.158 -0.3161  0.0172 -0.2903
11329TIP3    H155402   2.722   6.367   0.129 -0.4886 -0.6711 -1.5817
11329TIP3    H255403   2.861   6.349   0.185 -0.0427  0.7260 -2.1962
11330TIP3   OH255404   1.778   2.077   3.773  0.2703 -1.0385 -0.2820
11330TIP3    H155405   1.775   2.076   3.678 -0.0660 -1.5175 -0.2705
11330TIP3    H255406   1.832   2.153   3.795 -0.1560 -0.5646 -0.8414
11331TIP3   OH255407   4.391   4.000  12.350 -0.0483  0.8011  0.5387
11331TIP3    H155408   4.452   4.061  12.309  0.1182  0.1879 -0.1548
11331TIP3    H255409   4.443   3.922  12.366 -0.7073  0.1392 -0.3810
11332TIP3   OH255410   0.841   5.799  15.332 -0.4679 -0.2221  0.2991
11332TIP3    H155411   0.746   5.812  15.332 -0.5615 -0.7129  1.4600
11332TIP3    H255412   0.852   5.705  15.348  0.2161 -0.4001 -1.1316
11333TIP3   OH255413   3.714   3.888  15.020  0.3960  0.0381  0.2437
11333TIP3    H155414   3.768   3.941  14.962  0.4308 -0.9556 -0.6593
11333TIP3    H255415   3.628   3.886  14.977  0.5059 -0.9616  0.0631
11334TIP3   OH255416   0.525   2.918  13.034  0.0719  0.0909  0.2678
11334TIP3    H155417   0.585   2.962  12.974  0.2820 -0.9143 -0.2756
11334TIP3    H255418   0.564   2.832  13.049 -0.7180 -0.2032  0.7017
11335TIP3   OH255419   4.881   5.858   4.226 -0.9080 -0.4257  0.3374
11335TIP3    H155420   4.951   5.808   4.185  0.7035  0.6520  1.6460
11335TIP3    H255421   4.888   5.945   4.187 -2.7342 -0.7506 -0.8452
11336TIP3   OH255422   1.946   4.061   4.774  0.1766  0.1946 -0.1425
11336TIP3    H155423   1.954   3.968   4.795  0.1849 -0.1117 -1.3861
11336TIP3    H255424   2.037   4.091   4.765  0.1653  0.1750 -0.3259
11337TIP3   OH255425   4.135   0.052  16.544 -0.2243 -0.8544  0.6131
11337TIP3    H155426   4.158  -0.003  16.469 -1.1026 -1.2268  0.5962
11337TIP3    H255427   4.039   0.047  16.548 -0.1496 -1.3600  2.1670
11338TIP3   OH255428   4.396   1.104  11.973 -0.9788 -0.3986 -0.0610
11338TIP3    H155429   4.381   1.197  11.956  0.2732  0.1318  1.5000
11338TIP3    H255430   4.450   1.075  11.899 -1.7646 -0.0258 -0.8001
11339TIP3   OH255431   2.484   3.464   3.349  0.0004 -0.4412 -0.6413
11339TIP3    H155432   2.494   3.414   3.267  0.1625 -0.0355 -0.8742
11339TIP3    H255433   2.573   3.488   3.373 -0.0992 -0.0304 -0.6786
11340TIP3   OH255434   5.603   4.540   0.079 -0.0269 -0.1159  0.0065
11340TIP3    H155435   5.568   4.558  -0.009  1.8839  0.9556 -0.5999
11340TIP3    H255436   5.537   4.575   0.138 -2.1075 -2.2353 -0.8999
11341TIP3   OH255437   0.805   2.918  13.787 -0.2394 -0.2038 -0.0651
11341TIP3    H155438   0.732   2.896  13.845 -0.1604  1.3631  0.6955
11341TIP3    H255439   0.784   2.874  13.705 -1.0452 -1.3742  0.7213
11342TIP3   OH255440   3.126   2.377  14.558  0.2366 -0.0938  0.2121
11342TIP3    H155441   3.075   2.304  14.593 -1.9573  2.6382  3.4261
11342TIP3    H255442   3.081   2.400  14.476  0.0115 -1.3868 -0.0400
11343TIP3   OH255443   6.107   4.497   3.454  0.0303 -0.0777  0.2081
11343TIP3    H155444   6.198   4.467   3.448 -0.3751 -1.5525  0.9114
11343TIP3    H255445   6.094   4.517   3.546 -0.2763  0.4646  0.0556
11344TIP3   OH255446   2.823   2.892   4.061  0.7706  0.2150  0.1213
11344TIP3    H155447   2.838   2.985   4.045  1.2245  0.4964  1.9543
11344TIP3    H255448   2.728   2.884   4.069  0.6231  0.2655 -1.3057
11345TIP3   OH255449   6.364   3.635   2.539 -0.5227  1.0939 -0.3607
11345TIP3    H155450   6.386   3.728   2.549  3.4478  0.3279 -0.0001
11345TIP3    H255451   6.301   3.632   2.468 -1.4607  4.0963  0.2159
11346TIP3   OH255452   0.417   6.156   1.263  0.3952 -0.1275  0.1851
11346TIP3    H155453   0.451   6.243   1.284 -0.6963  0.0876  1.1403
11346TIP3    H255454   0.380   6.124   1.345 -0.0425 -1.1089 -0.3825
11347TIP3   OH255455   6.098   1.009  15.509  0.4252  0.2727  0.2135
11347TIP3    H155456   6.013   1.043  15.479  0.7596 -0.3356 -1.5316
11347TIP3    H255457   6.075   0.933  15.563 -0.1629  0.6117  0.4530
11348TIP3   OH255458   2.031   4.908  13.725  0.3495  0.4422 -0.0189
11348TIP3    H155459   1.943   4.915  13.688  0.2992  2.0692  0.3316
11348TIP3    H255460   2.021   4.936  13.816  1.0010 -0.6112  0.3897
11349TIP3   OH255461   2.184   4.968   2.507  0.0281 -0.7617  0.6080
11349TIP3    H155462   2.277   4.957   2.527 -0.4301 -0.6821  3.0071
11349TIP3    H255463   2.180   5.048   2.454  1.1614  0.4498  2.2461
11350TIP3   OH255464   4.458   3.981   3.904  0.5354  0.0471  0.1958
11350TIP3    H155465   4.397   4.030   3.848  1.3866 -0.3036 -1.1035
11350TIP3    H255466   4.402   3.927   3.959 -0.3548  0.1470 -0.5761
11351TIP3   OH255467   1.333   1.792  16.615 -0.1433 -0.1794  0.0228
11351TIP3    H155468   1.297   1.723  16.559 -2.7059  2.0717 -1.3402
11351TIP3    H255469   1.375   1.852  16.553 -0.1273  0.7367  0.9117
11352TIP3   OH255470   3.875   2.517  16.430 -0.1359 -0.1188  0.1403
11352TIP3    H155471   3.876   2.529  16.525 -0.7958 -0.1349  0.1515
11352TIP3    H255472   3.839   2.429  16.418 -1.2251  0.3471 -0.1615
11353TIP3   OH255473   0.038   3.059  12.618 -0.7391 -0.6507 -0.5902
11353TIP3    H155474  -0.001   3.114  12.551  1.3577  1.4214 -0.2111
11353TIP3    H255475  -0.010   3.081  12.698 -2.3533 -2.1625 -1.0770
11354TIP3   OH255476   4.841   0.649   4.954 -0.1444 -0.2520 -0.0400
11354TIP3    H155477   4.796   0.644   4.869  0.5480  0.2169 -0.4449
11354TIP3    H255478   4.934   0.646   4.931  0.0676  0.8405  0.6386
11355TIP3   OH255479   4.668   4.322   3.393  0.3006 -0.8621  0.0405
11355TIP3    H155480   4.614   4.292   3.320  0.6604 -0.4906 -0.3864
11355TIP3    H255481   4.720   4.394   3.357 -0.0778 -0.1497  0.8642
11356TIP3   OH255482   0.276   6.098  13.407  0.2979  0.4589  0.3699
11356TIP3    H155483   0.368   6.081  13.388  0.6895  1.9519  0.8768
11356TIP3    H255484   0.275   6.135  13.495 -0.8629 -0.1525  0.6400
11357TIP3   OH255485   3.170   4.552   0.167 -0.8277 -0.0918  0.0865
11357TIP3    H155486   3.263   4.529   0.156 -0.6675  0.2913  0.6094
11357TIP3    H255487   3.123   4.473   0.140 -0.4251  0.2822 -1.8282
11358TIP3   OH255488   1.309   5.933  13.964  0.0464 -0.0514 -0.2411
11358TIP3    H155489   1.224   5.961  13.931  0.9781  0.0817 -2.8157
11358TIP3    H255490   1.368   6.007  13.946  1.0747 -0.8731 -0.3868
11359TIP3   OH255491   6.584   5.105  16.324 -0.1500  0.3491  0.3574
11359TIP3    H155492   6.531   5.070  16.253  0.4305  0.6503 -0.2391
11359TIP3    H255493   6.633   5.029  16.357  0.2848  0.3792 -0.2023
11360TIP3   OH255494   0.805   2.526  15.561 -0.0443 -0.0572  0.1993
11360TIP3    H155495   0.734   2.464  15.543  0.2167  0.1353 -1.7135
11360TIP3    H255496   0.876   2.472  15.595 -1.2837 -0.1619  2.9365
11361TIP3   OH255497   2.609   5.469  16.930  0.0049 -0.7757  0.3818
11361TIP3    H155498   2.623   5.488  16.838  1.1702  0.1183  0.7169
11361TIP3    H255499   2.657   5.387  16.946 -0.6092 -1.1973  0.0980
11362TIP3   OH255500   6.543   1.528  16.422  0.2527  0.0260 -0.3191
11362TIP3    H155501   6.475   1.465  16.445  0.4955  0.4823  1.9352
11362TIP3    H255502   6.624   1.489  16.457  0.4205  1.4813  0.9994
11363TIP3   OH255503   0.933   1.877  13.609  0.2398  0.0607  0.4755
11363TIP3    H155504   1.009   1.846  13.560 -0.4957 -0.4230 -0.4023
11363TIP3    H255505   0.930   1.821  13.687  1.2053  0.5813  0.8929
11364TIP3   OH255506   6.451   3.118  11.962  0.0797 -0.3636 -0.1505
11364TIP3    H155507   6.400   3.197  11.945  0.8704  0.1315 -0.2833
11364TIP3    H255508   6.542   3.145  11.950  0.3248 -1.5185 -1.1655
11365TIP3   OH255509   0.458   4.730   5.344 -0.1109 -0.4234  0.2139
11365TIP3    H155510   0.414   4.653   5.380 -0.0043  0.1077  1.5165
11365TIP3    H255511   0.415   4.804   5.385  1.1311  0.1437  0.5488
11366TIP3   OH255512   5.307   5.630  13.633 -0.2408 -0.0029  0.1521
11366TIP3    H155513   5.315   5.712  13.584 -2.2951 -0.0125 -0.2925
11366TIP3    H255514   5.227   5.641  13.684  0.2228 -1.2032  1.1898
11367TIP3   OH255515   2.494   0.340   0.194 -1.1659  0.3107  0.0637
11367TIP3    H155516   2.584   0.317   0.214 -1.8139 -2.2861  0.3625
11367TIP3    H255517   2.480   0.307   0.105 -1.3512  2.2538 -0.6640
11368TIP3   OH255518   2.754   2.607  11.473  0.2809  0.2976  0.4755
11368TIP3    H155519   2.783   2.545  11.405 -0.8629  0.4255 -0.1461
11368TIP3    H255520   2.725   2.684  11.425  1.3791  1.2172  1.2306
11369TIP3   OH255521   4.739   4.402  11.783 -0.4091 -0.5950 -0.2533
11369TIP3    H155522   4.827   4.393  11.746 -0.5086 -1.8527 -0.2249
11369TIP3    H255523   4.713   4.313  11.805 -0.9759 -0.0508  1.4488
11370TIP3   OH255524   4.316   1.162  15.832 -0.0652  0.9290  0.2137
11370TIP3    H155525   4.286   1.112  15.908  0.0567 -0.0191 -0.3498
11370TIP3    H255526   4.322   1.252  15.864 -1.0236  0.7175  1.0378
11371TIP3   OH255527   2.183   0.031  13.146  0.4330  0.1527 -0.2223
11371TIP3    H155528   2.194   0.076  13.230  2.4667 -0.2318 -0.2202
11371TIP3    H255529   2.183   0.101  13.081  2.2213  0.3099 -0.1160
11372TIP3   OH255530   4.677   1.589   1.283 -0.0292  0.4840 -0.2395
11372TIP3    H155531   4.704   1.541   1.205 -1.8328 -0.0123 -0.6048
11372TIP3    H255532   4.732   1.667   1.284  1.8153 -0.7488 -0.5598
11373TIP3   OH255533   1.362   3.191  10.715 -0.2572 -0.3032  0.2543
11373TIP3    H155534   1.442   3.241  10.701 -1.2370  0.6721 -2.7323
11373TIP3    H255535   1.390   3.100  10.711  0.9919 -0.0377  1.7865
11374TIP3   OH255536   6.345   4.543   1.725 -0.0167 -0.6587  0.1566
11374TIP3    H155537   6.305   4.461   1.753  2.1113 -1.5178  0.9752
11374TIP3    H255538   6.312   4.558   1.636 -0.7421 -2.2045  0.1379
11375TIP3   OH255539   3.403   5.666   4.796 -0.1855  0.0231  0.3133
11375TIP3    H155540   3.325   5.721   4.795  0.4758  0.9807 -0.3002
11375TIP3    H255541   3.458   5.701   4.725  0.0991 -1.6608 -0.3537
11376TIP3   OH255542   5.399   5.183   0.239  0.1867  0.0615  0.5671
11376TIP3    H155543   5.441   5.097   0.242 -0.2597 -0.1668  0.3543
11376TIP3    H255544   5.317   5.172   0.286 -0.8364 -0.1852 -1.1802
11377TIP3   OH255545   3.420   3.752  14.593  0.4007  0.0357  0.0068
11377TIP3    H155546   3.381   3.683  14.539 -0.1170 -0.0341  0.4647
11377TIP3    H255547   3.440   3.822  14.531  0.1496 -0.1852 -0.3302
11378TIP3   OH255548   5.170   5.538   1.944 -0.2541  0.2927  0.1706
11378TIP3    H155549   5.204   5.619   1.904 -0.4399 -0.5726 -1.8424
11378TIP3    H255550   5.242   5.506   1.997  0.2906  1.0957 -0.0616
11379TIP3   OH255551   2.459   0.152   4.797  0.6444 -0.6815  0.7494
11379TIP3    H155552   2.502   0.237   4.806 -1.3236  0.3219  1.2639
11379TIP3    H255553   2.439   0.144   4.704 -1.4527  0.6714  1.0225
11380TIP3   OH255554   5.476   2.704   6.109  0.1245 -0.3703 -0.6081
11380TIP3    H155555   5.533   2.778   6.131  0.9151 -0.7773 -1.1956
11380TIP3    H255556   5.534   2.628   6.114 -0.3569 -0.7887 -1.2733
11381TIP3   OH255557   1.208   5.936  17.285  0.1087 -0.0153  0.2847
11381TIP3    H155558   1.165   5.859  17.249 -1.1417  0.7345  0.1031
11381TIP3    H255559   1.223   5.992  17.209  1.5849 -0.3255  0.3239
11382TIP3   OH255560   3.457   3.051  11.672 -0.1175  0.2989  0.1315
11382TIP3    H155561   3.439   3.037  11.765 -0.0896  0.3152  0.1392
11382TIP3    H255562   3.424   2.973  11.629  0.1138  0.1724  0.1837
11383TIP3   OH255563   5.050   3.578   0.351 -0.1837  0.4139 -0.0919
11383TIP3    H155564   4.958   3.553   0.350  0.2932 -1.5089  0.1440
11383TIP3    H255565   5.060   3.630   0.431 -1.1197  0.9923 -0.3322
11384TIP3   OH255566   6.583   1.606  15.940 -0.5618 -0.0699 -0.1740
11384TIP3    H155567   6.608   1.646  16.024 -2.4830 -0.6913  0.7588
11384TIP3    H255568   6.487   1.609  15.940 -0.6250 -0.7015 -2.0711
11385TIP3   OH255569   1.629   0.887   0.353 -0.7428 -0.2734  0.0286
11385TIP3    H155570   1.548   0.895   0.404 -1.6154 -0.1748 -1.3273
11385TIP3    H255571   1.630   0.964   0.297 -0.1947 -0.7634 -0.6529
11386TIP3   OH255572   0.148   0.467  15.820  1.0585  0.0377 -0.3644
11386TIP3    H155573   0.169   0.556  15.850 -1.9933  1.3307 -1.6932
11386TIP3    H255574   0.175   0.466  15.728  1.6332 -0.6638 -0.1985
11387TIP3   OH255575   3.990   5.879   3.928  0.0836 -0.0155  0.2695
11387TIP3    H155576   3.949   5.795   3.908 -0.6676  0.6789 -1.2975
11387TIP3    H255577   3.919   5.932   3.966 -0.2147  0.8003 -1.3480
11388TIP3   OH255578   6.357   1.015  12.223  0.0448 -0.2868 -0.3880
11388TIP3    H155579   6.317   0.966  12.295  2.3308 -0.6765  0.6930
11388TIP3    H255580   6.451   1.012  12.241  0.4343  2.6706 -1.4592
11389TIP3   OH255581   5.763   4.364   0.638 -0.0230 -0.0791 -0.3765
11389TIP3    H155582   5.856   4.346   0.623  0.2968  0.2265  1.0169
11389TIP3    H255583   5.726   4.380   0.551  0.7305 -2.4446 -1.1935
11390TIP3   OH255584   0.317   3.142  12.566  0.5828  0.0002 -0.0498
11390TIP3    H155585   0.293   3.119  12.477 -0.4071  0.5258  0.0727
11390TIP3    H255586   0.405   3.105  12.577  0.8698  0.2461 -1.3496
11391TIP3   OH255587   1.583   0.389   5.014 -0.1053  0.5665 -0.1594
11391TIP3    H155588   1.526   0.327   4.969 -1.2561  2.5537 -1.6281
11391TIP3    H255589   1.643   0.421   4.946 -1.4922  3.1972 -0.2794
11392TIP3   OH255590   5.691   5.294   0.667  0.1641  0.1856  0.1329
11392TIP3    H155591   5.760   5.335   0.615  1.8259 -1.1392  1.1914
11392TIP3    H255592   5.637   5.248   0.603  0.4495  0.9489 -0.6785
11393TIP3   OH255593   0.552   4.199  11.939 -0.8281  0.3018  0.1377
11393TIP3    H155594   0.617   4.262  11.971  1.1504 -1.4821 -0.2161
11393TIP3    H255595   0.563   4.123  11.996 -2.0843 -0.3416 -0.4503
11394TIP3   OH255596   2.175   2.519   5.545  0.0516 -0.2396 -0.2640
11394TIP3    H155597   2.125   2.581   5.492  3.1931  1.3106 -1.6981
11394TIP3    H255598   2.198   2.569   5.624  2.3629  0.4883 -1.3033
11395TIP3   OH255599   2.067   6.117   4.644  0.6838 -0.0689 -0.1444
11395TIP3    H155600   2.068   6.175   4.568 -2.2282 -1.2068 -1.1828
11395TIP3    H255601   2.127   6.047   4.622 -0.4192 -0.5887 -1.6273
11396TIP3   OH255602   1.395   0.700   1.205  0.2029  0.1444  0.1931
11396TIP3    H155603   1.459   0.716   1.275  1.1585  0.4389 -0.7148
11396TIP3    H255604   1.444   0.717   1.124 -0.9462  0.0574 -0.5401
11397TIP3   OH255605   4.845   1.720   2.467 -0.3367  0.1844 -0.5858
11397TIP3    H155606   4.915   1.682   2.519 -0.6251  0.4414  0.0040
11397TIP3    H255607   4.876   1.715   2.376  1.0109  1.4936 -0.2330
11398TIP3   OH255608   5.941   2.002  11.405 -0.3136 -0.2881  0.1033
11398TIP3    H155609   5.943   1.909  11.380  0.9022 -0.1301 -0.4435
11398TIP3    H255610   5.946   2.049  11.322  2.3395  0.2484  0.4804
11399TIP3   OH255611   6.328   5.429  13.105 -0.2483 -0.1529 -0.1679
11399TIP3    H155612   6.325   5.345  13.059  1.4725 -0.2082 -0.2198
11399TIP3    H255613   6.363   5.491  13.040  2.2078 -0.2252  0.9775
11400TIP3   OH255614   0.829   1.381  12.279 -0.0279  0.2412 -0.7108
11400TIP3    H155615   0.734   1.378  12.272 -0.2522 -1.3176  1.8399
11400TIP3    H255616   0.849   1.473  12.295 -1.4697  0.1703  1.9159
11401TIP3   OH255617   6.372   3.492  12.794 -0.6010  0.2568 -0.2745
11401TIP3    H155618   6.278   3.492  12.812 -0.3617  0.5821  1.1426
11401TIP3    H255619   6.399   3.582  12.812  0.2564 -0.2418  1.0314
11402TIP3   OH255620   2.545   0.147   0.549  0.3455 -0.0491 -0.2979
11402TIP3    H155621   2.482   0.119   0.482 -1.3187 -4.9721  2.8085
11402TIP3    H255622   2.625   0.099   0.528  2.3043  3.6611 -2.3240
11403TIP3   OH255623   5.046   3.288  14.706 -0.8690 -0.2488  0.1273
11403TIP3    H155624   5.134   3.250  14.710 -1.9296 -2.8386  1.4799
11403TIP3    H255625   5.012   3.260  14.621 -0.3589  0.9077 -0.4752
11404TIP3   OH255626   4.930   0.792   5.878  0.2483  0.1182 -0.2266
11404TIP3    H155627   4.915   0.766   5.787  0.9856 -0.1738 -0.2737
11404TIP3    H255628   4.949   0.710   5.923  0.5215  0.3344  0.0581
11405TIP3   OH255629   3.935   3.156  15.567 -0.1048  0.8560  0.6589
11405TIP3    H155630   3.925   3.250  15.580 -0.0952  0.8810  0.4855
11405TIP3    H255631   3.896   3.139  15.481  2.0091  1.0621 -0.3836
11406TIP3   OH255632   0.248   2.728  14.223  0.1522 -0.5002  0.0388
11406TIP3    H155633   0.223   2.771  14.141  2.0509 -0.2769 -0.4798
11406TIP3    H255634   0.168   2.683  14.252 -1.4570  2.0025 -0.2401
11407TIP3   OH255635   1.642   4.143   5.622 -0.4114  0.4258 -0.3179
11407TIP3    H155636   1.723   4.093   5.628 -0.5822  0.2176  0.2649
11407TIP3    H255637   1.586   4.092   5.564 -0.9686 -0.6079  1.0789
11408TIP3   OH255638   6.506   2.505  17.411  0.2525  0.0871 -0.2641
11408TIP3    H155639   6.487   2.412  17.410 -3.5721  0.7101 -1.8293
11408TIP3    H255640   6.546   2.523  17.326  0.2885  0.0187 -0.2613
11409TIP3   OH255641   5.321   6.145  14.841  0.2850 -0.4448  0.0552
11409TIP3    H155642   5.383   6.172  14.773 -1.6507  1.2332 -1.1615
11409TIP3    H255643   5.336   6.207  14.912  0.7293 -0.7315  0.2160
11410TIP3   OH255644   6.223   3.468   2.262  0.2535  0.5448  0.3421
11410TIP3    H155645   6.192   3.379   2.277  1.2149  0.5057  2.3799
11410TIP3    H255646   6.213   3.481   2.167  1.3840 -2.2094 -0.2468
11411TIP3   OH255647   5.144   3.731  16.322 -0.1930 -0.5663 -0.8844
11411TIP3    H155648   5.158   3.640  16.296 -0.3242 -0.8521  0.0055
11411TIP3    H255649   5.212   3.780  16.277  0.7062 -1.2857 -0.3558
11412TIP3   OH255650   5.755   5.708  16.423  0.1186 -0.2766 -0.2753
11412TIP3    H155651   5.708   5.640  16.373  0.2937 -1.0128  0.5440
11412TIP3    H255652   5.755   5.784  16.364  1.3821 -1.4725 -1.9282
11413TIP3   OH255653   5.098   2.391  15.069  0.2863 -0.7673  0.4778
11413TIP3    H155654   5.152   2.466  15.095 -0.2185 -0.2849  0.1576
11413TIP3    H255655   5.051   2.421  14.991 -1.5763 -0.6270  1.5754
11414TIP3   OH255656   5.427   0.852  11.672 -0.5442 -0.0554  0.0786
11414TIP3    H155657   5.454   0.785  11.734 -0.4013  0.4327  0.5507
11414TIP3    H255658   5.381   0.804  11.603 -1.0708 -0.5504  0.7696
11415TIP3   OH255659   5.906   4.016   0.680 -0.0211  0.1700  0.2917
11415TIP3    H155660   5.969   4.082   0.708  1.5425 -0.7405 -0.9441
11415TIP3    H255661   5.883   3.969   0.760 -0.7104  1.7807  1.0888
11416TIP3   OH255662   6.535   1.161  15.190  0.3248  0.1750 -0.1022
11416TIP3    H155663   6.509   1.098  15.123 -1.0978  0.1928  0.4109
11416TIP3    H255664   6.503   1.124  15.272  1.2190  0.6156  0.4564
11417TIP3   OH255665   1.161   2.709   2.655 -0.6021  0.6138 -0.6333
11417TIP3    H155666   1.198   2.685   2.570 -1.0036 -2.2396 -0.0976
11417TIP3    H255667   1.235   2.709   2.715 -0.7552 -0.5760 -0.4186
11418TIP3   OH255668   2.467   4.881   2.218 -0.5089  0.3216  0.0426
11418TIP3    H155669   2.529   4.950   2.240 -0.6571 -0.0026  1.5763
11418TIP3    H255670   2.399   4.925   2.166 -0.4248  1.2631  0.7081
11419TIP3   OH255671   5.516   2.387   5.174  0.1017 -0.3053 -0.5407
11419TIP3    H155672   5.593   2.407   5.120  0.6261  1.5679  0.8149
11419TIP3    H255673   5.473   2.472   5.186  1.0049 -0.2600  3.4508
11420TIP3   OH255674   0.775   0.937  13.247  0.7509  0.2909 -0.1336
11420TIP3    H155675   0.829   1.011  13.273 -0.3806  0.6531  1.2890
11420TIP3    H255676   0.729   0.966  13.168  1.9931  0.2577 -0.8963
11421TIP3   OH255677   5.855   1.581   3.366  0.2030  0.0814  0.3637
11421TIP3    H155678   5.918   1.552   3.300 -0.3701 -0.7611  0.1682
11421TIP3    H255679   5.875   1.674   3.380  0.1116  0.3693 -1.2519
11422TIP3   OH255680   0.434   5.400  13.768 -0.0634 -0.5199 -0.5245
11422TIP3    H155681   0.471   5.312  13.765 -1.2751 -1.0359 -1.0184
11422TIP3    H255682   0.348   5.389  13.810  1.5374  1.1402  3.7569
11423TIP3   OH255683   4.675   4.232  16.358  0.2541 -0.8651  0.2732
11423TIP3    H155684   4.730   4.255  16.432 -1.2105  1.7640  0.6687
11423TIP3    H255685   4.726   4.257  16.281  0.2376  0.1219  0.5745
11424TIP3   OH255686   1.916   6.353  11.177 -0.2842  0.1621  0.2430
11424TIP3    H155687   1.978   6.390  11.114  0.0151 -1.3659 -0.4149
11424TIP3    H255688   1.837   6.337  11.126  0.2415 -1.8979 -0.0293
11425TIP3   OH255689   1.287   4.319   2.343  0.0338  0.0488  0.2037
11425TIP3    H155690   1.273   4.348   2.253  0.0193  1.5726  0.6746
11425TIP3    H255691   1.206   4.274   2.366  0.3386 -1.0681 -0.7870
11426TIP3   OH255692   1.428   1.773  11.405 -0.1485 -0.1545 -0.2482
11426TIP3    H155693   1.369   1.700  11.421 -0.1712 -0.5012 -1.7501
11426TIP3    H255694   1.453   1.764  11.313 -1.5247  2.6720 -1.0184
11427TIP3   OH255695   5.443   0.143  16.246 -0.4812 -0.3671  0.0048
11427TIP3    H155696   5.491   0.125  16.165  0.4996  1.2547  0.1796
11427TIP3    H255697   5.351   0.144  16.219 -0.3137 -1.5687 -0.7236
11428TIP3   OH255698   0.511   1.239   0.054 -0.1426 -0.4609  0.4329
11428TIP3    H155699   0.420   1.223   0.078 -0.5360 -0.0173 -0.7218
11428TIP3    H255700   0.512   1.239  -0.042  0.6929  1.4667  0.3866
11429TIP3   OH255701   0.229   2.688   0.770  0.8088 -0.2809  0.5417
11429TIP3    H155702   0.146   2.719   0.807 -0.1893 -1.2621 -0.7645
11429TIP3    H255703   0.218   2.593   0.764  1.3159 -0.2735 -1.2174
11430TIP3   OH255704   2.974   1.418  13.737 -0.2614  0.1816 -0.0132
11430TIP3    H155705   2.999   1.453  13.823  1.0344  0.4007 -0.4534
11430TIP3    H255706   3.050   1.366  13.710 -0.9869 -0.5632 -0.6715
11431TIP3   OH255707   0.788   6.604  13.108 -0.6290  0.4792  0.4668
11431TIP3    H155708   0.850   6.678  13.105 -0.1496  0.0793  0.4176
11431TIP3    H255709   0.703   6.645  13.124 -0.1218  0.9046  2.3114
11432TIP3   OH255710   1.818   1.192  17.397  0.1987 -0.2001 -0.1147
11432TIP3    H155711   1.758   1.253  17.356 -0.7978 -0.4433  0.9374
11432TIP3    H255712   1.902   1.239  17.401 -0.3789  0.8316  0.0688
11433TIP3   OH255713   0.057   2.778  12.535 -0.2889 -0.2673  0.3076
11433TIP3    H155714   0.013   2.811  12.458 -0.6261 -0.2073  0.5243
11433TIP3    H255715   0.044   2.845  12.602  0.2066 -0.2052  0.3519
11434TIP3   OH255716   6.617   0.816   5.615 -0.6248 -0.0295  0.2355
11434TIP3    H155717   6.554   0.748   5.639 -0.0300 -1.0461 -0.9398
11434TIP3    H255718   6.636   0.862   5.697 -2.0947 -0.3672  0.7929
11435TIP3   OH255719   2.777   6.066   0.821  0.2194  0.2831 -0.1090
11435TIP3    H155720   2.828   6.072   0.740  2.4758  3.7415  1.3458
11435TIP3    H255721   2.709   6.134   0.810  1.6827  2.0974  1.5047
11436TIP3   OH255722   3.419   6.428   4.839  0.1903 -0.3846 -0.0949
11436TIP3    H155723   3.414   6.333   4.850  0.7879 -0.3421  0.6526
11436TIP3    H255724   3.328   6.455   4.824 -0.1004 -0.9878  0.4938
11437TIP3   OH255725   5.965   1.811  14.945 -0.1579 -0.1482  0.2632
11437TIP3    H155726   5.939   1.728  14.905  1.2069 -0.7329  0.5058
11437TIP3    H255727   5.997   1.865  14.872  1.5368 -0.8996  0.3880
11438TIP3   OH255728   4.761   6.382  15.589  0.2689 -0.4219 -0.2168
11438TIP3    H155729   4.733   6.453  15.648  1.3847 -0.1640  0.0171
11438TIP3    H255730   4.846   6.410  15.556  0.5597 -1.4918 -0.4144
11439TIP3   OH255731   3.797   4.933   3.249  0.1897  0.1020 -0.2178
11439TIP3    H155732   3.882   4.938   3.207  0.9637 -0.1069  1.2497
11439TIP3    H255733   3.790   4.841   3.277 -0.3053  0.2291  0.0840
11440TIP3   OH255734   4.191   5.126   3.356  0.0531 -0.2842  0.3057
11440TIP3    H155735   4.112   5.172   3.385 -0.7441 -0.8378 -0.8821
11440TIP3    H255736   4.263   5.177   3.393 -0.8487  0.2764  1.3615
11441TIP3   OH255737   0.686   3.182   1.697  0.1462  0.3467 -0.2631
11441TIP3    H155738   0.761   3.214   1.645  0.6249  0.0802  0.2590
11441TIP3    H255739   0.722   3.167   1.784 -0.5762  0.4390  0.0550
11442TIP3   OH255740   4.994   2.591  11.746 -0.3419 -0.0186 -0.3493
11442TIP3    H155741   4.959   2.575  11.833 -0.1550 -0.6456 -0.3829
11442TIP3    H255742   4.993   2.505  11.704 -1.2456  0.4195 -1.2708
11443TIP3   OH255743   4.011   2.445   1.482 -0.0175  0.1660 -0.3746
11443TIP3    H155744   3.955   2.385   1.434 -1.8778 -0.5911  2.4974
11443TIP3    H255745   4.045   2.393   1.555 -0.3736  2.1029  1.2678
11444TIP3   OH255746   4.595   5.460  16.664  0.1116 -0.3164  0.4675
11444TIP3    H155747   4.617   5.447  16.756 -0.0736 -0.0887  0.5471
11444TIP3    H255748   4.664   5.517  16.630 -0.0352 -0.0728  0.5702
11445TIP3   OH255749   0.541   1.800  16.732  0.3738  0.0117 -0.5623
11445TIP3    H155750   0.560   1.715  16.772  0.8124  0.8576  1.0928
11445TIP3    H255751   0.574   1.865  16.795 -3.3342  1.5267  0.0709
11446TIP3   OH255752   5.954   6.564   2.220 -0.0978 -0.1237  0.3191
11446TIP3    H155753   5.915   6.633   2.274 -1.5220  0.7703 -1.7273
11446TIP3    H255754   6.022   6.608   2.170  0.7665 -0.8016  0.8660
11447TIP3   OH255755   0.452   1.842  14.161 -0.7203 -0.3365 -0.1633
11447TIP3    H155756   0.416   1.868  14.076 -2.0491 -1.2854  0.0625
11447TIP3    H255757   0.384   1.866  14.224 -0.9486 -2.0106  0.3019
11448TIP3   OH255758   2.408   5.610   2.125 -0.6020 -0.2585  0.1617
11448TIP3    H155759   2.426   5.568   2.042 -0.2288 -0.0092  0.1148
11448TIP3    H255760   2.351   5.684   2.103  0.6495  0.6711 -0.0735
11449TIP3   OH255761   2.166   5.298  14.698 -0.0761  0.6616 -0.2230
11449TIP3    H155762   2.208   5.212  14.707 -2.0034 -0.4953 -1.4995
11449TIP3    H255763   2.203   5.350  14.770  2.0020 -0.8466 -0.0934
11450TIP3   OH255764   2.944   2.994  16.738  0.4620  0.1581 -0.2916
11450TIP3    H155765   3.039   3.005  16.743  0.2644  2.0100  0.3680
11450TIP3    H255766   2.916   2.985  16.829 -0.1130  1.2092 -0.3439
11451TIP3   OH255767   1.596   1.138   2.724  0.3490 -0.2870 -0.0850
11451TIP3    H155768   1.617   1.136   2.817  1.3277  2.2241 -0.1703
11451TIP3    H255769   1.664   1.193   2.685 -0.1351 -1.1158 -2.2759
11452TIP3   OH255770   6.212   0.264  13.674  0.4340 -0.5202  0.4029
11452TIP3    H155771   6.292   0.252  13.623  0.0027 -0.3452 -0.3327
11452TIP3    H255772   6.185   0.175  13.698  0.4123 -0.6375 -0.0414
11453TIP3   OH255773   6.123   0.930  16.192 -0.0810 -0.5537  0.1159
11453TIP3    H155774   6.207   0.974  16.177 -0.1890 -0.7255 -1.0663
11453TIP3    H255775   6.063   1.002  16.215 -1.0480  0.6442 -4.8078
11454TIP3   OH255776   2.953   5.734   2.706  0.1012 -0.5984  0.1604
11454TIP3    H155777   2.988   5.695   2.786 -1.1533 -0.3704  0.8449
11454TIP3    H255778   2.865   5.762   2.730 -0.1827 -0.2512 -1.2258
11455TIP3   OH255779   4.981   2.122   4.014 -0.3239 -0.1421 -0.1773
11455TIP3    H155780   4.940   2.131   3.928  0.0301 -0.0653 -0.3386
11455TIP3    H255781   5.072   2.147   4.000 -0.4290  0.6066  0.3743
11456TIP3   OH255782   3.627   6.750  11.945 -0.6078 -0.0376  0.3985
11456TIP3    H155783   3.671   6.766  12.029 -1.0848 -2.1725  1.1148
11456TIP3    H255784   3.536   6.774  11.960 -1.0323 -1.9077  1.0408
11457TIP3   OH255785   6.278   4.974   3.425  0.0269  0.0190  0.0970
11457TIP3    H155786   6.280   4.978   3.521  0.4293 -0.2421  0.0992
11457TIP3    H255787   6.219   4.900   3.406 -0.2063  0.1928  0.1393
11458TIP3   OH255788   5.756   6.649  11.998  0.3640 -0.2017  0.1959
11458TIP3    H155789   5.774   6.741  12.017 -0.0521 -0.2380  0.7851
11458TIP3    H255790   5.781   6.603  12.078  0.5845 -0.6038 -0.1018
11459TIP3   OH255791   0.010   0.310  14.116 -0.2868  0.4554 -0.0093
11459TIP3    H155792   0.001   0.218  14.140 -0.2417  0.1315 -1.1714
11459TIP3    H255793  -0.053   0.323  14.045  1.6913  0.5480 -1.8521
11460TIP3   OH255794   2.539   4.131   0.206 -0.2848 -0.0527  0.4937
11460TIP3    H155795   2.607   4.073   0.238 -2.0732 -1.2951  2.2876
11460TIP3    H255796   2.562   4.218   0.239 -0.4965 -0.7854  2.7194
11461TIP3   OH255797   5.871   3.111   0.784 -0.0068  0.5467  0.1167
11461TIP3    H155798   5.787   3.145   0.755 -1.1146 -1.5826  0.6796
11461TIP3    H255799   5.855   3.075   0.871  0.5865 -2.7950 -0.9939
11462TIP3   OH255800   3.249   6.205  15.699  0.2068 -0.4012 -0.1896
11462TIP3    H155801   3.326   6.176  15.650  0.5728 -0.4914  0.4193
11462TIP3    H255802   3.196   6.126  15.711  0.6033 -0.5875  0.4059
11463TIP3   OH255803   0.766   5.622   3.823 -0.3750 -0.2122 -0.8330
11463TIP3    H155804   0.706   5.672   3.877 -0.8832 -0.4110 -1.2086
11463TIP3    H255805   0.719   5.541   3.803  1.0223 -1.6063  1.1138
11464TIP3   OH255806   3.953   4.921   4.625 -0.1260  0.2676  0.2208
11464TIP3    H155807   3.889   4.852   4.638  1.6030 -1.3532  0.6108
11464TIP3    H255808   3.906   4.989   4.576 -2.7424  0.1889  2.3961
11465TIP3   OH255809   4.448   5.128   1.902 -0.7461  0.5968  0.3706
11465TIP3    H155810   4.527   5.182   1.902 -0.8976  0.8256  1.2661
11465TIP3    H255811   4.376   5.191   1.910 -0.9472  0.2910  0.9787
11466TIP3   OH255812   0.091   4.896  12.466  0.1349  0.5198  0.1656
11466TIP3    H155813   0.015   4.842  12.445  0.2102  0.4986 -0.0507
11466TIP3    H255814   0.072   4.981  12.425 -0.2472  0.8454  0.9814
11467TIP3   OH255815   0.516   5.457   1.537 -0.4120 -0.2017  0.6773
11467TIP3    H155816   0.437   5.420   1.575  0.0987 -2.5412 -0.3634
11467TIP3    H255817   0.558   5.384   1.492  1.9863  1.1251  0.5830
11468TIP3   OH255818   0.034   2.576   2.943  0.7409  0.4126  0.4739
11468TIP3    H155819   0.031   2.584   3.039  0.7977  0.6831  0.4550
11468TIP3    H255820   0.125   2.551   2.924  0.0891 -2.4529  0.6766
11469TIP3   OH255821   4.692   3.053  12.596  0.3169  0.6048  0.1681
11469TIP3    H155822   4.751   3.092  12.661  3.3865 -1.7572 -0.9376
11469TIP3    H255823   4.744   3.047  12.516 -2.1311  0.0928 -1.5240
11470TIP3   OH255824   0.615   6.016   2.965 -0.4466  0.6821 -0.1661
11470TIP3    H155825   0.678   6.030   2.894  1.5375 -0.5599  1.2461
11470TIP3    H255826   0.609   6.102   3.007 -0.4908  1.0608 -0.9150
11471TIP3   OH255827   0.500   1.948   3.838  0.1419  0.6952  0.0514
11471TIP3    H155828   0.579   1.915   3.879 -1.2015 -3.9320 -0.5452
11471TIP3    H255829   0.531   1.987   3.756  1.8646 -0.5341  0.0615
11472TIP3   OH255830   2.666   4.450  13.964 -0.2392 -0.1340  0.6225
11472TIP3    H155831   2.625   4.395  14.030 -2.0806 -0.4370 -0.6754
11472TIP3    H255832   2.598   4.462  13.898  1.4271  0.3444 -1.1017
11473TIP3   OH255833   3.664   4.127   2.973 -0.5650 -0.1025  0.3815
11473TIP3    H155834   3.615   4.202   3.007 -0.7164  0.1575 -0.3870
11473TIP3    H255835   3.719   4.099   3.047 -0.6781  0.6188  0.7537
11474TIP3   OH255836   3.467   2.666  10.920 -0.6377 -0.0957 -0.3559
11474TIP3    H155837   3.509   2.590  10.879  0.0297  0.8349 -1.4289
11474TIP3    H255838   3.539   2.727  10.936 -0.9703 -0.1501  1.6479
11475TIP3   OH255839   0.758   3.575  16.414  0.5219  0.4426 -0.2350
11475TIP3    H155840   0.807   3.496  16.435  0.0756  0.5556  1.3304
11475TIP3    H255841   0.722   3.559  16.327  0.5848 -1.0042 -0.0074
11476TIP3   OH255842   2.957   3.095   0.261 -0.4741 -0.4736 -0.3010
11476TIP3    H155843   2.964   3.023   0.198  0.2328 -1.6635  1.0667
11476TIP3    H255844   2.888   3.067   0.321 -0.0178 -0.1229  0.3903
11477TIP3   OH255845   1.062   3.301  17.345  0.1588  0.1204 -0.5631
11477TIP3    H155846   1.155   3.285  17.328  0.2409  1.7268 -1.8319
11477TIP3    H255847   1.039   3.236  17.412  2.6332  0.8671  1.1686
11478TIP3   OH255848   3.599   3.763  11.382 -0.3956 -0.2799 -0.0666
11478TIP3    H155849   3.521   3.708  11.390 -0.1622 -1.4932 -4.1873
11478TIP3    H255850   3.567   3.848  11.353 -0.2414 -0.8326 -1.9390
11479TIP3   OH255851   2.136   0.300  11.597 -0.1330  0.1304  0.4529
11479TIP3    H155852   2.167   0.221  11.641  0.8271  1.4122  2.2586
11479TIP3    H255853   2.075   0.340  11.659  0.8095  1.7102  0.4325
11480TIP3   OH255854   2.968   6.083  14.170 -0.0759 -0.2832 -0.1301
11480TIP3    H155855   3.049   6.046  14.135  0.3499  0.8561 -0.4237
11480TIP3    H255856   2.954   6.037  14.252 -0.4496 -2.1876 -1.2160
11481TIP3   OH255857   4.782   4.350  13.767 -1.0338 -0.4081  0.6839
11481TIP3    H155858   4.843   4.288  13.727  0.9135  0.5741  1.9267
11481TIP3    H255859   4.697   4.331  13.727  0.1878 -1.4371 -1.5987
11482TIP3   OH255860   3.655   6.519   6.595  0.0138 -0.1968 -0.0486
11482TIP3    H155861   3.591   6.561   6.537  1.3462  1.6024 -0.2884
11482TIP3    H255862   3.660   6.578   6.671  1.4542 -0.2619 -0.0797
11483TIP3   OH255863   2.733   0.551   6.068  0.0122  0.6973 -0.2823
11483TIP3    H155864   2.693   0.567   5.982 -0.6221  0.4348 -0.0373
11483TIP3    H255865   2.660   0.553   6.130  0.4695  0.8960  0.2578
11484TIP3   OH255866   0.493   0.026   0.312  0.5474  0.1511 -0.2871
11484TIP3    H155867   0.577   0.046   0.271  0.9536  0.2989  0.5981
11484TIP3    H255868   0.476  -0.065   0.288  1.6376 -0.3273  0.6497
11485TIP3   OH255869   4.198   3.044   2.993 -0.3895 -0.3045  0.2588
11485TIP3    H155870   4.118   3.002   3.024  0.4770 -1.3828  1.1106
11485TIP3    H255871   4.224   2.993   2.915  0.2410 -0.9019  0.8408
11486TIP3   OH255872   1.723   4.185   4.555 -0.3611  0.3901  0.7580
11486TIP3    H155873   1.791   4.168   4.620 -0.0470  1.3172  0.6894
11486TIP3    H255874   1.668   4.253   4.594 -1.9903 -1.1751  1.3225
11487TIP3   OH255875   3.140   2.371  16.326  0.3899  0.0877  0.1269
11487TIP3    H155876   3.080   2.382  16.399 -2.4164  1.4186 -2.2120
11487TIP3    H255877   3.147   2.276  16.315 -0.6723 -0.1015  0.9409
11488TIP3   OH255878   4.443   6.148   0.089  0.3649  0.0026  0.1753
11488TIP3    H155879   4.455   6.065   0.136 -1.9931 -0.4812  0.0474
11488TIP3    H255880   4.530   6.170   0.057  1.9623 -0.1822  3.8192
11489TIP3   OH255881   2.703   0.198   4.209 -0.2906 -0.0949  0.0314
11489TIP3    H155882   2.759   0.121   4.213  1.1365  0.8896 -0.0561
11489TIP3    H255883   2.656   0.190   4.125  0.6811 -0.3259 -0.5025
11490TIP3   OH255884   6.263   1.076   5.046  0.0071  0.0147 -0.2041
11490TIP3    H155885   6.342   1.075   4.991 -0.9712 -0.7845 -1.6481
11490TIP3    H255886   6.297   1.068   5.135  1.6046  0.5994 -0.7103
11491TIP3   OH255887   5.541   5.329  14.764 -0.1812 -0.3687  0.4828
11491TIP3    H155888   5.553   5.357  14.673  2.0149 -0.2211  0.7617
11491TIP3    H255889   5.580   5.400  14.816  0.9855 -1.6402  1.4043
11492TIP3   OH255890   1.652   1.964  14.233 -0.7771  0.3134 -0.2536
11492TIP3    H155891   1.665   2.017  14.155 -1.4932  0.8660 -0.0096
11492TIP3    H255892   1.562   1.983  14.260 -2.2825 -3.4627 -1.9829
11493TIP3   OH255893   0.421   4.330  12.233  0.3048 -0.6613 -0.2238
11493TIP3    H155894   0.337   4.288  12.214  1.4551 -2.0080 -2.9303
11493TIP3    H255895   0.474   4.260  12.271  1.3451 -0.9881 -2.1277
11494TIP3   OH255896   0.579   0.999  11.108 -0.5056  0.0744  0.0559
11494TIP3    H155897   0.621   1.040  11.032 -0.0442  1.1697  0.8741
11494TIP3    H255898   0.586   0.905  11.091 -0.4228  0.3003 -1.2553
11495TIP3   OH255899   6.354   3.125  11.645  0.0959  0.0192  0.3414
11495TIP3    H155900   6.373   3.162  11.731  0.9628  0.8365 -0.1864
11495TIP3    H255901   6.394   3.186  11.583  1.0867 -1.5186 -0.5845
11496TIP3   OH255902   0.818   5.988  11.893  0.2278  0.0913  0.4368
11496TIP3    H155903   0.803   5.929  11.819  1.7047  1.7468 -1.3179
11496TIP3    H255904   0.890   5.949  11.941 -0.1178 -0.5243  0.4660
11497TIP3   OH255905   2.073   4.773  11.965  0.1798 -0.0472 -0.2843
11497TIP3    H155906   2.022   4.696  11.989 -0.3219 -0.0830 -1.4118
11497TIP3    H255907   2.046   4.841  12.028 -0.8635 -0.2145 -0.5434
11498TIP3   OH255908   5.654   4.893  14.824  0.4623 -0.1516 -0.1106
11498TIP3    H155909   5.572   4.936  14.800  0.2229 -1.4437 -1.8278
11498TIP3    H255910   5.721   4.959  14.809  0.0537 -0.1245 -2.0854
11499TIP3   OH255911   5.098   0.514  15.909  0.5739  0.2341 -0.6415
11499TIP3    H155912   5.189   0.486  15.908  1.0388  1.6258  0.0246
11499TIP3    H255913   5.054   0.454  15.849  1.6695 -1.2525  0.0008
11500TIP3   OH255914   2.857   2.529  13.197  0.4161 -0.2912  0.4991
11500TIP3    H155915   2.953   2.523  13.199  0.4439 -0.0548 -0.0200
11500TIP3    H255916   2.835   2.576  13.278  0.6001 -1.9593  1.5549
11501TIP3   OH255917   5.414   5.708   0.605 -0.0744 -0.4965  0.2221
11501TIP3    H155918   5.343   5.651   0.635 -0.2900  0.3991  1.5203
11501TIP3    H255919   5.470   5.651   0.552 -1.7950 -1.2103 -0.9430
11502TIP3   OH255920   4.924   1.578   3.365 -0.6378 -0.2627  1.0495
11502TIP3    H155921   4.921   1.567   3.270 -2.3785 -1.1695  1.1808
11502TIP3    H255922   4.997   1.522   3.393 -0.7903 -0.8179  0.3561
11503TIP3   OH255923   2.281   1.161  15.797 -0.5318 -0.2769  0.1778
11503TIP3    H155924   2.189   1.165  15.774 -0.2161  1.1264 -0.9942
11503TIP3    H255925   2.316   1.088  15.745 -0.6898  0.1663 -0.5672
11504TIP3   OH255926   0.524   2.044   3.604 -0.1932 -0.1995 -0.0472
11504TIP3    H155927   0.489   1.985   3.536  2.1261 -2.2334  0.3907
11504TIP3    H255928   0.552   2.122   3.556 -2.3715  0.2134 -0.7868
11505TIP3   OH255929   0.676   4.813  14.558 -0.0228 -0.2049  0.1735
11505TIP3    H155930   0.724   4.766  14.627 -0.1516 -1.5075 -0.5846
11505TIP3    H255931   0.681   4.905  14.583  3.8076 -0.0933 -0.3721
11506TIP3   OH255932   6.253   4.378  15.268 -0.5589 -0.2463 -0.2985
11506TIP3    H155933   6.189   4.421  15.212  1.2813  0.7440 -1.7367
11506TIP3    H255934   6.251   4.429  15.349 -1.2749  0.0271 -0.4751
11507TIP3   OH255935   1.915   4.615   1.252 -0.3462 -0.3086 -0.2493
11507TIP3    H155936   1.890   4.660   1.333  1.6817 -0.1144  0.3356
11507TIP3    H255937   1.957   4.534   1.280  1.3938  0.2716 -1.0002
11508TIP3   OH255938   1.444   1.195   2.456 -0.1496 -0.1521  0.1590
11508TIP3    H155939   1.437   1.265   2.391  0.4570  1.1401  1.3983
11508TIP3    H255940   1.433   1.240   2.540 -2.8819 -2.0477  0.9324
11509TIP3   OH255941   4.050   5.739  15.199  0.2379 -1.0088  0.4816
11509TIP3    H155942   4.015   5.721  15.286  2.1206 -2.1659  1.0506
11509TIP3    H255943   4.143   5.753  15.213  0.4453 -0.3718 -1.2673
11510TIP3   OH255944   5.260   5.945   6.774 -0.7005 -0.0819  0.0412
11510TIP3    H155945   5.228   5.916   6.859  0.9348 -0.3379  0.6192
11510TIP3    H255946   5.321   5.876   6.747  1.8351  1.7863  0.5672
11511TIP3   OH255947   5.618   2.922  15.215  0.4025  0.3928  0.2893
11511TIP3    H155948   5.558   2.936  15.288  0.1008  2.0162 -0.2291
11511TIP3    H255949   5.705   2.944  15.251  0.6392 -1.2885  0.8419
11512TIP3   OH255950   2.100   4.130   2.176  0.5779  0.3233  0.5062
11512TIP3    H155951   2.026   4.086   2.218 -0.0088  1.0178  0.1998
11512TIP3    H255952   2.082   4.123   2.082  1.5381 -0.6079  0.3708
11513TIP3   OH255953   1.759   4.121   0.147 -0.1410 -0.7549  0.0560
11513TIP3    H155954   1.754   4.121   0.243 -2.4115 -2.9379  0.0353
11513TIP3    H255955   1.688   4.179   0.120  0.7564  0.1844 -0.3543
11514TIP3   OH255956   4.646   6.025  12.693 -0.4582 -0.4307 -0.0639
11514TIP3    H155957   4.711   5.998  12.759  0.5676 -1.0849 -1.2784
11514TIP3    H255958   4.566   6.041  12.743  0.4184 -0.3756  1.3980
11515TIP3   OH255959   3.121   3.879  15.464  0.1795 -0.1994 -0.1873
11515TIP3    H155960   3.064   3.955  15.473 -0.1712 -0.4445 -0.3090
11515TIP3    H255961   3.077   3.824  15.399 -1.7117 -2.4625  2.7873
11516TIP3   OH255962   1.992   4.271   1.426 -0.0694 -0.6783 -0.1307
11516TIP3    H155963   2.017   4.362   1.442  0.0378 -0.8885  1.0066
11516TIP3    H255964   1.953   4.271   1.339  1.1140  0.2108 -0.6781
11517TIP3   OH255965   2.263   3.938  10.839 -0.1783  0.3802  0.3021
11517TIP3    H155966   2.340   3.965  10.790 -0.6151  1.4347  0.1598
11517TIP3    H255967   2.295   3.877  10.905  0.8100  1.0148  0.4178
11518TIP3   OH255968   5.921   6.515   4.684  0.4976  0.0936 -0.4291
11518TIP3    H155969   5.991   6.544   4.742  0.7548  0.9266 -1.1411
11518TIP3    H255970   5.912   6.422   4.703  0.9581  0.2348  0.5424
11519TIP3   OH255971   2.325   5.130   4.320 -0.4229 -0.2122  0.7209
11519TIP3    H155972   2.342   5.194   4.251  0.0489 -1.7744 -0.6851
11519TIP3    H255973   2.326   5.181   4.401  0.3723  1.4732 -0.2949
11520TIP3   OH255974   6.743   5.023   1.181  0.1093 -0.2549 -0.0340
11520TIP3    H155975   6.682   5.060   1.245  1.4874 -0.6013  1.5501
11520TIP3    H255976   6.762   5.096   1.123 -0.4432  0.3533  0.5249
11521TIP3   OH255977   3.883   4.607  16.936  0.4530 -0.1660 -0.3182
11521TIP3    H155978   3.916   4.694  16.959  1.1206 -0.9836  2.1278
11521TIP3    H255979   3.959   4.560  16.904  0.3580 -0.2476 -0.4276
11522TIP3   OH255980   6.384   0.390  12.729  0.4042  0.2032 -0.3741
11522TIP3    H155981   6.459   0.347  12.771  0.6699  2.5847  1.9301
11522TIP3    H255982   6.312   0.377  12.790 -0.1191  0.8651 -0.8353
11523TIP3   OH255983   0.941   3.147  15.111 -0.0378  0.3876  0.4149
11523TIP3    H155984   0.847   3.139  15.124  0.3002 -0.2308  3.0143
11523TIP3    H255985   0.972   3.199  15.185  1.5132  1.9350 -1.2189
11524TIP3   OH255986   1.043   0.267  13.851 -0.1506 -0.2982 -0.2103
11524TIP3    H155987   1.063   0.269  13.944  0.1025 -0.6198 -0.2516
11524TIP3    H255988   1.126   0.291  13.809 -0.9228  2.4811 -0.3055
11525TIP3   OH255989   6.684   6.353   2.294 -0.3489 -0.2230  0.1930
11525TIP3    H155990   6.638   6.270   2.309 -0.7597  0.0931  0.7102
11525TIP3    H255991   6.775   6.327   2.280 -0.8963 -1.0157 -2.5235
11526TIP3   OH255992   1.136   2.899   3.589  0.2810 -0.0744 -0.2106
11526TIP3    H155993   1.070   2.831   3.604  1.0821 -1.0000 -0.7685
11526TIP3    H255994   1.157   2.932   3.677  0.3569 -1.0076  0.1286
11527TIP3   OH255995   2.829   2.964   5.973 -0.2511 -0.0388 -0.0980
11527TIP3    H155996   2.875   3.010   6.043  1.0799 -0.4498 -0.6794
11527TIP3    H255997   2.776   2.898   6.019  2.2976 -1.8290  0.4795
11528TIP3   OH255998   5.621   2.556  16.534  0.2563 -0.1523  0.3685
11528TIP3    H155999   5.541   2.514  16.503  0.1243  0.7018 -0.4634
11528TIP3    H256000   5.592   2.620  16.599  0.3865 -0.7231  1.0055
11529TIP3   OH256001   1.505   2.888   1.701  0.0846 -0.0972  0.7581
11529TIP3    H156002   1.484   2.894   1.794 -1.7549 -2.0751  0.5499
11529TIP3    H256003   1.595   2.854   1.699  0.2007  0.1273  1.8040
11530TIP3   OH256004   2.482   4.562   5.883  0.2828 -0.0323 -0.0567
11530TIP3    H156005   2.521   4.475   5.875 -0.4945 -0.3348 -0.6943
11530TIP3    H256006   2.425   4.556   5.959 -2.2430 -1.0905 -1.9209
11531TIP3   OH256007   1.071   0.099   1.268 -0.0286 -1.1309  0.0055
11531TIP3    H156008   1.099   0.170   1.210  0.4755 -0.3232  1.2068
11531TIP3    H256009   1.024   0.038   1.210  0.3342 -0.2878 -1.2141
11532TIP3   OH256010   3.554   5.244  14.543  0.1907 -0.0966  0.1211
11532TIP3    H156011   3.521   5.154  14.537 -1.7500  0.5993 -0.4569
11532TIP3    H256012   3.530   5.271  14.632  0.1780  0.0484  0.0730
11533TIP3   OH256013   5.296   0.815  13.901 -0.4596 -0.3043  0.2459
11533TIP3    H156014   5.249   0.811  13.984 -1.0238 -0.9650 -0.0978
11533TIP3    H256015   5.308   0.909  13.885 -0.2285 -0.1693  1.1267
11534TIP3   OH256016   6.531   3.111   1.584  0.1586  0.8254 -0.3086
11534TIP3    H156017   6.442   3.144   1.590  0.8233  3.4411 -2.7196
11534TIP3    H256018   6.540   3.082   1.493  1.7514  0.5928 -0.1025
11535TIP3   OH256019   5.654   6.291  16.342 -0.2413 -0.2071  0.4348
11535TIP3    H156020   5.697   6.362  16.296 -0.6832 -0.7252 -0.8380
11535TIP3    H256021   5.724   6.227  16.359 -0.1679 -0.2502 -0.0153
11536TIP3   OH256022   6.323   3.450   3.409 -0.5107 -0.4267 -0.5506
11536TIP3    H156023   6.392   3.401   3.364  0.1734  0.8593 -0.9806
11536TIP3    H256024   6.357   3.540   3.414 -1.6045 -0.0318  0.4080
11537TIP3   OH256025   2.440   2.686  13.695 -0.8993 -0.2022  0.4253
11537TIP3    H156026   2.425   2.598  13.660 -0.4751  1.0813 -3.3292
11537TIP3    H256027   2.354   2.728  13.692 -0.6586  0.2636 -0.1752
11538TIP3   OH256028   3.418   0.814   3.951  0.2515 -0.4148  0.4569
11538TIP3    H156029   3.469   0.852   4.022  0.8534  0.4915 -0.4334
11538TIP3    H256030   3.345   0.770   3.994  0.8994 -0.3521  1.6550
11539TIP3   OH256031   3.416   5.261   5.771 -0.7105  0.0592  0.6881
11539TIP3    H156032   3.455   5.175   5.782 -1.2157 -0.6289 -2.1346
11539TIP3    H256033   3.486   5.322   5.795  0.6694 -1.1614 -0.0497
11540TIP3   OH256034   4.672   0.792   5.970 -0.0410 -0.1645 -0.0714
11540TIP3    H156035   4.598   0.850   5.954 -0.1730 -0.2428  0.2482
11540TIP3    H256036   4.744   0.831   5.920 -0.6663 -0.9266 -1.6430
11541TIP3   OH256037   5.776   6.436  11.380  0.8254 -0.6320 -0.0845
11541TIP3    H156038   5.741   6.478  11.301  1.7125  3.0809  1.2673
11541TIP3    H256039   5.699   6.416  11.433  0.3187  2.4495  0.5484
11542TIP3   OH256040   5.762   1.714   1.204  0.2638  0.1820 -0.2295
11542TIP3    H156041   5.737   1.753   1.121  1.8814  0.2995 -0.6932
11542TIP3    H256042   5.727   1.625   1.201  2.4455 -0.7009 -2.1881
11543TIP3   OH256043   2.032   0.689   4.269 -0.0543 -0.2122 -0.4039
11543TIP3    H156044   1.944   0.666   4.301 -0.2105  1.0317  0.1040
11543TIP3    H256045   2.061   0.759   4.327  1.0922 -0.2822 -0.8709
11544TIP3   OH256046   1.308   2.830   2.388  0.1070 -0.3920  0.2346
11544TIP3    H156047   1.332   2.867   2.473  2.8200 -0.6048 -0.3358
11544TIP3    H256048   1.319   2.735   2.400  1.6636 -0.3490 -0.6199
11545TIP3   OH256049   2.604   1.914  14.575  0.0058  0.4069  0.1370
11545TIP3    H156050   2.586   1.953  14.489  0.1136 -0.0171 -0.0793
11545TIP3    H256051   2.530   1.856  14.591  1.0080 -1.1905 -0.6655
11546TIP3   OH256052   6.332   4.550  15.609 -0.2364 -0.3033  0.3760
11546TIP3    H156053   6.299   4.560  15.698  0.2423 -1.1581  0.6620
11546TIP3    H256054   6.425   4.530  15.620 -0.5055 -2.0395 -0.2348
11547TIP3   OH256055   2.729   2.518   0.492 -0.1199 -0.0354 -0.1934
11547TIP3    H156056   2.692   2.503   0.579  0.1813 -0.7819 -0.1865
11547TIP3    H256057   2.822   2.537   0.509 -0.0052 -0.4256 -0.3601
11548TIP3   OH256058   3.349   3.240  16.876 -0.1938  0.4392 -0.5697
11548TIP3    H156059   3.266   3.284  16.895  1.2774  2.7382  0.9990
11548TIP3    H256060   3.407   3.309  16.843  1.7200 -0.6335  0.3593
11549TIP3   OH256061   4.165   4.283  13.177  0.4049 -0.5359  0.9960
11549TIP3    H156062   4.203   4.253  13.094 -1.2643 -0.9062  0.3456
11549TIP3    H256063   4.198   4.221  13.242  1.3502 -0.5238  0.5512
11550TIP3   OH256064   5.950   0.883   3.470 -0.5677  0.5358 -0.3517
11550TIP3    H156065   5.941   0.797   3.428  0.5093  0.9308 -1.4643
11550TIP3    H256066   6.042   0.885   3.499 -0.6325  1.2368 -0.1772
11551TIP3   OH256067   3.941   3.533   2.175  0.4183  0.3914  0.0561
11551TIP3    H156068   4.032   3.538   2.146  0.5127 -2.5753 -0.4785
11551TIP3    H256069   3.890   3.544   2.096  0.3705  0.2056  0.0623
11552TIP3   OH256070   3.218   1.389  13.257  0.5133 -0.0869 -0.2473
11552TIP3    H156071   3.126   1.369  13.240  0.6967 -0.9512 -0.2847
11552TIP3    H256072   3.266   1.316  13.216  1.1705 -0.0453  0.4218
11553TIP3   OH256073   1.081   4.758   4.385  0.0620  0.3660 -0.4239
11553TIP3    H156074   1.155   4.775   4.442  0.5456 -0.0309 -0.9241
11553TIP3    H256075   1.036   4.684   4.425  0.9784 -0.5758 -1.0798
11554TIP3   OH256076   0.467   4.638   2.511  0.1241 -0.5753 -0.5235
11554TIP3    H156077   0.554   4.607   2.486 -0.0965 -2.2189  0.5754
11554TIP3    H256078   0.408   4.566   2.486 -0.7446 -0.0405 -0.0655
11555TIP3   OH256079   0.639   3.951  11.588 -0.5800  0.3862 -0.1756
11555TIP3    H156080   0.719   3.900  11.575 -1.1490 -0.1153 -1.8149
11555TIP3    H256081   0.657   4.034  11.546  0.5441  1.8975  2.9323
11556TIP3   OH256082   6.182   0.719  16.895 -0.1463  0.1281  0.0592
11556TIP3    H156083   6.186   0.724  16.990 -2.5233  0.6349  0.1937
11556TIP3    H256084   6.177   0.810  16.866  0.4844 -0.0241 -0.5452
11557TIP3   OH256085   4.711   2.353  12.184  0.2928  0.6253  0.5108
11557TIP3    H156086   4.629   2.303  12.190  0.8404 -0.3097  0.5389
11557TIP3    H256087   4.745   2.353  12.274  1.0706 -0.3381  0.2384
11558TIP3   OH256088   6.581   4.282   1.295 -0.4409 -0.2063  0.5969
11558TIP3    H156089   6.662   4.307   1.340 -0.1869 -0.3232  0.2109
11558TIP3    H256090   6.527   4.361   1.297 -1.0358 -0.5961  2.3694
11559TIP3   OH256091   6.651   1.087  10.988  0.0107  0.6657  0.1392
11559TIP3    H156092   6.620   0.999  11.007 -1.7032  1.3873  0.9235
11559TIP3    H256093   6.624   1.103  10.897 -0.3173  0.6307  0.2289
11560TIP3   OH256094   0.709   6.696  14.736  0.2473  0.1087  0.1499
11560TIP3    H156095   0.737   6.608  14.709 -3.3562 -1.2341  0.1742
11560TIP3    H256096   0.651   6.725  14.665  0.6994  2.1379  0.5564
11561TIP3   OH256097   3.633   3.880  11.680  0.2526  0.4909 -0.0524
11561TIP3    H156098   3.538   3.887  11.689  0.1465 -0.5539 -0.2546
11561TIP3    H256099   3.650   3.895  11.587  0.4392  2.0309  0.1986
11562TIP3   OH256100   4.440   4.281   1.696  0.1738 -0.7152 -0.0881
11562TIP3    H156101   4.529   4.293   1.729  0.8319 -0.7043 -1.7516
11562TIP3    H256102   4.448   4.209   1.633 -0.7440  0.0237 -1.0921
11563TIP3   OH256103   5.400   6.218   4.631 -0.4263 -0.3204 -0.2413
11563TIP3    H156104   5.406   6.186   4.541 -3.3143  0.8220 -0.9771
11563TIP3    H256105   5.307   6.210   4.652 -0.6064  3.3052  1.0838
11564TIP3   OH256106   1.108   6.286   3.052  0.0088  0.3002 -0.0394
11564TIP3    H156107   1.201   6.299   3.034 -0.2295 -0.4236 -2.1153
11564TIP3    H256108   1.077   6.372   3.079  1.4431  0.3461  1.6193
11565TIP3   OH256109   1.698   5.208  13.574  0.1324 -0.2089  0.2991
11565TIP3    H156110   1.690   5.274  13.506  0.7180 -0.5688 -0.1298
11565TIP3    H256111   1.724   5.128  13.528 -2.3706 -1.2456  0.5667
11566TIP3   OH256112   0.422   2.269  16.372  0.0871 -0.2372  0.1745
11566TIP3    H156113   0.481   2.317  16.430 -1.3979  1.6929  0.1979
11566TIP3    H256114   0.451   2.292  16.284  0.6717 -1.0272  0.1463
11567TIP3   OH256115   2.343   3.616  12.663 -0.2584  0.6234  0.8799
11567TIP3    H156116   2.289   3.540  12.642 -0.9513  0.5981  2.6154
11567TIP3    H256117   2.365   3.654  12.578 -0.3288 -1.2130  0.0087
11568TIP3   OH256118   5.662   0.593  11.580  0.1333 -0.6912  0.2116
11568TIP3    H156119   5.706   0.589  11.495  1.2283 -1.6109  0.7978
11568TIP3    H256120   5.603   0.518  11.580 -2.1407  0.9767 -0.8902
11569TIP3   OH256121   2.178   5.861   2.562 -0.1465  0.3128  0.8128
11569TIP3    H156122   2.249   5.924   2.568  0.8851 -0.7993  0.7961
11569TIP3    H256123   2.220   5.777   2.582 -1.3724 -0.4201  0.3856
11570TIP3   OH256124   6.315   5.819   0.440 -0.3211 -0.1618  0.2269
11570TIP3    H156125   6.225   5.843   0.460 -0.5955  1.7333 -2.5847
11570TIP3    H256126   6.312   5.789   0.349  1.8867  0.0552  0.0294
11571TIP3   OH256127   3.665   6.733  16.334  0.3122  0.3630  0.0169
11571TIP3    H156128   3.631   6.686  16.410  0.7594  2.0494  1.3177
11571TIP3    H256129   3.607   6.809  16.325 -0.6515 -0.5454 -2.2813
11572TIP3   OH256130   0.449   1.723   3.194 -0.4288 -0.2148 -0.7422
11572TIP3    H156131   0.524   1.768   3.155 -0.8113 -0.2028 -1.4653
11572TIP3    H256132   0.377   1.739   3.134 -1.0519 -0.1153  0.0172
11573TIP3   OH256133   3.911   2.854   6.035  0.0860  0.5645 -0.1234
11573TIP3    H156134   3.988   2.910   6.033  1.2374 -0.9275 -2.1603
11573TIP3    H256135   3.841   2.910   6.069  1.6612  2.4852  0.1398
11574TIP3   OH256136   5.714   3.636   0.589  0.5009 -0.4806  0.1500
11574TIP3    H156137   5.639   3.605   0.538 -0.7719  1.9029  0.4067
11574TIP3    H256138   5.790   3.614   0.535 -0.5464 -1.0090 -1.1783
11575TIP3   OH256139   4.491   0.964   4.983 -0.0016  0.0967 -0.4057
11575TIP3    H156140   4.413   0.913   5.002  1.3848 -1.5429  1.3070
11575TIP3    H256141   4.524   0.927   4.901 -0.0033 -0.5286 -0.1322
11576TIP3   OH256142   5.732   6.129  16.102  0.2828  0.0344  0.0617
11576TIP3    H156143   5.636   6.130  16.107  0.3555  0.1275  2.5300
11576TIP3    H256144   5.754   6.213  16.063 -0.5967  0.8375  1.2450
11577TIP3   OH256145   4.966   5.519  16.296  0.0860  0.5286 -0.5349
11577TIP3    H156146   4.970   5.615  16.300  1.5948  0.4591  0.6497
11577TIP3    H256147   5.057   5.492  16.281 -0.6346 -0.6701 -3.4505
11578TIP3   OH256148   3.806   5.151   1.090 -0.4348 -0.4719 -0.1375
11578TIP3    H156149   3.723   5.191   1.115  0.7982  2.6455 -0.6043
11578TIP3    H256150   3.814   5.166   0.996  1.2831  0.6632  0.1444
11579TIP3   OH256151   4.134   1.783  13.366  0.2680  0.0305  0.1510
11579TIP3    H156152   4.111   1.874  13.386  0.6602 -0.1656  1.6362
11579TIP3    H256153   4.134   1.779  13.270  2.0149  2.0470 -0.0009
11580TIP3   OH256154   5.204   5.588   3.031  0.3754 -0.0381 -0.2481
11580TIP3    H156155   5.205   5.514   2.970  0.2745 -0.1930 -0.0637
11580TIP3    H256156   5.112   5.612   3.038  0.4922  0.6211 -0.9230
11581TIP3   OH256157   6.705   5.909   0.154  0.0006  0.5498 -0.0830
11581TIP3    H156158   6.774   5.843   0.149 -2.0210 -1.8236  1.2991
11581TIP3    H256159   6.665   5.908   0.067  0.1190  0.1454 -0.1338
11582TIP3   OH256160   1.354   2.537  13.185 -0.4699  0.0515  0.6376
11582TIP3    H156161   1.421   2.602  13.164  0.3291 -0.5385  1.3542
11582TIP3    H256162   1.296   2.582  13.246 -0.7569  0.5651  0.0100
11583TIP3   OH256163   6.593   1.678   5.938 -0.0352  0.3878 -0.1093
11583TIP3    H156164   6.674   1.724   5.958  0.2075 -0.1963  0.2723
11583TIP3    H256165   6.604   1.591   5.977 -0.4348 -0.0384 -0.9016
11584TIP3   OH256166   3.033   4.442  15.887  0.3561 -0.6348 -0.4830
11584TIP3    H156167   3.043   4.349  15.869 -1.9803 -0.6350 -2.3352
11584TIP3    H256168   2.941   4.451  15.914  0.9112  0.9743  1.0596
11585TIP3   OH256169   5.800   4.333  11.699  0.3679 -0.1965 -0.1194
11585TIP3    H156170   5.845   4.390  11.761  0.9728  0.4422 -1.1104
11585TIP3    H256171   5.863   4.320  11.628 -0.0632 -1.4340 -0.3087
11586TIP3   OH256172   4.438   0.608   5.815  0.0426  0.2630  0.7969
11586TIP3    H156173   4.368   0.585   5.753  1.9841 -0.4288 -1.2637
11586TIP3    H256174   4.463   0.697   5.790 -0.7567  0.9300  2.2392
11587TIP3   OH256175   0.455   0.496  13.897  0.2271  0.1132 -0.0926
11587TIP3    H156176   0.507   0.498  13.978  0.4294  1.3349 -0.2403
11587TIP3    H256177   0.517   0.473  13.829  0.5681  1.4018 -0.2425
11588TIP3   OH256178   5.591   1.832  14.027  0.2459  0.0235  0.0089
11588TIP3    H156179   5.551   1.832  14.114 -0.0273  1.5415 -0.0935
11588TIP3    H256180   5.528   1.786  13.972 -0.4283  0.6146  0.2662
11589TIP3   OH256181   0.994   4.667   5.492  0.1578 -0.0872  0.4102
11589TIP3    H156182   0.912   4.677   5.539  0.2381 -1.4026  0.8840
11589TIP3    H256183   0.975   4.696   5.402 -0.4230  0.9394  0.8489
11590TIP3   OH256184   5.036   3.601   3.589  0.6672 -0.5514  0.4683
11590TIP3    H156185   5.119   3.646   3.607  0.3159  0.6943 -0.7767
11590TIP3    H256186   5.061   3.527   3.533  0.9263  0.0609 -0.2521
11591TIP3   OH256187   5.456   5.866  14.867 -0.2981 -0.1719 -0.4959
11591TIP3    H156188   5.420   5.952  14.844 -0.4784 -0.3293 -0.8007
11591TIP3    H256189   5.409   5.841  14.947 -0.4815 -0.1364 -0.5915
11592TIP3   OH256190   2.058   0.008   6.572 -0.3020  0.1350 -0.9495
11592TIP3    H156191   2.030   0.075   6.509 -3.6910 -1.0679 -0.9247
11592TIP3    H256192   1.997   0.018   6.646  1.5216 -0.6027  0.7590
11593TIP3   OH256193   6.454   4.744   2.505  0.0986 -0.0677 -0.0447
11593TIP3    H156194   6.397   4.821   2.493  0.0384 -0.2745 -1.1970
11593TIP3    H256195   6.440   4.692   2.426  0.7073 -0.9022  0.3892
11594TIP3   OH256196   5.329   4.411  16.739  0.1838  0.2120  0.1409
11594TIP3    H156197   5.303   4.405  16.831 -0.5886 -0.9768 -0.1236
11594TIP3    H256198   5.252   4.447  16.695  1.2649  2.7696  0.2114
11595TIP3   OH256199   0.294   1.921   3.049 -0.2648 -0.1978 -0.0964
11595TIP3    H156200   0.240   1.885   2.978  0.0304  0.1611 -0.5044
11595TIP3    H256201   0.338   1.996   3.011  1.5447 -1.2259 -0.1822
11596TIP3   OH256202   5.945   2.922  15.862 -0.0487  0.0080  0.0777
11596TIP3    H156203   6.014   2.943  15.800 -0.0274 -0.6059 -0.1054
11596TIP3    H256204   5.879   2.877  15.811 -0.2469 -0.0787  0.4054
11597TIP3   OH256205   2.602   3.688  11.849 -0.1222  0.1615 -0.0990
11597TIP3    H156206   2.588   3.782  11.849 -0.9652  0.0615 -1.0976
11597TIP3    H256207   2.691   3.676  11.817 -0.2218  0.6003 -0.5467
11598TIP3   OH256208   2.084   4.613  14.130  0.1480  0.5735  0.4873
11598TIP3    H156209   2.109   4.625  14.222 -0.6091  0.5005  0.7097
11598TIP3    H256210   2.024   4.686  14.112  0.1487  0.4834  0.1088
11599TIP3   OH256211   3.589   3.766  12.604 -0.2815  0.1804  0.1434
11599TIP3    H156212   3.609   3.749  12.512  0.7076 -0.3827  0.4418
11599TIP3    H256213   3.510   3.819  12.602  0.0686  0.6968 -1.0493
11600TIP3   OH256214   1.832   0.199   3.196  0.2832  0.9591  0.3408
11600TIP3    H156215   1.861   0.145   3.123  3.0784  3.0574 -0.2476
11600TIP3    H256216   1.753   0.243   3.164 -0.8047 -1.0413  0.0958
11601TIP3   OH256217   0.999   4.193  12.125 -0.1321  0.1415 -0.0392
11601TIP3    H156218   0.988   4.169  12.033  0.9851  1.0898 -0.4426
11601TIP3    H256219   1.062   4.265  12.124 -2.5316  2.4316  1.1929
11602TIP3   OH256220   6.200   1.761   2.907  0.0624  0.1150  0.3458
11602TIP3    H156221   6.234   1.683   2.951 -0.1522  0.1853  0.6405
11602TIP3    H256222   6.276   1.796   2.860  0.3126  0.0674  0.7030
11603TIP3   OH256223   2.040   1.320   1.831 -0.0800  0.6518 -0.5121
11603TIP3    H156224   1.989   1.245   1.860 -0.4505  1.1574  0.1643
11603TIP3    H256225   1.976   1.390   1.818  0.4325  1.3014  0.3692
11604TIP3   OH256226   4.016   2.404   5.282 -0.1835 -0.1269 -0.1647
11604TIP3    H156227   4.053   2.341   5.344 -0.2361  0.7429  0.7858
11604TIP3    H256228   3.973   2.470   5.337  1.3456  1.6737 -0.9908
11605TIP3   OH256229   3.877   5.343  17.136  0.6827  0.1610  0.1142
11605TIP3    H156230   3.962   5.375  17.166  0.9629  0.3757 -0.8946
11605TIP3    H256231   3.883   5.248  17.143  1.2171  0.1456 -0.4977
11606TIP3   OH256232   4.645   4.746  10.858  0.6552  0.2431 -0.1582
11606TIP3    H156233   4.556   4.723  10.831  0.1533  1.6293  0.1955
11606TIP3    H256234   4.676   4.670  10.907 -0.2945 -0.2981 -0.3655
11607TIP3   OH256235   5.421   3.264   5.838  0.4539 -0.0234  0.2241
11607TIP3    H156236   5.481   3.248   5.765  1.7772  0.9577  1.0539
11607TIP3    H256237   5.467   3.327   5.893 -0.7561 -0.3239  1.6304
11608TIP3   OH256238   2.833   5.008   4.601  0.3995 -0.3384  0.7744
11608TIP3    H156239   2.882   4.934   4.636  0.2223 -0.3604  0.9821
11608TIP3    H256240   2.767   5.027   4.668 -1.2545 -1.6782 -0.4026
11609TIP3   OH256241   0.563   0.116  13.113  0.6397 -0.6272  0.4403
11609TIP3    H156242   0.547   0.169  13.190 -0.8523 -2.2362  1.3122
11609TIP3    H256243   0.476   0.101  13.075  1.1763 -1.2012 -0.6222
11610TIP3   OH256244   0.293   5.802  17.207  0.3784  0.2937 -0.0909
11610TIP3    H156245   0.237   5.736  17.166 -1.3356  2.2486 -1.0315
11610TIP3    H256246   0.370   5.806  17.150 -0.6733  0.9122 -1.5110
11611TIP3   OH256247   2.772   1.164   2.518 -0.0246 -0.1160  0.0271
11611TIP3    H156248   2.816   1.235   2.564  1.5223 -0.8066 -0.3299
11611TIP3    H256249   2.782   1.186   2.425  1.7399 -1.4599 -0.1588
11612TIP3   OH256250   5.104   4.753  14.151 -0.5103 -0.2156 -0.0989
11612TIP3    H156251   5.133   4.836  14.189 -0.6065  0.5582 -1.6447
11612TIP3    H256252   5.028   4.729  14.203  1.0129 -0.6868  2.0221
11613TIP3   OH256253   1.322   4.469   4.542 -0.9766 -0.1079 -0.2580
11613TIP3    H156254   1.271   4.455   4.462 -1.2420 -1.2549  0.0950
11613TIP3    H256255   1.256   4.479   4.611 -0.7700  1.7481 -0.2878
11614TIP3   OH256256   1.002   1.713  16.000 -0.0695  0.1744 -0.5339
11614TIP3    H156257   1.068   1.683  16.063 -0.1991 -1.7158 -1.2345
11614TIP3    H256258   1.023   1.805  15.985  1.8832 -0.1625 -0.0832
11615TIP3   OH256259   6.152   4.787  16.387 -0.1658  0.5077 -0.5426
11615TIP3    H156260   6.245   4.795  16.407 -0.4045  1.7675  0.1630
11615TIP3    H256261   6.120   4.877  16.382 -1.3174  0.1031 -0.9751
11616TIP3   OH256262   1.018   3.775   4.214 -0.3807 -0.1126 -0.0635
11616TIP3    H156263   1.086   3.791   4.148 -0.6481  0.8468 -0.1218
11616TIP3    H256264   1.053   3.814   4.294 -0.7241  0.0984 -0.0143
11617TIP3   OH256265   0.457   4.114   5.872 -0.7922  0.1179 -0.1644
11617TIP3    H156266   0.459   4.022   5.898  0.7060  0.1804  0.0245
11617TIP3    H256267   0.475   4.112   5.778  0.3036  0.2739  0.0371
11618TIP3   OH256268   5.358   1.526  11.160 -0.0982 -0.3237 -0.4266
11618TIP3    H156269   5.422   1.517  11.230 -0.0940  0.9700 -0.2483
11618TIP3    H256270   5.378   1.454  11.099  1.4112 -0.0301 -0.3018
11619TIP3   OH256271   0.324   1.302   5.875 -0.3267  0.2244  0.2653
11619TIP3    H156272   0.397   1.358   5.850 -0.3492  0.3710  0.5270
11619TIP3    H256273   0.288   1.342   5.954 -0.5171 -0.0031  0.2972
11620TIP3   OH256274   3.987   3.470  13.089  0.1685  0.0521 -0.2469
11620TIP3    H156275   3.938   3.392  13.115  0.2543  0.6468  1.8718
11620TIP3    H256276   3.921   3.538  13.080  0.3546  0.3184  0.3713
11621TIP3   OH256277   2.318   6.050  13.679 -0.2104 -0.7022 -0.2397
11621TIP3    H156278   2.406   6.021  13.656 -0.1599 -0.0248 -0.9140
11621TIP3    H256279   2.259   5.991  13.632 -0.1451 -1.5656  0.7099
11622TIP3   OH256280   3.805   3.953  14.334 -0.2839 -0.0600 -0.0720
11622TIP3    H156281   3.859   3.874  14.345 -0.4106 -0.3051 -1.0569
11622TIP3    H256282   3.785   3.954  14.240  0.4581  1.6379 -0.2484
11623TIP3   OH256283   1.732   0.204   0.952  0.5099  0.1936  0.0241
11623TIP3    H156284   1.701   0.283   0.997  0.7277  0.3245 -0.0578
11623TIP3    H256285   1.827   0.208   0.958  0.7081  1.5390 -2.6994
11624TIP3   OH256286   5.771   3.265   0.492  0.4167  0.0610 -0.2055
11624TIP3    H156287   5.688   3.284   0.535  0.5262  0.8245 -0.3132
11624TIP3    H256288   5.765   3.311   0.408  0.4169 -0.9735 -0.7891
11625TIP3   OH256289   4.111   2.679  15.637  0.6385 -0.0397 -0.6302
11625TIP3    H156290   4.072   2.634  15.712  0.1492  0.3141 -0.6705
11625TIP3    H256291   4.093   2.623  15.562 -2.2087  1.3651 -1.1367
11626TIP3   OH256292   4.306   1.579   0.526 -0.0349 -0.2152  0.3818
11626TIP3    H156293   4.365   1.610   0.595  0.3700  0.4937 -0.2537
11626TIP3    H256294   4.322   1.485   0.520  0.1742 -0.2212  1.0201
11627TIP3   OH256295   6.317   3.354  11.907 -0.0744 -0.1133 -0.6612
11627TIP3    H156296   6.233   3.374  11.867 -0.8150 -0.1059  0.8442
11627TIP3    H256297   6.382   3.379  11.841 -1.2599 -1.5870 -2.5053
11628TIP3   OH256298   4.094   4.489  11.449  0.6583  0.3079  0.3995
11628TIP3    H156299   4.157   4.538  11.397  0.7682 -0.0849  0.1594
11628TIP3    H256300   4.046   4.437  11.385 -0.7346  1.4855  0.4325
11629TIP3   OH256301   4.368   2.061   4.437 -0.6050  0.2068 -0.1797
11629TIP3    H156302   4.414   2.091   4.515 -0.9363 -0.0342  0.1082
11629TIP3    H256303   4.430   2.003   4.393 -0.2479  0.6974 -0.3392
11630TIP3   OH256304   1.348   4.006   2.568  0.4333 -0.1085 -0.2296
11630TIP3    H156305   1.410   3.941   2.602 -0.4795 -0.1148  1.5602
11630TIP3    H256306   1.308   3.964   2.492  1.9335 -0.4574 -0.8671
11631TIP3   OH256307   4.191   5.268   0.446  0.1601 -0.1182  0.3638
11631TIP3    H156308   4.128   5.245   0.377  3.4671  1.1522 -3.4511
11631TIP3    H256309   4.166   5.356   0.473 -0.2275  0.0172 -0.4200
11632TIP3   OH256310   1.612   0.084  14.008 -0.3887  0.0745 -0.1314
11632TIP3    H156311   1.548   0.122  13.948  0.6848  0.6404 -0.9627
11632TIP3    H256312   1.566   0.078  14.092 -0.6328  3.3108  0.0905
11633TIP3   OH256313   2.951   0.396   6.067  0.0458 -0.4821  0.3485
11633TIP3    H156314   3.022   0.458   6.057 -0.6219 -0.0231 -2.7812
11633TIP3    H256315   2.871   0.449   6.060 -0.5433 -1.4083 -0.2730
11634TIP3   OH256316   1.992   0.416  12.930  0.0143 -0.1257  0.6951
11634TIP3    H156317   2.017   0.506  12.953 -0.8084  0.3480 -0.2220
11634TIP3    H256318   2.053   0.391  12.860  0.3255 -0.3374  1.0367
11635TIP3   OH256319   2.104   4.327   2.848  0.3953  0.3512 -0.0947
11635TIP3    H156320   2.054   4.269   2.791  0.6587 -0.3463  0.3574
11635TIP3    H256321   2.061   4.412   2.841  0.2020  0.1824 -1.0278
11636TIP3   OH256322   5.975   2.987   3.669  0.1317  0.3152 -0.6857
11636TIP3    H156323   6.051   2.936   3.639 -1.7714 -3.0776 -0.2288
11636TIP3    H256324   5.909   2.973   3.601 -1.1806  0.2490  0.5454
11637TIP3   OH256325   3.784   0.907   1.961  0.6420 -0.4526 -0.4283
11637TIP3    H156326   3.782   0.812   1.973  2.4756 -0.5592 -0.6760
11637TIP3    H256327   3.760   0.921   1.870  1.7375 -0.8044 -0.7854
11638TIP3   OH256328   6.733   4.005   3.262  0.3326 -0.2250 -0.5850
11638TIP3    H156329   6.656   3.962   3.225 -1.5081  1.1257  1.4272
11638TIP3    H256330   6.721   4.098   3.240  0.5601  0.2192  1.0591
11639TIP3   OH256331   6.104   4.560  13.851 -0.2421 -0.1297 -0.3704
11639TIP3    H156332   6.009   4.557  13.841 -0.2601  1.0534 -0.6344
11639TIP3    H256333   6.132   4.470  13.835 -1.3222 -0.5138 -0.1900
11640TIP3   OH256334   4.170   4.398  12.122  0.4257 -0.4425 -0.2468
11640TIP3    H156335   4.236   4.347  12.168 -0.8082 -1.1852  0.8009
11640TIP3    H256336   4.115   4.434  12.192 -0.8919 -0.7445 -1.0790
11641TIP3   OH256337   1.075   4.725  13.315  0.4355 -0.3260 -0.2198
11641TIP3    H156338   1.150   4.675  13.348  0.9714 -0.0838 -1.0336
11641TIP3    H256339   1.009   4.658  13.296  1.2382 -0.7838 -1.5478
11642TIP3   OH256340   6.668   3.122  13.331  0.3495 -0.5339  0.1929
11642TIP3    H156341   6.711   3.167  13.258  0.4739 -1.1285 -0.1014
11642TIP3    H256342   6.597   3.073  13.290  1.1260 -1.7947  0.3181
11643TIP3   OH256343   6.118   2.655   3.078 -0.6725  0.2331 -0.1436
11643TIP3    H156344   6.197   2.638   3.027 -0.4804 -2.2926  0.8866
11643TIP3    H256345   6.047   2.645   3.016 -0.3699 -1.4618 -0.2419
11644TIP3   OH256346   1.471   3.732  12.921 -0.8838 -0.3626  0.1466
11644TIP3    H156347   1.560   3.746  12.955 -0.2457  0.6514 -1.7468
11644TIP3    H256348   1.413   3.765  12.990  0.3266  1.7486  0.2531
11645TIP3   OH256349   4.258   2.854  12.379  0.1548  0.5688 -0.3980
11645TIP3    H156350   4.331   2.876  12.437  0.8604  0.7973 -1.3442
11645TIP3    H256351   4.182   2.849  12.437  1.0977 -0.8125  0.8077
11646TIP3   OH256352   6.679   0.752  12.066 -0.0789 -0.4849  0.1690
11646TIP3    H156353   6.732   0.795  12.134 -1.1114 -1.3491  1.5930
11646TIP3    H256354   6.737   0.686  12.029  0.3742 -0.2993  0.5335
11647TIP3   OH256355   2.605   1.402  11.872 -0.3914 -0.4983 -0.3258
11647TIP3    H156356   2.515   1.374  11.855  0.0032 -1.5380 -0.7981
11647TIP3    H256357   2.596   1.489  11.911 -1.5814 -0.4340 -0.6984
11648TIP3   OH256358   1.873   5.848   4.964 -0.3982  0.1096  0.3447
11648TIP3    H156359   1.897   5.913   5.031  0.7098 -0.7412  0.8118
11648TIP3    H256360   1.955   5.804   4.944 -0.5946  0.7227 -2.0389
11649TIP3   OH256361   1.339   2.417   4.131 -0.3298 -0.1218  0.4515
11649TIP3    H156362   1.434   2.427   4.130 -0.3456  0.0046 -0.5031
11649TIP3    H256363   1.306   2.504   4.153 -0.2806  0.5329 -1.8120
11650TIP3   OH256364   4.068   1.469   3.815  0.5517 -0.5294  0.2577
11650TIP3    H156365   4.020   1.549   3.838  0.8479  0.1526 -1.3956
11650TIP3    H256366   4.102   1.437   3.899  0.1817  0.9060  0.9946
11651TIP3   OH256367   0.653   5.896  13.314  0.6068  0.0647 -0.2642
11651TIP3    H156368   0.621   5.891  13.224 -0.9741  2.7304  0.0353
11651TIP3    H256369   0.598   5.835  13.363 -0.6417  0.8473 -0.6414
11652TIP3   OH256370   2.081   3.007  12.958 -0.1948  0.3663 -0.0334
11652TIP3    H156371   2.132   3.065  12.903  3.1333 -1.3146  1.0257
11652TIP3    H256372   2.072   2.926  12.907 -1.0476  0.3218  0.1663
11653TIP3   OH256373   0.104   6.648  12.872 -0.0907 -0.6282 -0.3275
11653TIP3    H156374   0.059   6.569  12.901  0.0880 -0.3986  0.6026
11653TIP3    H256375   0.094   6.647  12.777  0.1349 -1.8919 -0.3542
11654TIP3   OH256376   6.740   5.782  11.619 -0.0394 -0.6042  0.2924
11654TIP3    H156377   6.772   5.714  11.560  1.3665  0.7251 -0.5345
11654TIP3    H256378   6.778   5.761  11.704 -2.6191 -2.9248  1.0225
11655TIP3   OH256379   6.505   2.452  13.911  0.0210 -0.3086 -0.3081
11655TIP3    H156380   6.455   2.394  13.853  0.4735 -1.7165  0.6554
11655TIP3    H256381   6.585   2.471  13.863  0.0343 -0.7911 -0.4824
11656TIP3   OH256382   2.451   0.723  16.063 -0.0879 -0.4965 -0.0298
11656TIP3    H156383   2.408   0.755  16.142  1.7180  0.4144  0.6240
11656TIP3    H256384   2.431   0.790  15.997  1.9364  0.9877  0.7971
11657TIP3   OH256385   4.967   2.021  16.899  0.5130  0.3766 -0.2052
11657TIP3    H156386   4.912   1.995  16.826  0.9730 -0.1294 -0.3827
11657TIP3    H256387   4.962   1.948  16.961 -1.2992  1.5531  1.1177
11658TIP3   OH256388   5.728   5.750   2.954  0.1423  0.1434 -0.7483
11658TIP3    H156389   5.746   5.837   2.916  0.0505  0.1225 -0.8413
11658TIP3    H256390   5.758   5.688   2.887  0.2138  0.1035 -0.6789
11659TIP3   OH256391   6.587   1.066   3.705 -0.3624  0.1316  0.0634
11659TIP3    H156392   6.648   1.122   3.754 -0.6604 -0.5969  1.3086
11659TIP3    H256393   6.624   1.062   3.617  0.4337  1.1300  0.3375
11660TIP3   OH256394   5.308   1.661  14.538  0.1239  0.3285 -0.1893
11660TIP3    H156395   5.228   1.681  14.587  1.1567 -2.7545  3.3150
11660TIP3    H256396   5.379   1.683  14.599  1.4723 -4.6753  0.5721
11661TIP3   OH256397   2.866   5.721   4.149 -0.1656 -0.3170  0.1553
11661TIP3    H156398   2.782   5.756   4.117  0.3681 -0.1554 -1.1400
11661TIP3    H256399   2.904   5.678   4.072  0.5368 -1.1723  0.9685
11662TIP3   OH256400   3.957   5.889   0.243  0.9785  0.0927 -0.0667
11662TIP3    H156401   3.991   5.881   0.332 -0.0581  1.2286  0.4510
11662TIP3    H256402   3.872   5.933   0.253  1.0720  0.7028 -1.6472
11663TIP3   OH256403   5.634   2.116  12.488  0.0242 -0.1271  0.2458
11663TIP3    H156404   5.701   2.184  12.477 -0.8084  0.4891 -1.4045
11663TIP3    H256405   5.678   2.034  12.464  0.2987  0.2295 -0.5129
11664TIP3   OH256406   3.676   5.037  16.093 -0.5355  0.6113 -0.1175
11664TIP3    H156407   3.764   5.063  16.064  0.1924  1.9562  2.9105
11664TIP3    H256408   3.640   5.116  16.133 -1.4074 -0.9900  2.4678
11665TIP3   OH256409   1.582   2.550   4.159  0.4002 -0.2887  0.4566
11665TIP3    H156410   1.549   2.639   4.149  2.0006  0.3087  0.2877
11665TIP3    H256411   1.567   2.530   4.252  0.4991  0.3644  0.6210
11666TIP3   OH256412   6.682   0.484   5.139 -0.5730 -0.2170 -0.4583
11666TIP3    H156413   6.738   0.474   5.062  2.1658  3.5157  0.7571
11666TIP3    H256414   6.639   0.568   5.127 -2.4451 -0.9334  0.8111
11667TIP3   OH256415   0.199   6.506  15.121  0.7260 -0.0886 -0.3168
11667TIP3    H156416   0.176   6.532  15.032  0.8647  1.2322  0.0080
11667TIP3    H256417   0.290   6.535  15.131  0.9594 -0.9216  0.0053
11668TIP3   OH256418   5.196   6.145  16.474 -0.7312 -0.4900 -0.4296
11668TIP3    H156419   5.160   6.193  16.399 -0.1520  0.9306  0.1554
11668TIP3    H256420   5.287   6.129  16.451 -0.2205  0.9714  0.3765
11669TIP3   OH256421   5.644   0.065  15.958 -0.1697  0.0916  0.4588
11669TIP3    H156422   5.729   0.107  15.962  0.1911 -0.6730  0.9770
11669TIP3    H256423   5.581   0.137  15.964  0.4286  0.4998  2.3941
11670TIP3   OH256424   5.465   2.346  16.459 -0.3173  0.1313  0.2547
11670TIP3    H156425   5.416   2.265  16.443  0.7417 -0.6543  0.7727
11670TIP3    H256426   5.557   2.319  16.450  0.1334  0.8330  2.2908
11671TIP3   OH256427   5.833   4.784   6.204 -0.1543 -0.4256  0.0773
11671TIP3    H156428   5.872   4.737   6.131 -1.2061 -1.2989  0.0683
11671TIP3    H256429   5.870   4.743   6.282 -1.0959 -1.3355  0.0708
11672TIP3   OH256430   0.535   6.022  14.466 -0.3225  0.7205 -0.5734
11672TIP3    H156431   0.599   6.013  14.537  0.5190  0.3810 -1.3513
11672TIP3    H256432   0.587   6.050  14.391 -0.7554 -1.2797 -1.6966
11673TIP3   OH256433   2.508   1.917   5.818 -0.2001 -0.2019  0.0457
11673TIP3    H156434   2.517   1.857   5.891 -0.4735  0.5505  0.7089
11673TIP3    H256435   2.531   1.864   5.741  2.7761 -0.3122  0.8755
11674TIP3   OH256436   3.479   6.586  17.278  0.4117  0.2866  0.5708
11674TIP3    H156437   3.422   6.529  17.226  1.6302 -0.5502  0.1150
11674TIP3    H256438   3.426   6.665  17.293 -0.1469  0.3925 -1.6010
11675TIP3   OH256439   3.350   6.408   1.083 -0.7112  0.0157  0.2537
11675TIP3    H156440   3.321   6.321   1.110  1.0270 -0.7931 -0.4026
11675TIP3    H256441   3.311   6.421   0.996 -0.6464 -0.2583  0.1852
11676TIP3   OH256442   2.255   5.303  12.169 -0.0394 -0.0944  0.5417
11676TIP3    H156443   2.272   5.387  12.125  1.6483 -0.9870 -0.6370
11676TIP3    H256444   2.327   5.294  12.231  0.1094 -0.9167  0.2579
11677TIP3   OH256445   0.204   2.089  15.027  0.9656  0.1498 -0.1339
11677TIP3    H156446   0.218   2.184  15.028  0.2625  0.2604 -0.5207
11677TIP3    H256447   0.232   2.061  14.940  0.5924  0.0891 -0.2336
11678TIP3   OH256448   2.777   2.209   3.183 -0.0764 -0.1016  0.0675
11678TIP3    H156449   2.754   2.146   3.115  0.7459 -1.1773  0.7501
11678TIP3    H256450   2.813   2.284   3.136  0.3654 -0.7801 -0.6948
11679TIP3   OH256451   4.708   4.950  14.193 -0.1320  0.0048 -0.1379
11679TIP3    H156452   4.723   5.036  14.152  0.0736 -0.1237 -0.3377
11679TIP3    H256453   4.663   4.899  14.125  0.4135 -0.2819 -0.2912
11680TIP3   OH256454   5.201   5.629  14.735  0.2938  0.6845  0.1060
11680TIP3    H156455   5.109   5.616  14.710  0.7681 -0.3526 -1.2156
11680TIP3    H256456   5.205   5.595  14.825 -0.6382  0.8704  0.2362
11681TIP3   OH256457   6.556   1.040   5.130 -0.5850  0.2447  0.0486
11681TIP3    H156458   6.551   0.998   5.215  3.3005 -0.6320  0.0434
11681TIP3    H256459   6.542   1.133   5.148  1.0368  0.2050  1.8835
11682TIP3   OH256460   1.295   0.340  11.907 -0.1987  0.3304  0.3213
11682TIP3    H156461   1.285   0.427  11.867  0.4075  0.4572  0.4280
11682TIP3    H256462   1.268   0.353  11.998 -2.6831 -0.2216 -0.2753
11683TIP3   OH256463   1.506   2.091   2.488  0.3001 -0.3031 -0.2605
11683TIP3    H156464   1.581   2.035   2.510 -0.3895 -0.3515  2.2566
11683TIP3    H256465   1.461   2.104   2.571  0.0625  3.5079 -0.8319
11684TIP3   OH256466   5.103   4.410   3.266 -0.9946 -0.4007 -0.2017
11684TIP3    H156467   5.117   4.486   3.209 -0.1236 -0.0281  0.4968
11684TIP3    H256468   5.058   4.346   3.210 -0.2202 -0.0226 -1.2892
11685TIP3   OH256469   4.897   3.548   5.974  0.6006  0.4772 -0.8697
11685TIP3    H156470   4.873   3.467   5.929  2.5271 -0.1486 -0.8474
11685TIP3    H256471   4.970   3.583   5.923  1.1327  1.1285  0.3143
11686TIP3   OH256472   5.137   3.923  15.882  0.6478  0.0038 -0.7883
11686TIP3    H156473   5.120   3.829  15.883  1.3559 -0.2069  2.1038
11686TIP3    H256474   5.062   3.961  15.927  1.0900  0.6493 -0.5888
11687TIP3   OH256475   3.091   3.080   1.745  0.6624 -0.5831 -0.2478
11687TIP3    H156476   3.119   3.034   1.666  0.6709 -0.3056 -0.4087
11687TIP3    H256477   3.167   3.077   1.803  0.3695 -1.5616  0.1087
11688TIP3   OH256478   4.913   2.528   2.227  0.8027 -0.0886 -0.1658
11688TIP3    H156479   4.899   2.607   2.175 -1.8713 -1.4847 -1.8413
11688TIP3    H256480   4.973   2.475   2.174 -0.8553 -0.9362 -1.2943
11689TIP3   OH256481   5.229   6.325   5.469 -0.5265 -0.2339  0.2095
11689TIP3    H156482   5.286   6.251   5.492 -0.0846  0.0050 -0.0888
11689TIP3    H256483   5.276   6.402   5.500 -1.3493 -0.1134  1.2222
11690TIP3   OH256484   6.426   0.215  17.322 -0.3739  0.1222 -0.7310
11690TIP3    H156485   6.375   0.236  17.243 -1.7731 -1.1288 -0.2004
11690TIP3    H256486   6.422   0.120  17.329  0.9667  0.0878  0.0818
11691TIP3   OH256487   5.252   0.797   5.084 -0.3256  0.0907 -0.4211
11691TIP3    H156488   5.320   0.826   5.023 -0.5276  0.0286 -0.6789
11691TIP3    H256489   5.300   0.751   5.153  0.1945  2.4599  0.9169
11692TIP3   OH256490   3.263   4.114   3.905 -0.1789 -0.0605  0.5232
11692TIP3    H156491   3.188   4.082   3.954 -0.3559  0.9888  0.9644
11692TIP3    H256492   3.260   4.209   3.916  1.3589 -0.0078  0.7909
11693TIP3   OH256493   5.239   0.648  10.984  0.1099 -0.1039 -0.2248
11693TIP3    H156494   5.235   0.721  10.921  0.0820 -1.1148 -1.4315
11693TIP3    H256495   5.323   0.606  10.966  0.5787  0.1851  1.1414
11694TIP3   OH256496   6.259   2.503  14.598 -0.1600 -0.1084 -0.4468
11694TIP3    H156497   6.219   2.431  14.647  2.7849 -2.4296 -1.1296
11694TIP3    H256498   6.325   2.539  14.657 -0.1719  0.6142 -0.8608
11695TIP3   OH256499   5.894   6.508  13.447  0.0526  0.4898 -0.1263
11695TIP3    H156500   5.877   6.415  13.463 -0.0551  0.1820 -1.9100
11695TIP3    H256501   5.807   6.548  13.442  0.1016  0.7418  0.8309
11696TIP3   OH256502   3.301   1.199  15.894 -0.1366  0.4827 -0.6277
11696TIP3    H156503   3.220   1.165  15.855 -1.2184  0.0185  1.8510
11696TIP3    H256504   3.359   1.123  15.900 -1.5315 -0.4793  2.3594
11697TIP3   OH256505   0.757   4.717  15.094  0.1853  0.0660 -0.4209
11697TIP3    H156506   0.813   4.778  15.143  1.3587 -0.1980 -1.3784
11697TIP3    H256507   0.746   4.759  15.008 -1.2130  0.1668 -0.2121
11698TIP3   OH256508   2.218   2.670  14.195 -0.2303  0.0035  0.6920
11698TIP3    H156509   2.190   2.648  14.284  0.0931 -0.5601  0.6604
11698TIP3    H256510   2.290   2.732  14.208 -1.3059  1.2917  0.7767
11699TIP3   OH256511   6.675   0.328  14.469  0.0153  0.6593 -0.5236
11699TIP3    H156512   6.627   0.259  14.423 -0.6066  1.8852 -1.7772
11699TIP3    H256513   6.767   0.312  14.448  0.0376 -0.6376  0.4209
11700TIP3   OH256514   4.596   0.633  14.892 -0.3177 -0.4761  0.4824
11700TIP3    H156515   4.534   0.598  14.956 -1.8725  1.6985  0.2673
11700TIP3    H256516   4.673   0.578  14.901 -1.7080 -2.3280  1.8580
11701TIP3   OH256517   0.388   5.727  13.894  0.3368 -0.0237 -0.2667
11701TIP3    H156518   0.317   5.679  13.850  0.9089 -0.6552 -0.5117
11701TIP3    H256519   0.374   5.818  13.868 -0.9688  0.0163  0.4704
11702TIP3   OH256520   3.584   0.416  11.773  0.1316 -0.6131 -0.0971
11702TIP3    H156521   3.548   0.413  11.685  1.0701 -1.0058 -0.4773
11702TIP3    H256522   3.664   0.467  11.765 -0.4243  0.4350  0.7802
11703TIP3   OH256523   2.359   3.064  15.290 -0.3667 -0.9416 -0.0604
11703TIP3    H156524   2.317   2.990  15.333 -2.0933 -0.0534 -0.1321
11703TIP3    H256525   2.289   3.128  15.278  1.0223  0.6313 -0.1768
11704TIP3   OH256526   1.654   5.042   3.435  0.0849 -0.0759  0.6079
11704TIP3    H156527   1.573   5.017   3.480 -0.5903  0.1480 -0.4370
11704TIP3    H256528   1.681   5.123   3.477 -1.8129  1.4020 -0.8791
11705TIP3   OH256529   6.297   5.093  12.255  1.0587  0.2348  0.0880
11705TIP3    H156530   6.345   5.010  12.257  3.0842  1.2667 -1.4631
11705TIP3    H256531   6.272   5.108  12.346  0.6481 -2.0329  0.4135
11706TIP3   OH256532   3.908   2.931   4.543 -0.1719 -0.0105  0.2059
11706TIP3    H156533   3.966   2.859   4.568 -1.4020 -1.2716 -0.4081
11706TIP3    H256534   3.967   3.001   4.516  1.0702 -0.8350  0.6793
11707TIP3   OH256535   6.183   1.782  16.397 -0.1044  0.1306 -0.0374
11707TIP3    H156536   6.213   1.804  16.309  2.3557 -1.6006  0.2773
11707TIP3    H256537   6.143   1.863  16.429 -0.9501  0.8351 -2.6576
11708TIP3   OH256538   1.185   2.105  12.392  0.3079  0.2521 -0.1585
11708TIP3    H156539   1.183   2.171  12.461 -1.5085 -0.6899  0.7580
11708TIP3    H256540   1.156   2.151  12.314  1.2486  1.0489 -0.0618
11709TIP3   OH256541   0.920   2.949   3.815  0.2500  0.0119  0.1311
11709TIP3    H156542   1.000   2.999   3.828  0.9076 -1.3466  1.7352
11709TIP3    H256543   0.938   2.863   3.855 -1.7822 -0.5398  0.0011
11710TIP3   OH256544   0.565   4.006  13.196  0.4543  0.3598  0.1764
11710TIP3    H156545   0.649   3.984  13.236 -0.7866 -2.7306  1.4412
11710TIP3    H256546   0.500   3.977  13.260 -1.7336  4.4819  0.2229
11711TIP3   OH256547   1.937   2.866  13.266 -0.1585  1.0390  0.7350
11711TIP3    H156548   1.913   2.825  13.183 -1.4993  0.0210  1.5672
11711TIP3    H256549   2.024   2.902  13.252 -0.7067  1.6456 -1.3630
11712TIP3   OH256550   0.353   0.483  11.194 -0.1426 -0.2365  0.6240
11712TIP3    H156551   0.354   0.533  11.112 -0.5759 -2.1152 -0.6088
11712TIP3    H256552   0.263   0.451  11.202  0.5435 -2.4542  0.2411
11713TIP3   OH256553   3.015   1.264   5.181 -0.0950 -0.1867  0.0717
11713TIP3    H156554   2.973   1.350   5.188 -0.5425 -0.4272  0.3939
11713TIP3    H256555   3.108   1.282   5.189 -0.2782  0.0933  1.8804
11714TIP3   OH256556   0.891   5.136  14.447 -0.2337  0.6688 -0.7670
11714TIP3    H156557   0.822   5.133  14.513 -0.0645  2.3611 -0.4778
11714TIP3    H256558   0.844   5.132  14.363 -0.6431  1.2449 -0.5668
11715TIP3   OH256559   0.353   2.446   2.613  0.5184 -0.2178 -0.3513
11715TIP3    H156560   0.430   2.428   2.559  0.1870 -0.6217 -0.6886
11715TIP3    H256561   0.282   2.461   2.550  0.4035  0.5688 -0.0509
11716TIP3   OH256562   1.612   6.449   5.206  0.2000 -0.2775 -0.4910
11716TIP3    H156563   1.676   6.520   5.216  0.1485 -0.3726  0.5933
11716TIP3    H256564   1.529   6.494   5.191  0.3250 -0.1330 -0.7670
11717TIP3   OH256565   1.549   0.923  14.836  0.0934 -0.2798 -0.0738
11717TIP3    H156566   1.606   0.848  14.850 -1.6636 -1.6853 -0.1230
11717TIP3    H256567   1.462   0.885  14.821 -0.8983  1.7716  0.1315
11718TIP3   OH256568   5.709   3.726   3.032  0.1104 -0.1970 -0.1898
11718TIP3    H156569   5.692   3.820   3.041 -0.7714 -0.1627 -1.8455
11718TIP3    H256570   5.623   3.687   3.015  0.1087 -1.6455  2.5000
11719TIP3   OH256571   3.187   5.769   4.975  0.1913  0.1559 -0.0659
11719TIP3    H156572   3.184   5.763   5.071 -0.4363  0.6418 -0.0510
11719TIP3    H256573   3.218   5.858   4.958 -0.4707  0.3382 -0.3200
11720TIP3   OH256574   1.675   4.739  15.643 -0.2344 -0.4971 -0.3604
11720TIP3    H156575   1.704   4.742  15.735  0.5251 -0.2839 -0.5941
11720TIP3    H256576   1.757   4.737  15.593 -0.6435 -1.3231 -1.0194
11721TIP3   OH256577   1.267   0.553   6.018 -0.2027  0.4043  0.2293
11721TIP3    H156578   1.259   0.488   6.088  2.1560 -0.9583 -0.6429
11721TIP3    H256579   1.243   0.507   5.938 -1.8050  1.6414 -0.0624
11722TIP3   OH256580   6.008   3.282   3.608 -0.5478 -0.4692  0.1652
11722TIP3    H156581   6.045   3.290   3.521  1.6822 -0.1541  1.0727
11722TIP3    H256582   6.026   3.191   3.633  0.1109 -0.1748  0.8087
11723TIP3   OH256583   5.965   6.484  10.976 -0.2765 -0.4850  0.4772
11723TIP3    H156584   6.060   6.491  10.990 -0.0498 -2.4820  0.2719
11723TIP3    H256585   5.928   6.553  11.031  1.3277  0.9884 -0.1954
11724TIP3   OH256586   3.951   0.388   3.407  0.0086  0.5024 -0.0587
11724TIP3    H156587   3.894   0.341   3.468 -1.7523 -0.0757 -2.0694
11724TIP3    H256588   3.924   0.359   3.321  1.5629  2.2818 -1.2245
11725TIP3   OH256589   2.463   4.998   3.718 -0.0517 -0.4869 -0.1374
11725TIP3    H156590   2.432   4.924   3.769 -0.0449  0.6670  1.6049
11725TIP3    H256591   2.463   4.966   3.627 -2.3334 -1.8324  0.2614
11726TIP3   OH256592   0.457   6.131   0.986 -0.1231 -0.0597  0.2776
11726TIP3    H156593   0.408   6.140   1.068 -3.3040 -0.1665 -1.4734
11726TIP3    H256594   0.434   6.208   0.935  1.7021 -0.0608 -0.6274
11727TIP3   OH256595   3.537   3.790   5.827 -0.6235  0.0697 -0.1359
11727TIP3    H156596   3.555   3.696   5.821  1.2177  0.4333 -1.1101
11727TIP3    H256597   3.561   3.824   5.741 -3.1502  1.1822 -0.4734
11728TIP3   OH256598   4.652   2.231  15.968 -0.5181  0.4354  0.3553
11728TIP3    H156599   4.632   2.140  15.951  1.3774 -0.0223  0.3858
11728TIP3    H256600   4.690   2.264  15.886  0.5286  0.6491  0.9029
11729TIP3   OH256601   4.862   2.351   5.456  0.0987 -0.4839 -0.2652
11729TIP3    H156602   4.901   2.370   5.371  1.7711 -0.5579  0.4408
11729TIP3    H256603   4.782   2.403   5.458 -0.4823 -1.2053 -2.2354
11730TIP3   OH256604   4.723   4.615  16.427 -0.0182  0.0315  0.8320
11730TIP3    H156605   4.715   4.704  16.393 -0.0020 -0.0459  0.6199
11730TIP3    H256606   4.697   4.559  16.354 -2.7119 -0.0966  1.7791
11731TIP3   OH256607   5.905   3.367  15.095 -0.3265 -0.1743  0.0797
11731TIP3    H156608   5.981   3.308  15.096 -0.0625  0.1488  1.4725
11731TIP3    H256609   5.894   3.390  15.003  0.1686 -1.6189 -0.3782
11732TIP3   OH256610   1.547   1.102  13.654 -0.0653  0.5635  0.5092
11732TIP3    H156611   1.543   1.012  13.624  0.3802  0.5234  0.5642
11732TIP3    H256612   1.639   1.115  13.679 -0.5962  0.2923  2.7965
11733TIP3   OH256613   6.740   3.887   5.461  0.3494  0.0815  0.2600
11733TIP3    H156614   6.692   3.945   5.520 -3.0009 -0.3982 -1.7279
11733TIP3    H256615   6.820   3.935   5.441 -1.6428  3.5405 -0.2883
11734TIP3   OH256616   6.270   3.885   2.148  0.6577  0.6093  0.0867
11734TIP3    H156617   6.252   3.940   2.072 -0.4150  1.1922  0.7340
11734TIP3    H256618   6.364   3.892   2.161  0.8799  0.4073 -1.2415
11735TIP3   OH256619   0.771   4.806   3.538 -0.1642 -0.4510  0.2077
11735TIP3    H156620   0.680   4.819   3.511 -0.4689 -1.8008  0.5381
11735TIP3    H256621   0.811   4.759   3.465  0.1442 -0.3008  0.2783
11736TIP3   OH256622   4.686   5.111   5.840 -0.2216 -0.4530 -0.5450
11736TIP3    H156623   4.737   5.129   5.919 -1.7901  1.8694  0.0638
11736TIP3    H256624   4.608   5.066   5.873 -1.4124  1.4998 -0.4996
11737TIP3   OH256625   2.138   1.817   5.617  0.3271 -0.4308 -0.1188
11737TIP3    H156626   2.072   1.857   5.673 -0.1759  0.0092 -1.0142
11737TIP3    H256627   2.184   1.891   5.577  0.5174 -0.7405 -0.4796
11738TIP3   OH256628   1.001   3.651  15.033  0.2655 -0.0705 -0.2338
11738TIP3    H156629   0.980   3.606  15.115  0.9735 -0.5705 -0.3101
11738TIP3    H256630   0.966   3.739  15.043 -1.2090 -0.6418 -0.0955
11739TIP3   OH256631   1.855   3.610  15.440 -0.5270 -0.1565 -0.4910
11739TIP3    H156632   1.941   3.644  15.468  0.4902 -1.0252 -2.4260
11739TIP3    H256633   1.793   3.652  15.500  1.2843 -0.0684  1.4632
11740TIP3   OH256634   5.790   0.502  11.814 -0.2143  0.2151  0.0958
11740TIP3    H156635   5.851   0.573  11.833  0.2226  0.0311 -0.6263
11740TIP3    H256636   5.742   0.531  11.736  1.3082 -1.0938 -1.4118
11741TIP3   OH256637   4.561   2.583   5.734  0.5446  0.0136 -0.3757
11741TIP3    H156638   4.592   2.537   5.812 -1.0831 -0.5662 -0.0141
11741TIP3    H256639   4.471   2.610   5.757  0.0370 -0.1585 -2.0413
11742TIP3   OH256640   2.827   2.550   3.207  0.4920 -0.4034 -0.1876
11742TIP3    H156641   2.807   2.615   3.273 -0.0554 -2.0788  1.3775
11742TIP3    H256642   2.743   2.534   3.163  0.8489  0.6894 -1.3351
11743TIP3   OH256643   2.207   3.453   3.263 -0.7531  0.6363  0.1493
11743TIP3    H156644   2.155   3.511   3.319 -0.7668  0.3828  0.3986
11743TIP3    H256645   2.296   3.459   3.298 -0.9051 -0.1272  0.6964
11744TIP3   OH256646   4.779   1.981  11.506  0.4938  0.4429 -0.0323
11744TIP3    H156647   4.856   1.970  11.562  1.6457  1.9101 -1.2319
11744TIP3    H256648   4.814   2.019  11.425 -1.3649  0.1602 -1.0198
11745TIP3   OH256649   3.843   4.863   5.377 -0.2903  0.1299  0.6015
11745TIP3    H156650   3.912   4.826   5.323 -1.0850 -1.1529  0.4175
11745TIP3    H256651   3.870   4.845   5.467 -0.1875 -0.0221  0.5404
11746TIP3   OH256652   5.950   6.053   1.947  0.1080 -0.1112  0.2630
11746TIP3    H156653   5.947   6.033   1.853 -1.1317 -0.1729  0.2915
11746TIP3    H256654   5.916   5.974   1.989  1.2384 -0.3188  0.8225
11747TIP3   OH256655   6.568   5.854  12.696 -0.4009 -0.1177  0.3352
11747TIP3    H156656   6.630   5.913  12.738 -0.0999 -1.5791  2.0980
11747TIP3    H256657   6.621   5.777  12.674 -1.0299 -0.2574 -0.7437
11748TIP3   OH256658   2.869   3.696  11.798  0.1163 -0.2059  0.4877
11748TIP3    H156659   2.951   3.654  11.772  0.2580  0.7100 -0.6077
11748TIP3    H256660   2.867   3.778  11.749 -0.2916  0.9654  2.3804
11749TIP3   OH256661   5.914   6.137  12.340 -0.4176  0.6617 -0.2099
11749TIP3    H156662   5.828   6.145  12.380 -0.1377 -0.4604  0.6718
11749TIP3    H256663   5.937   6.226  12.313 -1.0465  1.2753  1.2211
11750TIP3   OH256664   6.198   3.878  13.188  0.3392 -0.3553 -0.0152
11750TIP3    H156665   6.149   3.820  13.130 -0.4630 -0.9241  1.1881
11750TIP3    H256666   6.226   3.951  13.131  0.5020 -1.4055 -1.3279
11751TIP3   OH256667   1.136   3.650  15.497 -0.2110  0.2992 -0.1808
11751TIP3    H156668   1.190   3.727  15.482  3.3634 -2.2238 -1.9389
11751TIP3    H256669   1.177   3.605  15.571 -2.4055  0.1476  1.0365
11752TIP3   OH256670   1.916   6.399   3.995 -0.0393 -0.4603  0.0099
11752TIP3    H156671   1.949   6.390   4.085  0.3894  0.5123 -0.0413
11752TIP3    H256672   1.885   6.490   3.991 -0.5253 -0.6549 -0.6739
11753TIP3   OH256673   5.866   4.058  16.116 -1.0248 -0.0412  0.9477
11753TIP3    H156674   5.922   4.036  16.191 -1.1840 -0.5135  0.9351
11753TIP3    H256675   5.820   3.976  16.097 -0.8882  0.0449  0.2479
11754TIP3   OH256676   3.284   1.033   5.942 -0.3724 -0.0917  0.0856
11754TIP3    H156677   3.294   1.065   5.852  0.2893 -0.4199  0.0358
11754TIP3    H256678   3.276   1.113   5.995  1.5240  0.2156 -0.0107
11755TIP3   OH256679   5.397   2.511   2.358  0.4371 -0.5559 -0.2221
11755TIP3    H156680   5.470   2.516   2.421  0.9325 -2.2105 -0.6151
11755TIP3    H256681   5.319   2.508   2.413  0.6001  1.4118  0.2045
11756TIP3   OH256682   4.395   3.290   6.312 -0.1412  0.5106 -0.1141
11756TIP3    H156683   4.368   3.239   6.388 -2.1655  0.1178 -1.0356
11756TIP3    H256684   4.358   3.377   6.328 -0.0424  0.5968 -0.3603
11757TIP3   OH256685   5.654   2.631   1.040 -0.1294  0.2137 -0.1346
11757TIP3    H156686   5.561   2.637   1.017 -0.3509  0.7407  0.8242
11757TIP3    H256687   5.681   2.722   1.052 -0.0932  0.0050  1.7926
11758TIP3   OH256688   1.797   2.015   1.719  0.3145 -1.1012 -0.3218
11758TIP3    H156689   1.753   2.051   1.796  0.3467  0.8477 -1.1682
11758TIP3    H256690   1.883   1.988   1.752 -0.4309 -2.3068  0.7401
11759TIP3   OH256691   5.788   2.924   2.120  0.9212 -0.5012  0.1359
11759TIP3    H156692   5.774   2.971   2.038  1.3146  0.3953  0.5683
11759TIP3    H256693   5.874   2.954   2.150 -0.0950  0.8204  1.9180
11760TIP3   OH256694   3.726   1.151   0.723 -0.0860 -0.1193 -0.0526
11760TIP3    H156695   3.803   1.116   0.680 -1.0880 -1.5818 -0.7298
11760TIP3    H256696   3.710   1.092   0.797  0.2945  1.0567  1.0208
11761TIP3   OH256697   4.787   6.541   2.623 -0.6146  0.2824  0.4962
11761TIP3    H156698   4.691   6.541   2.623 -0.6871 -1.9732  1.1191
11761TIP3    H256699   4.811   6.503   2.538 -0.2406  1.3095  0.1306
11762TIP3   OH256700   3.559   5.829  11.695 -0.5075  0.3130 -0.3389
11762TIP3    H156701   3.469   5.814  11.666 -0.1105 -0.2151 -1.3274
11762TIP3    H256702   3.610   5.759  11.654  0.3274  0.4738  0.3834
11763TIP3   OH256703   4.397   5.797  12.868  0.1657  0.5793 -0.0880
11763TIP3    H156704   4.336   5.782  12.940  1.8342  0.5016  1.3930
11763TIP3    H256705   4.436   5.883  12.888  0.8794  0.4155 -0.7231
11764TIP3   OH256706   0.169   1.090   5.780  0.1673  0.3513 -0.1604
11764TIP3    H156707   0.232   1.154   5.810  0.1695  1.1268 -1.7229
11764TIP3    H256708   0.093   1.141   5.753 -0.3413 -0.4053 -0.2185
11765TIP3   OH256709   2.647   2.478   2.096  0.0144 -0.1050  0.1851
11765TIP3    H156710   2.559   2.515   2.103  0.0779  0.0491  0.1688
11765TIP3    H256711   2.641   2.394   2.141  0.8920  1.6373  3.9460
11766TIP3   OH256712   5.307   0.027   5.396  0.2465 -0.9526 -0.2012
11766TIP3    H156713   5.238   0.017   5.462  0.3172 -1.1906 -0.1602
11766TIP3    H256714   5.261   0.022   5.312  0.2128 -1.1124 -0.1738
11767TIP3   OH256715   4.447   4.265  15.314  0.6069  0.0655  0.4753
11767TIP3    H156716   4.515   4.295  15.253 -0.8266  1.8363 -0.3511
11767TIP3    H256717   4.481   4.183  15.349  2.6706  0.3280 -0.7237
11768TIP3   OH256718   1.362   1.226   0.724  0.4424 -0.2140 -0.0156
11768TIP3    H156719   1.349   1.144   0.770  1.6916 -1.4788 -1.7989
11768TIP3    H256720   1.337   1.293   0.787 -0.8998 -1.9474  1.3889
11769TIP3   OH256721   3.441   1.860  12.416  0.2682 -0.2905 -0.2531
11769TIP3    H156722   3.415   1.774  12.447 -1.8175  0.8405  1.3618
11769TIP3    H256723   3.519   1.881  12.467  0.4174 -0.9429 -0.2038
11770TIP3   OH256724   5.211   1.977   3.653  0.3938 -0.1360 -0.0046
11770TIP3    H156725   5.291   1.988   3.703 -0.7665  0.3382  1.8305
11770TIP3    H256726   5.140   1.985   3.717 -1.1959  0.9647 -1.7847
11771TIP3   OH256727   2.986   3.396  14.202 -0.5233  0.5352 -0.0802
11771TIP3    H156728   3.011   3.395  14.109 -2.5050 -0.1325 -0.6646
11771TIP3    H256729   3.015   3.481  14.234  0.8710  0.4770 -1.1027
11772TIP3   OH256730   6.310   6.401  14.184 -0.2490 -0.0223  0.0250
11772TIP3    H156731   6.301   6.356  14.100 -0.3475 -0.8443  0.4723
11772TIP3    H256732   6.262   6.483  14.172  0.4429  0.2651 -0.9960
11773TIP3   OH256733   1.656   3.377  13.753 -0.3265 -0.5573  0.1176
11773TIP3    H156734   1.705   3.351  13.675  0.2690  1.0534 -0.0626
11773TIP3    H256735   1.579   3.320  13.752  0.1643 -1.2426 -1.0886
11774TIP3   OH256736   5.957   5.918   5.367  0.5044 -0.7484  0.7515
11774TIP3    H156737   6.000   5.975   5.431 -0.2452 -0.9407  1.4392
11774TIP3    H256738   5.883   5.970   5.336  0.9433 -0.5995 -0.0853
11775TIP3   OH256739   0.125   1.491   1.402  0.4765  0.0228  0.1674
11775TIP3    H156740   0.113   1.525   1.313 -1.5448  0.7974  0.6937
11775TIP3    H256741   0.081   1.554   1.458 -1.9136 -2.5043  1.3474
11776TIP3   OH256742   2.396   2.118   1.932 -0.3562 -0.1164 -0.1649
11776TIP3    H156743   2.486   2.121   1.967 -0.0554  0.3910 -0.9517
11776TIP3    H256744   2.366   2.209   1.935 -1.6839 -0.5533  2.1293
11777TIP3   OH256745   5.494   3.871   3.401 -0.2473  0.5013  0.1708
11777TIP3    H156746   5.492   3.840   3.492  2.2887  0.7914  0.4086
11777TIP3    H256747   5.421   3.826   3.358 -0.5293 -0.8691  1.9703
11778TIP3   OH256748   1.579   6.230   5.017  0.9845 -0.3987  0.1773
11778TIP3    H156749   1.597   6.312   5.063  0.1543  0.4318 -0.9254
11778TIP3    H256750   1.657   6.213   4.965  1.5555 -0.8539  1.1594
11779TIP3   OH256751   2.321   5.644   0.286 -0.1100  0.1667  0.1122
11779TIP3    H156752   2.324   5.689   0.202 -0.5082  0.3219  0.1769
11779TIP3    H256753   2.345   5.554   0.267  0.1226  0.2788 -0.1139
11780TIP3   OH256754   4.350   2.022  16.738 -0.3336  0.3339 -0.2315
11780TIP3    H156755   4.367   2.036  16.831  2.4738 -1.5602 -0.3217
11780TIP3    H256756   4.427   2.058  16.693 -1.7268  1.4049 -1.8949
11781TIP3   OH256757   5.478   5.927   1.980 -0.7176 -0.3768  0.0980
11781TIP3    H156758   5.568   5.923   1.949 -0.6809 -1.6370  0.3367
11781TIP3    H256759   5.448   6.015   1.954  0.9874  0.5799  1.2120
11782TIP3   OH256760   1.123   2.242   2.350 -0.1729 -0.4091  0.3092
11782TIP3    H156761   1.060   2.313   2.353  1.1020  0.8211 -0.6938
11782TIP3    H256762   1.200   2.280   2.308  0.8306 -2.1714  0.4576
11783TIP3   OH256763   2.445   5.970   3.869  0.4896  0.7208 -0.2139
11783TIP3    H156764   2.356   5.953   3.838  1.3506 -1.0588 -1.9195
11783TIP3    H256765   2.445   5.939   3.960 -0.8507  1.6278  0.1209
11784TIP3   OH256766   5.615   2.948  13.077 -0.0747 -0.1676 -0.2048
11784TIP3    H156767   5.569   3.032  13.075  1.7233  1.0456  2.5312
11784TIP3    H256768   5.614   2.922  13.170  0.5705 -2.5246 -0.7847
11785TIP3   OH256769   2.723   4.300  13.631  0.4404 -0.3979 -0.2949
11785TIP3    H156770   2.818   4.309  13.626  0.3907  0.0510 -0.5029
11785TIP3    H256771   2.692   4.385  13.664  0.1219 -0.5840 -0.1052
11786TIP3   OH256772   5.616   5.273  11.323  0.2429  0.3882  0.3717
11786TIP3    H156773   5.565   5.204  11.280 -0.1865  0.9526 -0.0335
11786TIP3    H256774   5.571   5.354  11.300 -0.4311  0.6713  2.5176
11787TIP3   OH256775   4.871   3.243   2.494  0.1768 -0.1667  0.1961
11787TIP3    H156776   4.877   3.288   2.578  0.3090  0.8423 -0.3389
11787TIP3    H256777   4.841   3.310   2.433 -0.2481 -0.9689 -0.5035
11788TIP3   OH256778   2.072   3.249   0.176 -0.4284  0.1245  0.1141
11788TIP3    H156779   2.045   3.321   0.119 -2.0618  0.5324  1.3219
11788TIP3    H256780   2.050   3.279   0.264  0.0147 -1.3605  0.7560
11789TIP3   OH256781   2.113   2.999   0.637  0.3543  0.5103  0.7865
11789TIP3    H156782   2.206   3.021   0.635  0.3632  0.4336  0.0972
11789TIP3    H256783   2.101   2.953   0.720  1.1681 -0.5152  0.3585
11790TIP3   OH256784   3.832   5.339  13.262  0.3278 -0.2905  0.2946
11790TIP3    H156785   3.809   5.298  13.345  0.5278 -1.3237 -0.1487
11790TIP3    H256786   3.763   5.313  13.201  0.6834 -0.3369 -0.0998
11791TIP3   OH256787   1.330   5.173  15.439 -0.5324  0.0484 -0.4777
11791TIP3    H156788   1.238   5.149  15.442 -0.6172  0.4151 -0.1182
11791TIP3    H256789   1.367   5.117  15.370 -1.5287  1.5877 -2.3831
11792TIP3   OH256790   2.556   6.165  12.686  0.0103 -0.1414  0.3835
11792TIP3    H156791   2.466   6.146  12.714 -0.3054  0.3583 -0.2727
11792TIP3    H256792   2.566   6.120  12.602  0.2120  0.1891  0.2253
11793TIP3   OH256793   2.877   0.283  12.773  0.4718 -0.1865  0.0451
11793TIP3    H156794   2.842   0.337  12.844  0.0152  0.0401 -0.3496
11793TIP3    H256795   2.817   0.209  12.767  0.7184 -0.3956  0.1393
11794TIP3   OH256796   3.336   0.450   3.248 -0.5027 -0.2308 -0.3357
11794TIP3    H156797   3.244   0.464   3.273 -0.0792  0.7679  0.7771
11794TIP3    H256798   3.350   0.510   3.175 -0.8661 -0.7784 -0.8683
11795TIP3   OH256799   1.617   1.124   0.772  0.5821 -0.4185 -0.2787
11795TIP3    H156800   1.660   1.041   0.751 -1.0340 -1.6043  0.9111
11795TIP3    H256801   1.535   1.122   0.724 -0.7571 -0.8242  1.8917
11796TIP3   OH256802   5.064   0.041   5.845  0.2029  0.0186 -0.1475
11796TIP3    H156803   5.028   0.114   5.795 -1.0368 -0.3797  0.1257
11796TIP3    H256804   5.026  -0.037   5.804  1.2838 -0.4703 -0.2582
11797TIP3   OH256805   3.460   4.584   5.475 -0.0329  0.0830  0.2867
11797TIP3    H156806   3.379   4.633   5.465  0.7274  1.0085 -2.1985
11797TIP3    H256807   3.488   4.600   5.565 -1.3080  1.8266  0.4078
11798TIP3   OH256808   6.592   6.365  12.593 -0.3097  0.0931 -0.6087
11798TIP3    H156809   6.554   6.451  12.572  0.7065  0.1026 -2.6917
11798TIP3    H256810   6.537   6.303  12.545 -0.9228 -0.4275  0.7380
11799TIP3   OH256811   4.610   3.772  17.145  0.4517  0.1824  0.7562
11799TIP3    H156812   4.660   3.693  17.125  0.2267  0.2614 -0.1570
11799TIP3    H256813   4.524   3.757  17.105  0.9998  1.6583 -1.1794
11800TIP3   OH256814   0.773   1.722  15.197  0.2058  0.7328  0.3898
11800TIP3    H156815   0.807   1.727  15.108  2.3832 -1.2820  0.9858
11800TIP3    H256816   0.849   1.741  15.252  0.2227 -2.7014  1.8126
11801TIP3   OH256817   5.308   5.635  17.407 -0.1619  0.0768  0.7015
11801TIP3    H156818   5.216   5.607  17.407 -0.3805  0.4990  3.2975
11801TIP3    H256819   5.358   5.554  17.412 -0.4582 -0.1133  0.6163
11802TIP3   OH256820   3.392   2.379  11.233 -0.3511 -0.0458 -0.4455
11802TIP3    H156821   3.429   2.466  11.221 -1.7312  1.1221  2.6380
11802TIP3    H256822   3.436   2.345  11.311 -2.4287 -0.4859  0.6064
11803TIP3   OH256823   0.128   1.238  15.524  0.3028  0.9448 -0.2116
11803TIP3    H156824   0.051   1.201  15.567  1.2805 -0.0120  0.7876
11803TIP3    H256825   0.202   1.193  15.565  1.3155 -0.5892 -3.4265
11804TIP3   OH256826   0.389   3.578  12.035  0.3497  0.2444 -0.2278
11804TIP3    H156827   0.436   3.504  11.997  0.5663  0.3411 -0.1525
11804TIP3    H256828   0.349   3.623  11.960 -0.4074 -0.3717 -0.2045
11805TIP3   OH256829   6.637   6.347  16.513  0.3346 -0.3312 -0.2721
11805TIP3    H156830   6.671   6.426  16.472  0.2444  0.0862  0.4452
11805TIP3    H256831   6.602   6.376  16.597 -1.1360 -0.8670 -0.6736
11806TIP3   OH256832   2.557   2.635  16.699 -0.1831  0.5912  0.7587
11806TIP3    H156833   2.469   2.619  16.666  0.9590 -1.2090 -1.7197
11806TIP3    H256834   2.591   2.548  16.721  1.2033  1.1838  1.0609
11807TIP3   OH256835   3.650   0.914  16.546 -0.2002  0.0485  0.0467
11807TIP3    H156836   3.724   0.912  16.606  0.9849  0.0935 -1.3622
11807TIP3    H256837   3.687   0.891  16.461 -1.0601  3.4029 -1.4129
11808TIP3   OH256838   0.676   5.078  16.637  0.1268  0.0755 -0.2710
11808TIP3    H156839   0.699   5.046  16.724  2.0164 -0.5666 -0.9691
11808TIP3    H256840   0.592   5.124  16.650 -0.4247 -1.3311  1.5725
11809TIP3   OH256841   1.499   3.299   0.639  0.2531 -0.4705 -0.3671
11809TIP3    H156842   1.511   3.306   0.544  0.0434 -2.3142 -0.5599
11809TIP3    H256843   1.409   3.270   0.650  0.6258 -1.4244  0.3238
11810TIP3   OH256844   5.393   4.347   1.247  0.0113 -0.5630  0.4113
11810TIP3    H156845   5.352   4.289   1.311 -0.5877  0.2003  0.7416
11810TIP3    H256846   5.487   4.331   1.256 -0.1132 -1.0619  0.8880
11811TIP3   OH256847   6.277   4.004   1.875 -0.0044  0.1662 -0.3728
11811TIP3    H156848   6.351   3.945   1.859 -1.0287 -1.1452 -0.4077
11811TIP3    H256849   6.208   3.971   1.818 -0.7737  1.0897  0.0093
11812TIP3   OH256850   3.197   0.475   1.291  0.0065  0.4727 -0.2040
11812TIP3    H156851   3.218   0.385   1.267  0.6345  1.2539 -2.9541
11812TIP3    H256852   3.247   0.492   1.372  1.7843 -0.9119 -0.9548
11813TIP3   OH256853   5.130   4.817  14.833  0.2972  0.4521 -0.2638
11813TIP3    H156854   5.045   4.846  14.800  0.4532 -1.7088 -2.9455
11813TIP3    H256855   5.109   4.761  14.908 -0.6002  0.3438 -0.5843
11814TIP3   OH256856   2.293   0.366  10.700  0.2903  0.1683  0.0677
11814TIP3    H156857   2.228   0.301  10.673  0.5608  0.7530 -2.2219
11814TIP3    H256858   2.305   0.350  10.794 -0.2111 -2.5869 -0.2314
11815TIP3   OH256859   4.064   0.473   1.820  0.6016  0.4710 -0.1822
11815TIP3    H156860   4.044   0.438   1.733 -1.2991 -0.0929  0.4335
11815TIP3    H256861   4.022   0.559   1.822  0.5070  0.4202  0.2154
11816TIP3   OH256862   5.819   5.631  17.352 -0.0407  0.1626 -0.0796
11816TIP3    H156863   5.736   5.673  17.375 -1.9327 -0.8662 -4.1547
11816TIP3    H256864   5.865   5.696  17.300 -0.1130 -0.6095 -1.1311
11817TIP3   OH256865   0.252   0.942   0.892 -0.1461  0.7137  0.1624
11817TIP3    H156866   0.220   0.993   0.966  1.2306  0.7203  0.7927
11817TIP3    H256867   0.255   1.004   0.819  2.0776  1.7876  1.0569
11818TIP3   OH256868   5.231   2.617  15.190 -0.1080 -0.4701 -0.2572
11818TIP3    H156869   5.231   2.650  15.100  1.3548 -2.0143 -0.8610
11818TIP3    H256870   5.211   2.694  15.243  0.2984  0.7523 -1.8040
11819TIP3   OH256871   5.921   0.895   0.980  0.0948  0.0299  0.0987
11819TIP3    H156872   5.927   0.816   1.034 -2.7597  0.3182  0.9629
11819TIP3    H256873   5.949   0.966   1.039 -0.6527  0.0517  0.4368
11820TIP3   OH256874   6.400   6.695  14.048  0.2542 -0.1528  0.4299
11820TIP3    H156875   6.390   6.790  14.057 -0.8945 -0.0896 -1.1032
11820TIP3    H256876   6.328   6.659  14.099  0.8793 -0.2343  1.2762
11821TIP3   OH256877   3.033   5.334  14.036 -0.5450  0.6521  0.7487
11821TIP3    H156878   3.000   5.288  14.113  1.3440  0.1118  1.2804
11821TIP3    H256879   2.956   5.343  13.979 -1.5114 -0.9567  1.7112
11822TIP3   OH256880   4.783   6.203  13.934  0.1314  0.3794 -0.7572
11822TIP3    H156881   4.794   6.288  13.891 -1.2293  1.4208  0.8397
11822TIP3    H256882   4.791   6.222  14.027 -1.6552 -0.9745 -0.2729
11823TIP3   OH256883   6.180   6.392   6.757 -0.3287  0.6598 -0.3868
11823TIP3    H156884   6.136   6.335   6.820 -0.2444  1.3471  0.2938
11823TIP3    H256885   6.204   6.470   6.806  1.2901  0.4908 -0.8446
11824TIP3   OH256886   3.220   5.441  13.795  0.4628 -0.3107 -0.3213
11824TIP3    H156887   3.234   5.472  13.885 -0.1283 -2.1986  0.4657
11824TIP3    H256888   3.125   5.438  13.784  0.5273  0.3582 -1.2039
11825TIP3   OH256889   2.528   1.524  11.523  0.1447  0.4059  0.1974
11825TIP3    H156890   2.577   1.457  11.475  1.6770  0.0159  2.1695
11825TIP3    H256891   2.558   1.607  11.485  0.6008  0.0787 -0.1666
11826TIP3   OH256892   6.238   1.603   4.244 -0.1162 -0.1929 -0.8103
11826TIP3    H156893   6.226   1.685   4.196  1.3759 -0.4918 -1.7887
11826TIP3    H256894   6.267   1.629   4.331 -0.0456  0.3251 -0.9895
11827TIP3   OH256895   4.879   5.572  11.954  0.1164  0.4539  0.2909
11827TIP3    H156896   4.848   5.580  12.044  0.7432  2.4970  0.3786
11827TIP3    H256897   4.967   5.610  11.955 -0.4746  2.0308 -1.4651
11828TIP3   OH256898   5.593   2.452   0.406 -0.3858 -0.0932 -0.6116
11828TIP3    H156899   5.598   2.507   0.484  0.7355  0.0014 -0.7334
11828TIP3    H256900   5.533   2.381   0.430 -1.3162  0.8006 -0.2302
11829TIP3   OH256901   4.440   2.990   4.345  0.1779 -0.0577 -0.0673
11829TIP3    H156902   4.376   2.996   4.274  0.3087 -0.3915 -0.2181
11829TIP3    H256903   4.482   2.905   4.332  0.2646 -0.0835  0.3588
11830TIP3   OH256904   3.475   3.573  14.105  0.0683 -0.6358 -0.0644
11830TIP3    H156905   3.419   3.551  14.179 -1.0662  4.1237  0.8272
11830TIP3    H256906   3.437   3.524  14.031 -1.9773 -1.5991  1.5137
11831TIP3   OH256907   3.005   0.979  16.901 -0.1596  0.5538  0.5888
11831TIP3    H156908   2.942   1.048  16.883 -0.9075 -0.9786 -4.2112
11831TIP3    H256909   3.090   1.021  16.886 -0.4069  1.1587  0.8408
11832TIP3   OH256910   5.441   6.285   4.169 -0.4252 -0.8760  0.1063
11832TIP3    H156911   5.495   6.213   4.200 -1.2613 -1.0794  1.1598
11832TIP3    H256912   5.352   6.249   4.167 -1.0867  0.4784  1.9754
11833TIP3   OH256913   2.763   0.023   1.545  0.2488  0.5647 -0.7436
11833TIP3    H156914   2.670   0.043   1.547 -0.4639 -2.1901  1.4379
11833TIP3    H256915   2.779  -0.010   1.457 -0.6955  1.5152 -1.2938
11834TIP3   OH256916   4.831   3.953  12.014  0.5501  0.6465 -0.0675
11834TIP3    H156917   4.785   3.884  12.061 -0.6214  0.5604 -1.2809
11834TIP3    H256918   4.879   3.907  11.945  0.7435  0.9326 -0.1250
11835TIP3   OH256919   5.092   0.727   0.724  0.6218 -0.3042  0.0817
11835TIP3    H156920   5.155   0.722   0.653  1.9919 -1.0695  1.3032
11835TIP3    H256921   5.145   0.742   0.803 -0.5374 -2.3728  1.3594
11836TIP3   OH256922   4.399   0.225   5.415  0.5598 -0.3795 -0.2674
11836TIP3    H156923   4.366   0.314   5.400 -0.9349 -1.0058 -0.8974
11836TIP3    H256924   4.476   0.237   5.471  1.2692  1.4181 -1.5120
11837TIP3   OH256925   2.510   2.845   1.965  0.0888  0.4680  0.6559
11837TIP3    H156926   2.463   2.785   2.024 -0.5116  1.6327  1.4214
11837TIP3    H256927   2.456   2.924   1.965  0.7708  0.9496 -0.4585
11838TIP3   OH256928   5.427   3.783  11.613  0.2296 -0.3826 -0.6890
11838TIP3    H156929   5.441   3.864  11.663 -2.4289  1.1450 -2.1893
11838TIP3    H256930   5.457   3.805  11.524 -1.4026 -0.6873 -1.3344
11839TIP3   OH256931   2.114   0.929   0.765  0.4205 -0.5923  0.2343
11839TIP3    H156932   2.187   0.913   0.706  1.0403 -0.2874  0.9052
11839TIP3    H256933   2.082   0.842   0.787  0.3191 -0.7144 -0.3784
11840TIP3   OH256934   1.003   2.066  12.854  0.4589 -0.3223 -0.2829
11840TIP3    H156935   1.031   2.003  12.920  2.6832 -0.5828 -1.3909
11840TIP3    H256936   0.954   2.132  12.903 -1.2882 -2.4593  1.0250
11841TIP3   OH256937   2.876   4.508   2.865  0.1746 -0.3731 -0.5403
11841TIP3    H156938   2.957   4.536   2.909 -1.3975  0.7748  1.8447
11841TIP3    H256939   2.825   4.466   2.935 -2.7428  2.0779 -1.0144
11842TIP3   OH256940   4.638   5.364   0.396 -0.2697  0.2399  0.3956
11842TIP3    H156941   4.587   5.432   0.354  0.1832  0.6930  0.5688
11842TIP3    H256942   4.729   5.391   0.384 -0.1305  0.5287  1.8688
11843TIP3   OH256943   3.914   5.431   1.462 -0.4649 -0.5705  0.1561
11843TIP3    H156944   3.920   5.503   1.400 -0.1397 -0.7285  0.0032
11843TIP3    H256945   4.000   5.390   1.460 -0.7630 -1.1983 -0.0432
11844TIP3   OH256946   1.349   5.702   1.832 -0.6397  0.1291  0.3593
11844TIP3    H156947   1.298   5.783   1.844  0.8191  1.2067 -0.4371
11844TIP3    H256948   1.285   5.632   1.844 -1.9476  1.3886  1.1046
11845TIP3   OH256949   6.673   6.105  12.847 -0.7681 -0.1526  0.1702
11845TIP3    H156950   6.588   6.148  12.837  0.3971  2.1504 -0.5096
11845TIP3    H256951   6.677   6.081  12.939 -1.2146  1.8730  0.7538
11846TIP3   OH256952   0.520   0.222   0.628 -0.6944  0.9586 -0.2572
11846TIP3    H156953   0.586   0.154   0.621 -0.2651  1.4124 -0.6531
11846TIP3    H256954   0.536   0.279   0.553 -0.5431  1.9427  0.5105
11847TIP3   OH256955   1.104   5.253  16.523  0.5009 -0.2811 -0.2005
11847TIP3    H156956   1.032   5.317  16.518  1.2406  0.6308  0.3701
11847TIP3    H256957   1.063   5.174  16.557  0.0349  0.7456  1.8179
11848TIP3   OH256958   3.345   0.030   2.227  0.0718 -0.3737 -0.1898
11848TIP3    H156959   3.315   0.114   2.261  0.7335 -0.2865  0.2025
11848TIP3    H256960   3.396  -0.007   2.299 -0.1346 -1.0674 -0.3956
11849TIP3   OH256961   4.587   0.625   0.478  0.5410  0.3647 -0.3260
11849TIP3    H156962   4.565   0.718   0.468 -0.4856  0.1042 -0.5228
11849TIP3    H256963   4.504   0.579   0.468  1.0794 -0.5969 -0.4653
11850TIP3   OH256964   6.027   0.753  13.739 -0.2366 -0.4345  0.7196
11850TIP3    H156965   6.071   0.725  13.659  1.1336 -2.9214  2.2328
11850TIP3    H256966   6.094   0.799  13.789 -0.0737 -1.7935  1.8176
11851TIP3   OH256967   0.160   1.391   5.623  0.4848 -0.5387  0.1184
11851TIP3    H156968   0.124   1.370   5.536  1.5952 -1.0043 -0.2543
11851TIP3    H256969   0.255   1.382   5.612  0.7761  1.1760  0.9190
11852TIP3   OH256970   5.245   3.877  12.821 -0.1025 -0.1939  0.6073
11852TIP3    H156971   5.266   3.957  12.870 -0.7855 -0.8926  2.1117
11852TIP3    H256972   5.284   3.806  12.872 -0.8903 -0.9604  0.1722
11853TIP3   OH256973   4.386   6.532   4.778  0.2319 -0.4327 -0.3788
11853TIP3    H156974   4.385   6.495   4.867 -1.4398 -0.0983 -0.2328
11853TIP3    H256975   4.366   6.624   4.790  4.7200  0.8193 -0.7106
11854TIP3   OH256976   2.797   2.424   1.729 -0.2396  0.0058 -0.1896
11854TIP3    H156977   2.869   2.471   1.687 -0.7653 -0.8260 -2.1414
11854TIP3    H256978   2.753   2.378   1.657 -3.0461  0.8746  0.8229
11855TIP3   OH256979   0.110   4.830   5.158  0.0330  0.6281  0.5573
11855TIP3    H156980   0.048   4.857   5.090  1.2249  0.2131 -0.7402
11855TIP3    H256981   0.191   4.811   5.110  0.4744 -1.1302  1.9064
11856TIP3   OH256982   3.735   6.566   5.309  0.2599 -0.5372  0.2307
11856TIP3    H156983   3.645   6.596   5.304  0.8701  1.3838  0.0369
11856TIP3    H256984   3.753   6.560   5.403 -0.0009 -0.7289  0.2696
11857TIP3   OH256985   3.907   1.806   3.578 -0.2388  0.4384 -0.9629
11857TIP3    H156986   3.964   1.850   3.642 -0.0590  1.9101 -2.0617
11857TIP3    H256987   3.846   1.755   3.631  2.1099 -1.2976  0.2791
11858TIP3   OH256988   6.471   5.229   1.354 -0.5574 -0.5325  0.0939
11858TIP3    H156989   6.492   5.321   1.341 -0.1464 -0.6183  0.1410
11858TIP3    H256990   6.469   5.192   1.266 -1.1413 -0.3963  0.0395
11859TIP3   OH256991   1.785   5.797   3.725 -0.4253  0.2814  0.3839
11859TIP3    H156992   1.832   5.716   3.743  0.0455  0.2093 -1.0045
11859TIP3    H256993   1.710   5.769   3.671 -0.0149  0.7892 -0.4770
11860TIP3   OH256994   5.666   4.481  14.406  0.4290 -0.0750 -0.1910
11860TIP3    H156995   5.721   4.541  14.355  0.6524 -0.6584 -0.6421
11860TIP3    H256996   5.727   4.437  14.465  0.5013 -0.9326 -0.8931
11861TIP3   OH256997   5.923   6.155  17.173  0.6028 -0.3639 -0.5822
11861TIP3    H156998   5.862   6.164  17.099  0.7246 -1.8581 -0.8884
11861TIP3    H256999   6.006   6.131  17.132  1.3062  1.1291 -0.1223
11862TIP3   OH257000   3.224   0.206   1.310 -0.1808 -0.0266 -0.1847
11862TIP3    H157001   3.302   0.221   1.364 -1.0521  1.1552  0.8262
11862TIP3    H257002   3.169   0.148   1.364 -1.7421  2.4022  0.9887
11863TIP3   OH257003   6.274   5.333  15.793 -0.1831 -0.2720 -0.3829
11863TIP3    H157004   6.271   5.428  15.781 -0.1969  0.0684  1.8615
11863TIP3    H257005   6.248   5.297  15.708  0.1833  1.7080 -1.3929
11864TIP3   OH257006   5.855   4.222  14.480  0.6179 -0.7984  0.0729
11864TIP3    H157007   5.872   4.127  14.474  0.4367 -0.7708 -1.2107
11864TIP3    H257008   5.935   4.258  14.519 -0.1252 -1.6892  2.6531
11865TIP3   OH257009   1.229   5.738  12.437 -0.3274  0.4234  0.0181
11865TIP3    H157010   1.227   5.832  12.457 -0.7134  0.9002 -2.0751
11865TIP3    H257011   1.298   5.728  12.372  0.8632 -1.0541  1.4198
11866TIP3   OH257012   1.432   4.839   6.005  0.3069 -0.4079  0.1053
11866TIP3    H157013   1.402   4.930   6.008  2.2490  0.2579  2.3399
11866TIP3    H257014   1.526   4.845   5.993  0.4179 -2.1439 -0.0923
11867TIP3   OH257015   5.841   2.475  15.772 -0.1139  0.8836  0.0308
11867TIP3    H157016   5.844   2.470  15.868 -1.7450 -0.2318  0.0405
11867TIP3    H257017   5.749   2.487  15.751  0.1232  0.2983 -1.4465
11868TIP3   OH257018   2.956   6.519  11.378  0.3722 -0.2253  0.1705
11868TIP3    H157019   3.050   6.508  11.369  0.5772  1.3493  0.0862
11868TIP3    H257020   2.944   6.543  11.470 -0.1459 -2.0432  0.6079
11869TIP3   OH257021   4.966   1.765   2.237  0.0364  0.1871  0.0463
11869TIP3    H157022   5.037   1.703   2.253 -0.1409 -0.3754 -1.1837
11869TIP3    H257023   4.990   1.843   2.286  0.4380 -0.7265  1.3632
11870TIP3   OH257024   3.276   0.173  16.161 -0.9246 -0.7555 -0.3576
11870TIP3    H157025   3.324   0.140  16.237 -1.4897 -1.4813 -0.3141
11870TIP3    H257026   3.333   0.241  16.125  0.4671 -2.0517 -0.6954
11871TIP3   OH257027   5.004   3.988   3.795  0.7650  0.6749  0.4199
11871TIP3    H157028   4.929   4.041   3.822  0.1045 -1.3323  2.9281
11871TIP3    H257029   4.978   3.951   3.710 -0.5793  1.0089  0.6610
11872TIP3   OH257030   1.186   5.623   4.595 -0.1169 -0.4197  0.8718
11872TIP3    H157031   1.252   5.590   4.656  0.4942  0.7026  0.8431
11872TIP3    H257032   1.102   5.598   4.634  0.3025 -1.6574  1.0242
11873TIP3   OH257033   1.292   0.661   4.259  0.0716  0.0440  0.5667
11873TIP3    H157034   1.236   0.737   4.274  0.8868  0.5100  1.4186
11873TIP3    H257035   1.295   0.617   4.344 -0.3302 -0.9106  0.0999
11874TIP3   OH257036   4.179   5.225  13.627  0.0848  0.0853  0.0527
11874TIP3    H157037   4.246   5.165  13.592 -1.9047 -1.2846 -1.6272
11874TIP3    H257038   4.132   5.172  13.692 -0.8697  0.2168 -0.5134
11875TIP3   OH257039   3.836   0.538  11.714  0.4402  0.4811 -0.2277
11875TIP3    H157040   3.869   0.623  11.686  0.4493  0.1705 -1.1907
11875TIP3    H257041   3.882   0.475  11.659 -0.2192 -0.0914 -0.1416
11876TIP3   OH257042   4.841   3.531   1.568 -0.0038 -0.1263 -0.1857
11876TIP3    H157043   4.792   3.558   1.646  3.4216  0.5801  1.9682
11876TIP3    H257044   4.775   3.520   1.500 -3.0083  1.0964  2.2994
11877TIP3   OH257045   2.094   1.887   3.031 -0.2922 -0.0258  0.0868
11877TIP3    H157046   2.093   1.792   3.041 -0.7172 -0.0096  0.1862
11877TIP3    H257047   2.180   1.906   2.991 -0.4590 -0.5067 -0.5063
11878TIP3   OH257048   2.146   3.241   5.432 -0.2251  0.3761  0.1913
11878TIP3    H157049   2.237   3.225   5.456 -1.1069 -3.0716  1.9025
11878TIP3    H257050   2.101   3.253   5.516 -1.3949  2.1993 -0.6275
11879TIP3   OH257051   0.569   2.588  12.886 -0.0470  0.3371  0.3380
11879TIP3    H157052   0.543   2.608  12.976  1.0747  1.7323  0.3747
11879TIP3    H257053   0.578   2.493  12.886 -0.8315  0.2263  1.4734
11880TIP3   OH257054   0.828   6.390   4.729 -0.4972  0.4027  1.0646
11880TIP3    H157055   0.794   6.475   4.701 -0.0361  0.2125 -0.1150
11880TIP3    H257056   0.918   6.407   4.755 -0.7303  0.4611  1.8571
11881TIP3   OH257057   4.510   6.569   2.970  0.1180  0.3165  0.3134
11881TIP3    H157058   4.486   6.651   2.927  0.3310  0.5812  0.6978
11881TIP3    H257059   4.590   6.589   3.018 -0.5789  0.2381  1.5235
11882TIP3   OH257060   5.552   2.458  13.979 -0.5719 -0.3961  0.9133
11882TIP3    H157061   5.470   2.482  13.936 -1.2155 -1.0429  1.7558
11882TIP3    H257062   5.595   2.541  13.995 -0.9729 -0.0583  0.2993
11883TIP3   OH257063   5.193   3.928   0.659  0.4930  0.0026 -0.3632
11883TIP3    H157064   5.286   3.927   0.684  0.2791  0.7877  0.4995
11883TIP3    H257065   5.154   3.996   0.713 -1.0346 -1.7567  0.8777
11884TIP3   OH257066   3.202   0.306   5.068  0.2622  0.2381  0.5692
11884TIP3    H157067   3.160   0.319   5.153 -0.6191  0.7533  0.0735
11884TIP3    H257068   3.264   0.379   5.060  2.3142 -1.2547  1.8827
11885TIP3   OH257069   4.792   0.517   3.508  0.2260 -1.1219  0.0519
11885TIP3    H157070   4.721   0.581   3.504  1.8384  0.6909 -1.2676
11885TIP3    H257071   4.829   0.528   3.595 -0.2939 -1.1821  0.2881
11886TIP3   OH257072   3.617   4.533  13.120  0.3220  0.1991  0.2893
11886TIP3    H157073   3.644   4.493  13.037  2.4706 -0.9352  1.4508
11886TIP3    H257074   3.695   4.577  13.152 -0.9375  2.0735  0.9611
11887TIP3   OH257075   5.726   5.976   0.723 -0.3126  0.1836  0.1598
11887TIP3    H157076   5.683   5.893   0.745  2.3096 -1.5461 -0.7491
11887TIP3    H257077   5.757   6.009   0.807  0.5346 -0.9377  0.3076
11888TIP3   OH257078   4.251   3.938  16.339  0.2795  0.1646 -0.1521
11888TIP3    H157079   4.326   3.914  16.284  0.9262 -0.7381  1.0741
11888TIP3    H257080   4.279   4.017  16.385 -0.1276  0.7155 -0.8284
11889TIP3   OH257081   1.194   5.315   5.668  0.2668  0.1122  0.0976
11889TIP3    H157082   1.186   5.361   5.584  2.1522 -1.3663 -0.9757
11889TIP3    H257083   1.148   5.232   5.654 -0.9498  0.5789  1.1657
11890TIP3   OH257084   1.626   6.473   0.277  0.1814 -0.8431  0.1465
11890TIP3    H157085   1.687   6.444   0.346  1.5005  1.3660  0.0066
11890TIP3    H257086   1.660   6.558   0.250 -1.2826 -0.9064 -2.0982
11891TIP3   OH257087   1.234   1.145   5.007 -0.3987  0.0467 -0.4923
11891TIP3    H157088   1.302   1.082   4.982  1.8814  1.2056  2.3211
11891TIP3    H257089   1.273   1.230   4.989 -1.0825  0.7418  1.1693
11892TIP3   OH257090   5.995   1.625   1.902 -0.3461  0.7387 -0.5046
11892TIP3    H157091   6.087   1.645   1.882 -0.2486 -0.6892 -1.6473
11892TIP3    H257092   5.993   1.616   1.998  1.2770 -1.5777 -0.6027
11893TIP3   OH257093   4.290   3.754  14.368 -0.1058  0.1268  0.2203
11893TIP3    H157094   4.268   3.697  14.294  3.5101 -0.9962 -0.1839
11893TIP3    H257095   4.338   3.827  14.329  1.6984 -0.3870  1.3618
11894TIP3   OH257096   5.295   4.850   0.541  0.1085  0.0526 -0.1680
11894TIP3    H157097   5.214   4.894   0.565  1.0903  0.7121  2.2211
11894TIP3    H257098   5.364   4.902   0.583  1.6207 -1.6634 -0.3912
11895TIP3   OH257099   1.367   4.286  11.226 -0.9979 -0.1344 -0.0757
11895TIP3    H157100   1.386   4.366  11.275  0.5427 -1.8064  2.2688
11895TIP3    H257101   1.437   4.279  11.161 -0.4980 -0.1335  0.4602
11896TIP3   OH257102   1.060   2.383   3.710  0.0383  0.0267 -0.4068
11896TIP3    H157103   0.990   2.337   3.664 -0.5116  1.6603 -1.2729
11896TIP3    H257104   1.061   2.344   3.798 -0.5329 -1.4472 -1.0154
11897TIP3   OH257105   5.100   5.792   3.419 -0.1747 -0.8309 -0.3934
11897TIP3    H157106   5.097   5.835   3.333 -0.1662  0.8237  0.3927
11897TIP3    H257107   5.191   5.800   3.447 -0.3866 -0.4309  0.2011
11898TIP3   OH257108   4.945   2.494   5.736  0.0020  0.0025  0.3856
11898TIP3    H157109   4.871   2.435   5.722  0.5710 -0.8467  0.8318
11898TIP3    H257110   4.911   2.581   5.718 -1.1823 -0.3456  0.8638
11899TIP3   OH257111   3.174   2.396   1.865 -0.0675  0.4136  0.0804
11899TIP3    H157112   3.267   2.396   1.889  0.4433  3.3961 -1.3466
11899TIP3    H257113   3.175   2.408   1.770 -1.9622 -1.2806 -0.2080
11900TIP3   OH257114   2.389   3.010   0.591 -0.0289 -0.2422 -0.2521
11900TIP3    H157115   2.443   3.089   0.593 -0.4191  0.0399  2.1319
11900TIP3    H257116   2.410   2.968   0.507  0.2669  2.3041 -1.5262
11901TIP3   OH257117   0.593   2.372   3.508 -0.2332  0.4359  0.5690
11901TIP3    H157118   0.655   2.426   3.458 -2.2953  1.9782 -0.4495
11901TIP3    H257119   0.577   2.421   3.588 -1.8466  1.2557 -0.2039
11902TIP3   OH257120   2.959   2.725  11.277 -0.3939 -0.6858 -0.0854
11902TIP3    H157121   3.042   2.682  11.299  1.2854  1.5188 -1.6084
11902TIP3    H257122   2.967   2.746  11.184 -2.8166 -0.6434 -0.3398
11903TIP3   OH257123   2.817   2.141  15.872  0.2823  0.3241  0.0986
11903TIP3    H157124   2.881   2.132  15.942 -0.5563  1.2949  1.0172
11903TIP3    H257125   2.733   2.125  15.914 -0.0469 -2.9364 -1.4593
11904TIP3   OH257126   4.311   6.721  15.693 -1.3784  0.5038  0.3788
11904TIP3    H157127   4.232   6.696  15.645 -0.2929 -0.5662 -0.9421
11904TIP3    H257128   4.373   6.747  15.625 -1.1788  3.2501  1.4876
11905TIP3   OH257129   2.787   5.299  13.888 -0.0500  0.3190  0.1558
11905TIP3    H157130   2.693   5.309  13.903 -0.6402 -0.2131 -2.5756
11905TIP3    H257131   2.796   5.210  13.854  1.3100  0.6803 -0.4846
11906TIP3   OH257132   6.431   5.926   5.511 -0.0951 -0.1371  0.1545
11906TIP3    H157133   6.520   5.934   5.546  0.4035 -2.7198 -0.2930
11906TIP3    H257134   6.379   5.898   5.586 -0.6260  1.5524  0.4596
11907TIP3   OH257135   6.595   5.850  14.344 -0.7620 -0.3492 -0.2137
11907TIP3    H157136   6.688   5.835  14.323 -0.6471 -0.9225  0.6575
11907TIP3    H257137   6.574   5.932  14.299  0.8855  1.2138  1.6409
11908TIP3   OH257138   5.826   5.543  13.556  0.2609 -0.2991  0.0350
11908TIP3    H157139   5.794   5.498  13.635  0.0228 -1.0592 -0.4835
11908TIP3    H257140   5.746   5.568  13.510  0.4033 -0.2586 -0.1878
11909TIP3   OH257141   3.002   4.978  17.189 -0.1158 -0.3988 -0.0753
11909TIP3    H157142   2.908   4.961  17.185 -0.1030 -1.0547  1.6908
11909TIP3    H257143   3.017   5.048  17.125 -2.1964  1.4785  1.3722
11910TIP3   OH257144   5.555   3.449   6.005  0.2603  0.1510  0.0446
11910TIP3    H157145   5.568   3.469   6.097 -1.0270 -0.7266  0.4429
11910TIP3    H257146   5.642   3.427   5.973  0.6313 -0.1539  1.2154
11911TIP3   OH257147   0.571   6.122   3.257 -0.0357  0.0083  0.3581
11911TIP3    H157148   0.639   6.187   3.240  0.0177  0.2092  1.2775
11911TIP3    H257149   0.519   6.160   3.328 -1.9979  0.5097 -1.2652
11912TIP3   OH257150   3.907   2.205  11.651 -0.6995 -0.1792  0.0909
11912TIP3    H157151   3.866   2.136  11.599  0.6437  0.5232 -2.0243
11912TIP3    H257152   3.950   2.261  11.587 -0.4099  1.7521  1.8609
11913TIP3   OH257153   4.867   4.678  15.866  0.0671  0.4520  0.4737
11913TIP3    H157154   4.927   4.608  15.841 -1.1621 -0.3901 -0.2380
11913TIP3    H257155   4.911   4.724  15.937  1.2491 -0.5517  0.4144
11914TIP3   OH257156   5.921   0.271  13.469  0.7821 -0.1349 -0.1113
11914TIP3    H157157   5.909   0.186  13.513  2.8714  0.1077  1.0893
11914TIP3    H257158   5.902   0.335  13.537  0.0208  0.3765 -0.7869
11915TIP3   OH257159   4.143   0.986   0.785 -0.3104  0.4325 -0.2839
11915TIP3    H157160   4.171   1.054   0.847  2.2691 -2.2147  1.7304
11915TIP3    H257161   4.201   0.997   0.709  1.2165 -0.3787  0.7069
11916TIP3   OH257162   2.618   4.730   2.812 -0.5614 -0.2771 -0.0131
11916TIP3    H157163   2.643   4.778   2.890  0.4792 -1.4248  0.3962
11916TIP3    H257164   2.523   4.741   2.805 -0.2153  3.1520 -0.8701
11917TIP3   OH257165   1.983   5.628  13.405  0.4068 -0.5060 -0.2513
11917TIP3    H157166   2.063   5.676  13.385 -0.1082  1.0659  1.2045
11917TIP3    H257167   1.939   5.616  13.321  0.0932  2.4903 -0.6005
11918TIP3   OH257168   3.140   3.591   3.414 -0.1736 -0.6654 -0.2477
11918TIP3    H157169   3.063   3.582   3.470 -0.0283  1.4173  0.3809
11918TIP3    H257170   3.108   3.571   3.326 -0.7194 -2.6439  0.3492
11919TIP3   OH257171   5.921   1.646  16.229 -0.0325 -0.1876 -0.0318
11919TIP3    H157172   5.939   1.730  16.273 -2.6083  0.1709  0.5232
11919TIP3    H257173   5.826   1.638  16.232 -0.0099 -2.1214 -2.0334
11920TIP3   OH257174   5.397   2.637   3.489  0.3564 -0.2308  0.4442
11920TIP3    H157175   5.310   2.675   3.482  0.3748 -0.5002 -1.7259
11920TIP3    H257176   5.450   2.685   3.425  1.8348 -0.0752  1.7041
11921TIP3   OH257177   4.109   4.832   2.201 -0.0467  0.2150  0.1993
11921TIP3    H157178   4.087   4.792   2.116 -0.2791  1.3633 -0.3047
11921TIP3    H257179   4.086   4.924   2.190  0.9736  0.6017  1.1414
11922TIP3   OH257180   2.553   5.370  11.835 -0.8892  0.6521 -0.3814
11922TIP3    H157181   2.634   5.382  11.884 -0.6593  1.7475 -1.0059
11922TIP3    H257182   2.506   5.301  11.883  0.0738  0.5150  0.3976
11923TIP3   OH257183   0.198   2.369  11.787  0.6838 -0.1559  0.0665
11923TIP3    H157184   0.189   2.321  11.705  1.1481 -1.3679  0.6904
11923TIP3    H257185   0.196   2.461  11.762  0.4244 -0.4995 -1.2508
11924TIP3   OH257186   5.602   4.454  12.001  0.1907  0.5000 -0.3566
11924TIP3    H157187   5.693   4.428  12.016 -0.2383 -1.3808 -0.6994
11924TIP3    H257188   5.551   4.384  12.042 -1.0673  0.4812 -1.8705
11925TIP3   OH257189   5.596   3.766   3.678  0.1149 -0.2460  0.0721
11925TIP3    H157190   5.614   3.699   3.612 -1.0885 -0.7722  0.2303
11925TIP3    H257191   5.681   3.804   3.699  0.5101  0.0242 -1.8581
11926TIP3   OH257192   2.966   4.211   0.845 -0.6879 -0.1690  0.1273
11926TIP3    H157193   2.947   4.181   0.756 -0.5816 -0.7825  0.3074
11926TIP3    H257194   2.886   4.192   0.894 -0.4798 -0.5200  0.3312
11927TIP3   OH257195   6.146   3.828  11.268 -0.2327 -0.5349  0.0965
11927TIP3    H157196   6.186   3.914  11.253  0.2638 -0.9290 -0.9081
11927TIP3    H257197   6.189   3.770  11.206 -1.4504 -1.2603 -0.1008
11928TIP3   OH257198   1.442   4.857   6.802 -0.1957 -0.0494  0.1630
11928TIP3    H157199   1.371   4.892   6.856 -0.6095  0.1049 -0.4682
11928TIP3    H257200   1.473   4.780   6.850 -0.2408  0.3524  0.8453
11929TIP3   OH257201   6.171   4.653  12.612 -0.3710  0.1287  0.1309
11929TIP3    H157202   6.110   4.656  12.539  1.5184 -0.6938 -1.5684
11929TIP3    H257203   6.177   4.744  12.643 -0.9099  0.5610 -1.0061
11930TIP3   OH257204   0.334   1.960   3.329  0.1537  0.9303 -0.0186
11930TIP3    H157205   0.341   1.920   3.243 -0.1869 -0.9631  0.7665
11930TIP3    H257206   0.338   2.054   3.313  0.0021  0.6290 -2.0860
11931TIP3   OH257207   5.865   2.290   4.624 -0.4859 -0.0162 -0.2956
11931TIP3    H157208   5.887   2.337   4.543 -3.3702  1.3904 -0.3981
11931TIP3    H257209   5.899   2.346   4.694  0.4207 -0.3168 -0.4843
11932TIP3   OH257210   1.050   5.195  13.494 -0.1117 -0.0400  0.0765
11932TIP3    H157211   0.992   5.207  13.570 -1.0360 -1.2414 -0.4044
11932TIP3    H257212   1.082   5.105  13.504  1.1121  0.3642 -0.0674
11933TIP3   OH257213   0.912   1.859  17.410  0.5170 -0.3607 -0.2874
11933TIP3    H157214   0.959   1.870  17.493 -1.2323 -2.4670  1.1142
11933TIP3    H257215   0.823   1.886  17.430  0.0752 -0.8526 -1.5180
11934TIP3   OH257216   5.016   1.914   1.676 -0.2169  0.1558  0.2126
11934TIP3    H157217   5.090   1.877   1.724 -0.4846  0.4987  0.9031
11934TIP3    H257218   5.042   1.909   1.584  0.7916  0.5690  0.4642
11935TIP3   OH257219   2.942   5.525   3.965 -0.1541  0.2630 -0.6641
11935TIP3    H157220   2.895   5.444   3.986  0.1367  0.1632 -0.3816
11935TIP3    H257221   2.922   5.542   3.873 -0.5373  0.0853 -0.6146
11936TIP3   OH257222   2.212   2.061   3.480  0.1211 -0.0411 -0.3356
11936TIP3    H157223   2.131   2.012   3.476 -1.0001  1.6990 -0.0692
11936TIP3    H257224   2.187   2.147   3.514  1.9995  0.6903 -0.6382
11937TIP3   OH257225   0.761   0.811   0.795 -0.1601 -0.3009 -0.1050
11937TIP3    H157226   0.728   0.736   0.746  0.0193 -1.9413  2.1279
11937TIP3    H257227   0.849   0.785   0.823 -0.1489  0.6709  0.8541
11938TIP3   OH257228   2.225   6.274   3.970 -0.4125 -0.1047  0.4831
11938TIP3    H157229   2.162   6.323   3.917 -0.8091 -0.4551  0.6285
11938TIP3    H257230   2.212   6.183   3.945  0.4930 -0.1259  0.0343
11939TIP3   OH257231   1.095   6.374  16.858 -0.1677 -0.0977  0.4523
11939TIP3    H157232   1.116   6.284  16.882 -2.1649 -1.0888 -1.1723
11939TIP3    H257233   1.061   6.414  16.939 -1.2837 -1.5083  0.7206
11940TIP3   OH257234   2.540   5.820   4.111 -0.0785  0.4293  0.5689
11940TIP3    H157235   2.475   5.809   4.180 -0.8868 -0.6261 -0.3337
11940TIP3    H257236   2.555   5.732   4.077  2.1040  0.5699  0.9732
11941TIP3   OH257237   3.963   4.107   4.415  0.6680  0.1688 -1.1956
11941TIP3    H157238   3.895   4.079   4.476  1.9165 -2.0454 -0.6833
11941TIP3    H257239   3.923   4.097   4.329  0.2460 -0.9567 -0.8963
11942TIP3   OH257240   5.320   3.579  12.757 -0.6610  0.0318 -0.0375
11942TIP3    H157241   5.346   3.598  12.847 -2.8335  1.4799  0.3595
11942TIP3    H257242   5.354   3.651  12.705  1.6746 -1.4230 -0.6754
11943TIP3   OH257243   0.062   0.986   6.013  0.1188  0.5459  0.0451
11943TIP3    H157244   0.144   0.944   6.038  0.4560  0.7507 -0.7024
11943TIP3    H257245   0.074   1.012   5.922 -2.1416 -2.8604 -1.4224
11944TIP3   OH257246   1.951   2.139   3.185 -0.1202 -0.2719 -0.3207
11944TIP3    H157247   1.881   2.200   3.162  1.0895  1.4694  0.4004
11944TIP3    H257248   1.965   2.088   3.105 -0.7131  0.8669 -1.1764
11945TIP3   OH257249   3.502   6.748  14.254 -0.4016  0.6604 -0.2858
11945TIP3    H157250   3.532   6.657  14.249 -1.6444  0.2096  0.1597
11945TIP3    H257251   3.473   6.768  14.165  2.2034  1.4926 -1.0260
11946TIP3   OH257252   4.525   1.070  15.649 -0.0145  0.2704 -0.6431
11946TIP3    H157253   4.463   1.070  15.723 -0.0211 -0.1567 -0.6421
11946TIP3    H257254   4.495   1.141  15.593 -1.9074 -1.2902 -1.7703
11947TIP3   OH257255   3.552   6.497   3.268  0.1972 -0.6832  0.2754
11947TIP3    H157256   3.628   6.520   3.214 -0.7849  1.1456 -0.4053
11947TIP3    H257257   3.583   6.509   3.358  0.7259  0.0976  0.0024
11948TIP3   OH257258   0.199   5.307  17.106  0.6495 -0.3203 -0.1292
11948TIP3    H157259   0.293   5.313  17.091  1.1420  1.3812  2.8730
11948TIP3    H257260   0.165   5.395  17.089 -0.5356 -1.0153 -1.6056
11949TIP3   OH257261   3.884   0.278   4.390 -0.3338  0.0402  1.1186
11949TIP3    H157262   3.795   0.291   4.357 -0.5539 -0.3556  1.5370
11949TIP3    H257263   3.903   0.186   4.370  0.2125  0.2814  0.4944
11950TIP3   OH257264   3.845   3.249  12.823  0.1890  0.7532 -0.3889
11950TIP3    H157265   3.807   3.226  12.908 -1.4287  2.0478 -0.7129
11950TIP3    H257266   3.854   3.344  12.826  2.3243  0.6176 -0.8307
11951TIP3   OH257267   5.554   5.567   3.059  0.1561 -0.1416  0.2001
11951TIP3    H157268   5.604   5.645   3.032 -0.5305 -0.5966 -2.7595
11951TIP3    H257269   5.478   5.602   3.104 -0.2757  0.9861 -1.3076
11952TIP3   OH257270   1.355   4.840  11.680 -0.2948 -0.6437  0.2961
11952TIP3    H157271   1.267   4.826  11.645 -1.0932 -1.3302  2.3700
11952TIP3    H257272   1.388   4.751  11.695  0.8360 -0.3897 -0.6158
11953TIP3   OH257273   3.258   2.699   2.173 -0.2940  0.3565 -0.6051
11953TIP3    H157274   3.214   2.779   2.144 -1.1701  0.3682  0.6446
11953TIP3    H257275   3.265   2.709   2.268 -0.5633 -1.1041 -0.4041
11954TIP3   OH257276   5.769   5.282  15.000 -0.2280 -0.1343  0.0856
11954TIP3    H157277   5.794   5.284  15.092  0.0499  0.4961 -0.0038
11954TIP3    H257278   5.680   5.316  14.999 -0.4733 -0.7567  0.1958
11955TIP3   OH257279   5.269   4.692   5.317  0.0069 -0.0165 -0.1907
11955TIP3    H157280   5.302   4.699   5.228  0.5569  0.2221  0.0260
11955TIP3    H257281   5.194   4.633   5.311 -1.1882  1.5077 -1.1347
11956TIP3   OH257282   4.483   1.131  13.588 -0.2321  0.0280 -0.7256
11956TIP3    H157283   4.570   1.093  13.575 -0.8732 -1.6908 -0.2638
11956TIP3    H257284   4.486   1.169  13.676  0.2542  0.6035 -0.9834
11957TIP3   OH257285   4.582   2.050   1.365 -0.4797 -0.7770 -0.2717
11957TIP3    H157286   4.670   2.082   1.343 -0.3171 -1.4361 -0.5973
11957TIP3    H257287   4.564   1.983   1.299 -1.8033  0.3251 -1.0969
11958TIP3   OH257288   3.183   3.633   0.934 -0.3573  0.1573 -0.0123
11958TIP3    H157289   3.115   3.700   0.927  0.9942  1.5826  0.0728
11958TIP3    H257290   3.261   3.680   0.964  1.5333 -0.7812 -2.9568
11959TIP3   OH257291   5.140   5.740   2.623 -0.1587 -0.2652 -0.1853
11959TIP3    H157292   5.221   5.691   2.636  1.4554  1.9397 -1.3202
11959TIP3    H257293   5.101   5.702   2.544  0.5859 -0.3370 -0.5218
11960TIP3   OH257294   6.678   2.367  12.156 -0.5698  0.2083 -0.0525
11960TIP3    H157295   6.647   2.307  12.224 -0.7757 -1.1831 -1.3057
11960TIP3    H257296   6.724   2.310  12.094  1.3512  1.7077 -0.1003
11961TIP3   OH257297   3.021   1.066   1.230 -0.1310  0.6248  0.3831
11961TIP3    H157298   3.087   0.997   1.240 -0.9670 -0.4902 -1.2674
11961TIP3    H257299   3.028   1.118   1.310 -1.3077 -2.9560  3.0733
11962TIP3   OH257300   4.578   4.506   2.513 -0.2802  0.3789  0.4391
11962TIP3    H157301   4.581   4.529   2.420  1.1183 -2.0173 -0.2128
11962TIP3    H257302   4.612   4.583   2.559  2.2788  0.4715 -1.3743
11963TIP3   OH257303   0.146   3.933   0.667  0.8536 -0.2856 -0.1889
11963TIP3    H157304   0.164   4.027   0.676  0.0928 -0.1992  0.4700
11963TIP3    H257305   0.124   3.922   0.574  1.1147  0.1466 -0.3067
11964TIP3   OH257306   3.853   1.224   1.681 -0.3312 -0.5410  0.5310
11964TIP3    H157307   3.794   1.155   1.651 -1.2529 -0.3154  1.7259
11964TIP3    H257308   3.803   1.305   1.669 -0.1868 -0.3230  1.3209
11965TIP3   OH257309   0.864   1.004   2.444  0.0216 -0.3758  0.0937
11965TIP3    H157310   0.836   0.931   2.499 -0.5085 -2.3813 -2.6081
11965TIP3    H257311   0.951   0.979   2.413 -0.2848 -0.0566 -1.0966
11966TIP3   OH257312   3.850   5.180   0.790 -0.0256 -0.2117  0.2005
11966TIP3    H157313   3.945   5.177   0.775 -0.3286 -3.7262 -2.0897
11966TIP3    H257314   3.818   5.246   0.728  0.8887  1.8282  1.7594
11967TIP3   OH257315   5.972   6.329  14.241 -0.4265  0.5248 -0.1369
11967TIP3    H157316   6.007   6.410  14.278  0.0572  0.5854 -0.7175
11967TIP3    H257317   5.980   6.265  14.312  1.5729  0.3480 -0.4645
11968TIP3   OH257318   4.943   3.447   4.852 -0.0619 -0.6578 -0.6354
11968TIP3    H157319   4.921   3.360   4.885 -0.1046 -0.7044 -0.7828
11968TIP3    H257320   5.033   3.439   4.820  1.0780  0.1594  2.1423
11969TIP3   OH257321   0.070   5.123  13.507  0.0711 -0.3345 -0.5849
11969TIP3    H157322   0.024   5.139  13.424  0.5445  0.0611 -0.7798
11969TIP3    H257323   0.007   5.077  13.562  0.0311 -1.3472 -1.4603
11970TIP3   OH257324   2.876   6.122   1.420  0.2262 -0.1992  0.4992
11970TIP3    H157325   2.843   6.074   1.344  0.4463  0.3017  0.0775
11970TIP3    H257326   2.800   6.134   1.477  0.0223 -0.4285  0.2741
11971TIP3   OH257327   1.638   1.978   4.526  0.0269 -0.6209 -0.1894
11971TIP3    H157328   1.716   1.947   4.481 -1.1416 -3.2090 -0.5947
11971TIP3    H257329   1.575   1.995   4.456 -0.9319 -2.0786  0.2956
11972TIP3   OH257330   6.441   4.782   1.632 -0.0315  0.0602 -0.0445
11972TIP3    H157331   6.416   4.728   1.707  0.0129  1.0960  0.7259
11972TIP3    H257332   6.362   4.830   1.609  0.2245  0.5083 -0.0019
11973TIP3   OH257333   1.162   3.884   4.411 -0.2128 -0.0870 -0.1205
11973TIP3    H157334   1.222   3.816   4.441 -0.0572  0.4863  0.9273
11973TIP3    H257335   1.138   3.931   4.490 -1.3710  0.2440 -0.6499
11974TIP3   OH257336   1.186   1.267   5.432 -0.6400  0.0382  0.4098
11974TIP3    H157337   1.173   1.301   5.521 -0.9145  0.9982  0.0097
11974TIP3    H257338   1.209   1.343   5.380 -3.2334  0.0363 -0.9285
11975TIP3   OH257339   0.236   5.635   2.616  0.4223  0.6223  0.1396
11975TIP3    H157340   0.171   5.704   2.603 -0.1703 -0.2190 -1.8364
11975TIP3    H257341   0.230   5.582   2.536  2.2070 -0.5916  0.7536
11976TIP3   OH257342   1.819   6.193  15.889  0.4062  0.0815  0.0169
11976TIP3    H157343   1.910   6.218  15.871  0.2169 -0.2382 -1.5310
11976TIP3    H257344   1.825   6.110  15.936  0.9244 -0.2531 -0.6208
11977TIP3   OH257345   6.747   3.729   1.935 -0.5657 -0.3883  0.3154
11977TIP3    H157346   6.780   3.640   1.941 -0.7763 -0.3909  1.7987
11977TIP3    H257347   6.816   3.778   1.891 -0.4624 -1.2708 -0.5330
11978TIP3   OH257348   0.275   4.633  15.834 -0.2825  0.0899  0.0505
11978TIP3    H157349   0.357   4.586  15.819  0.1861  0.7622  0.4693
11978TIP3    H257350   0.207   4.565  15.829 -0.1648  0.0093 -4.0791
11979TIP3   OH257351   0.014   3.064   4.519 -0.2555 -0.0873  0.0298
11979TIP3    H157352   0.034   3.154   4.548 -0.8547  0.6048 -1.6085
11979TIP3    H257353  -0.082   3.059   4.523 -0.1647 -1.2144  1.6263
11980TIP3   OH257354   3.928   3.778   3.131 -0.0661  0.2769 -1.0524
11980TIP3    H157355   4.011   3.737   3.156  0.0169 -0.3146 -2.2434
11980TIP3    H257356   3.904   3.832   3.207  1.9199  1.2714 -1.0893
11981TIP3   OH257357   3.641   2.577   4.691 -0.1934  0.4838  0.0215
11981TIP3    H157358   3.573   2.510   4.693 -0.0617  0.3464 -0.0877
11981TIP3    H257359   3.636   2.618   4.778 -0.9396  1.0111 -0.2670
11982TIP3   OH257360   2.089   5.788   1.293 -0.0096 -0.4782 -0.4049
11982TIP3    H157361   2.054   5.712   1.245 -1.7405  0.1056 -0.1254
11982TIP3    H257362   2.033   5.861   1.266 -0.7498 -0.0357  2.0881
11983TIP3   OH257363   4.149   4.497   4.220 -0.2287 -0.1063 -0.0238
11983TIP3    H157364   4.097   4.565   4.262  0.4309  0.3504  0.0651
11983TIP3    H257365   4.233   4.500   4.265  0.0288 -0.5330 -0.4724
11984TIP3   OH257366   2.947   5.869  16.515 -0.3493 -0.0365 -0.5484
11984TIP3    H157367   2.938   5.874  16.420  1.5084  0.6500 -0.7284
11984TIP3    H257368   3.041   5.873  16.530 -0.6557  1.8859  1.4099
11985TIP3   OH257369   6.566   5.086  13.813  0.2091 -0.4936 -0.4448
11985TIP3    H157370   6.535   5.004  13.774  1.5810 -1.3415  0.2093
11985TIP3    H257371   6.661   5.078  13.816  0.2554  0.1706  1.7114
11986TIP3   OH257372   4.367   1.273   1.579  0.1419  0.0072  0.6064
11986TIP3    H157373   4.385   1.248   1.670 -0.1028 -2.6236  0.0031
11986TIP3    H257374   4.311   1.351   1.587  1.3528  0.7607  2.6460
11987TIP3   OH257375   5.840   0.453  15.147  0.0542  0.5178 -0.3036
11987TIP3    H157376   5.916   0.510  15.156 -0.3413  1.2238 -1.1936
11987TIP3    H257377   5.853   0.384  15.212  0.8813  1.2543  0.3383
11988TIP3   OH257378   0.172   3.854   0.369 -0.0129  0.3612 -0.1928
11988TIP3    H157379   0.234   3.785   0.393  1.2720  1.0737 -1.3104
11988TIP3    H257380   0.218   3.905   0.302 -0.1433  3.4248  1.8637
11989TIP3   OH257381   0.797   0.492   1.649 -0.0712 -0.0318 -0.6095
11989TIP3    H157382   0.844   0.456   1.725 -1.0318  1.0337  0.5252
11989TIP3    H257383   0.840   0.576   1.633  1.3680 -1.0417 -2.4904
11990TIP3   OH257384   5.974   0.713  16.268  0.4036  0.1766 -0.0237
11990TIP3    H157385   5.901   0.737  16.211  1.4582 -1.2217 -2.1152
11990TIP3    H257386   6.047   0.768  16.238  0.3239  1.4293  1.9190
11991TIP3   OH257387   5.577   4.876  17.400 -0.1111  0.0627  0.0171
11991TIP3    H157388   5.616   4.814  17.339 -1.5178  0.3065 -1.1943
11991TIP3    H257389   5.491   4.895  17.363 -0.0858  2.0396  0.8328
11992TIP3   OH257390   4.720   6.212  16.642 -0.1400  0.3159  0.3820
11992TIP3    H157391   4.689   6.199  16.732  0.3059  1.1552  0.6686
11992TIP3    H257392   4.794   6.272  16.651 -0.0942  0.4092 -0.5512
11993TIP3   OH257393   1.617   0.257  13.301  0.2615 -0.1231  0.2926
11993TIP3    H157394   1.621   0.348  13.329  0.5161 -0.1075  0.2059
11993TIP3    H257395   1.597   0.208  13.381 -1.1986  0.1303  0.1062
11994TIP3   OH257396   1.751   0.775   1.678 -0.2596  0.0033 -0.5955
11994TIP3    H157397   1.709   0.811   1.600  0.3605 -0.0340 -0.9524
11994TIP3    H257398   1.760   0.850   1.737 -0.9178 -0.0110 -0.4723
11995TIP3   OH257399   1.710   4.851   5.972 -0.4029 -0.3971 -0.8193
11995TIP3    H157400   1.767   4.911   6.021 -0.9479 -0.8609  0.4348
11995TIP3    H257401   1.729   4.765   6.010  0.2992 -1.0309 -2.5284
11996TIP3   OH257402   6.744   4.339   5.358 -0.3002  0.1219  0.0543
11996TIP3    H157403   6.808   4.288   5.407  0.7752 -0.2425 -1.6601
11996TIP3    H257404   6.781   4.427   5.353 -0.7217  0.3276  0.4317
11997TIP3   OH257405   5.717   0.797   4.060 -0.4860  0.1119  0.0267
11997TIP3    H157406   5.808   0.800   4.089 -0.7398  0.3549  0.8304
11997TIP3    H257407   5.676   0.873   4.102 -0.9369  0.3107 -0.7519
11998TIP3   OH257408   1.416   3.429   4.913  0.0166  0.6289 -1.0668
11998TIP3    H157409   1.456   3.513   4.936 -2.8365  1.5923  0.9826
11998TIP3    H257410   1.384   3.441   4.823 -2.4360  2.7460 -0.0386
11999TIP3   OH257411   2.620   1.782  16.306  0.2069 -0.3662  0.2645
11999TIP3    H157412   2.541   1.730  16.292 -0.7978  0.7096  1.6580
11999TIP3    H257413   2.601   1.836  16.382  1.6598  1.1496 -0.3614
12000TIP3   OH257414   0.789   5.855  15.788 -0.7096 -0.1274  0.3084
12000TIP3    H157415   0.813   5.808  15.709 -2.5517  0.7497 -0.8385
12000TIP3    H257416   0.760   5.787  15.849  0.6157 -0.7987  0.2177
12001TIP3   OH257417   1.991   1.444   5.989  0.3497 -0.2125  0.3448
12001TIP3    H157418   1.960   1.384   6.056 -1.1987  0.1333 -0.0155
12001TIP3    H257419   1.941   1.421   5.911 -0.1888  1.4236  0.1613
12002TIP3   OH257420   0.336   3.079   6.174  0.1039  0.4722 -0.0591
12002TIP3    H157421   0.315   3.021   6.101 -0.8889  0.8746 -0.1100
12002TIP3    H257422   0.345   3.166   6.134  1.8814  0.3190 -0.0299
12003TIP3   OH257423   3.561   4.939  13.842  1.1670  0.0119  0.8124
12003TIP3    H157424   3.568   5.008  13.908  3.2201  0.0890  0.5926
12003TIP3    H257425   3.501   4.875  13.881  1.4282  0.5970  2.2558
12004TIP3   OH257426   1.795   4.245   3.396  0.0067 -0.3958  0.6147
12004TIP3    H157427   1.735   4.295   3.451  0.7271  0.2663  0.8033
12004TIP3    H257428   1.877   4.294   3.397  0.7673 -1.6218  0.8804
12005TIP3   OH257429   6.038   6.542  11.377  0.2761  0.0023  0.0064
12005TIP3    H157430   6.096   6.475  11.411  0.9198  0.2077 -0.6739
12005TIP3    H257431   5.950   6.508  11.393  0.5471  0.0630  1.8017
12006TIP3   OH257432   3.999   3.826  12.576  0.0178 -0.1468  0.2635
12006TIP3    H157433   4.009   3.806  12.669  0.8057  1.5330  0.5753
12006TIP3    H257434   3.926   3.771  12.547  0.5578 -1.6036  1.5625
12007TIP3   OH257435   2.476   2.054  11.637 -0.2162  1.3605 -0.1430
12007TIP3    H157436   2.417   2.078  11.566 -1.1896 -1.1875 -0.2783
12007TIP3    H257437   2.425   1.994  11.692  1.5635  0.7681  0.9371
12008TIP3   OH257438   0.719   6.305   5.179 -0.1917  0.3975 -0.1753
12008TIP3    H157439   0.665   6.281   5.255  0.1067 -1.6300 -0.5567
12008TIP3    H257440   0.733   6.223   5.132  2.4936  0.9994 -0.5888
12009TIP3   OH257441   6.342   3.356  14.787 -0.0042  0.1568  0.0318
12009TIP3    H157442   6.389   3.382  14.708 -0.9384  2.7016  0.2124
12009TIP3    H257443   6.272   3.298  14.756  1.7499 -1.7965 -0.4973
12010TIP3   OH257444   2.663   4.713  13.091  0.2806  0.0324 -0.0120
12010TIP3    H157445   2.645   4.763  13.171 -1.1059 -0.4961  0.0303
12010TIP3    H257446   2.757   4.696  13.093  0.1551 -0.5738  1.8617
12011TIP3   OH257447   4.667   2.328  10.472  0.1058  0.2191  0.1584
12011TIP3    H157448   4.664   2.298  10.563 -1.7889  0.1093  0.0979
12011TIP3    H257449   4.750   2.295  10.439  0.2926 -0.7649  1.5137
12012TIP3   OH257450   5.434   3.413   4.308 -0.0970  0.0255 -0.7380
12012TIP3    H157451   5.375   3.448   4.241 -0.4187 -1.8656 -1.5074
12012TIP3    H257452   5.479   3.340   4.265 -0.0877 -1.0655  1.0068
12013TIP3   OH257453   6.216   6.419  11.145 -0.1225 -0.0214 -0.1901
12013TIP3    H157454   6.146   6.464  11.193  2.5494 -0.0987  4.3703
12013TIP3    H257455   6.263   6.489  11.099 -0.6712  0.6719  0.2909
12014TIP3   OH257456   1.525   1.324   3.373 -0.1568  0.3040 -0.8114
12014TIP3    H157457   1.601   1.319   3.430 -1.1091 -0.8111  0.4329
12014TIP3    H257458   1.501   1.416   3.372  1.1182  0.6448 -1.1229
12015TIP3   OH257459   3.372   0.379  15.484 -0.0457  0.6879 -0.4794
12015TIP3    H157460   3.403   0.469  15.484  2.3090 -0.0519 -0.7963
12015TIP3    H257461   3.300   0.378  15.546 -0.0979  2.7595 -0.4331
12016TIP3   OH257462   2.739   3.810   3.937 -0.7705 -0.0195  0.6836
12016TIP3    H157463   2.730   3.883   3.999 -1.1560  0.3394  0.2108
12016TIP3    H257464   2.805   3.753   3.977 -1.7327 -0.3067  1.9324
12017TIP3   OH257465   2.731   6.452  12.608 -1.1557 -0.3444 -0.0008
12017TIP3    H157466   2.822   6.423  12.602 -0.6037  0.1285  3.6124
12017TIP3    H257467   2.708   6.478  12.519  1.4770 -2.5525 -1.4848
12018TIP3   OH257468   2.883   3.513   3.974  0.3004  0.1615  0.4093
12018TIP3    H157469   2.796   3.490   3.941  0.2609  0.0493  0.5883
12018TIP3    H257470   2.877   3.497   4.068  0.0577  1.5627  0.6501
12019TIP3   OH257471   3.457   6.234   0.720  0.0326  0.6313 -0.0660
12019TIP3    H157472   3.366   6.241   0.692 -0.2907  2.3301  1.2787
12019TIP3    H257473   3.452   6.200   0.809  0.8380 -0.8035 -0.5262
12020TIP3   OH257474   0.232   1.867   1.478  0.3221 -0.0212  0.0418
12020TIP3    H157475   0.170   1.794   1.482  0.7387 -0.5088 -1.6856
12020TIP3    H257476   0.318   1.825   1.483  0.5586  0.3579 -0.7257
12021TIP3   OH257477   4.579   0.047  16.636 -0.2192  0.3504 -0.1644
12021TIP3    H157478   4.639   0.024  16.707 -0.7026 -1.2740 -0.2339
12021TIP3    H257479   4.513   0.102  16.678  0.4635  0.8712  0.2497
12022TIP3   OH257480   5.356   0.313  17.181  0.7815  0.6691 -0.0354
12022TIP3    H157481   5.415   0.266  17.240 -0.2166 -0.0945  0.3880
12022TIP3    H257482   5.393   0.297  17.094  1.2100  0.2147  0.2194
12023TIP3   OH257483   1.733   3.883   4.514  0.3056 -0.3237 -0.0079
12023TIP3    H157484   1.702   3.970   4.540  0.0312 -0.4961  0.2639
12023TIP3    H257485   1.712   3.876   4.421  0.5010 -0.0251 -0.0722
12024TIP3   OH257486   3.395   3.512  11.059 -0.2181 -0.9583  0.4866
12024TIP3    H157487   3.383   3.607  11.069  0.4345 -0.5007 -2.3401
12024TIP3    H257488   3.486   3.497  11.081  0.1808 -0.5928 -0.8365
12025TIP3   OH257489   0.104   0.288  17.014 -0.0205  0.2015 -0.2147
12025TIP3    H157490   0.065   0.265  17.098 -0.2867  1.5876  0.0690
12025TIP3    H257491   0.195   0.260  17.021 -0.2699 -0.5308  0.1785
12026TIP3   OH257492   3.359   1.788   0.726  0.3859 -0.1905  0.2816
12026TIP3    H157493   3.279   1.763   0.679  0.4784  0.7265 -0.3946
12026TIP3    H257494   3.412   1.708   0.728  1.0564  0.0720 -2.6041
12027TIP3   OH257495   0.838   5.260   0.337 -0.6233 -0.9986 -0.3692
12027TIP3    H157496   0.813   5.345   0.372  2.3295 -0.0089 -0.3828
12027TIP3    H257497   0.825   5.199   0.409  1.1655  0.2464  1.1015
12028TIP3   OH257498   1.461   2.665   4.822  0.4088 -0.0866  0.2936
12028TIP3    H157499   1.437   2.754   4.848  0.5628  0.2088 -0.5327
12028TIP3    H257500   1.408   2.649   4.744  0.0035 -0.9195  0.7336
12029TIP3   OH257501   4.061   2.124   5.140 -0.1898  0.1673  0.2828
12029TIP3    H157502   4.007   2.185   5.191  0.2769  0.3571  0.5547
12029TIP3    H257503   4.103   2.069   5.206  2.8281  2.3624  0.3761
12030TIP3   OH257504   4.124   5.235   4.177  0.3121  0.0565 -0.1624
12030TIP3    H157505   4.062   5.163   4.187 -1.2398  0.9658 -2.3858
12030TIP3    H257506   4.099   5.298   4.245 -1.2731  0.3916 -1.0035
12031TIP3   OH257507   6.304   2.306  10.373 -0.0972  0.2105  0.2125
12031TIP3    H157508   6.313   2.311  10.469  4.1035  2.7432 -0.0482
12031TIP3    H257509   6.337   2.219  10.351  1.0788  0.4222  1.0112
12032TIP3   OH257510   4.126   4.289  14.245  0.3840 -1.0146  0.4163
12032TIP3    H157511   4.128   4.259  14.154  1.8648  0.3262 -0.0264
12032TIP3    H257512   4.060   4.358  14.245 -0.2268 -1.5849  0.5729
12033TIP3   OH257513   6.671   5.472  14.603 -0.4596 -0.1594 -0.4960
12033TIP3    H157514   6.582   5.504  14.592  0.0877  1.4787 -0.4143
12033TIP3    H257515   6.704   5.460  14.514 -0.2618  0.7132 -0.5430
12034TIP3   OH257516   4.723   2.712  15.940 -0.0672  0.6059 -0.7552
12034TIP3    H157517   4.702   2.694  16.032 -0.7567 -1.9547 -1.3414
12034TIP3    H257518   4.749   2.804  15.939 -1.0520  0.9899  1.8178
12035TIP3   OH257519   5.946   1.456   5.257 -0.0627 -0.3116  0.3345
12035TIP3    H157520   5.989   1.381   5.297  1.7007  0.5481  0.1769
12035TIP3    H257521   5.993   1.470   5.175 -2.1728 -0.6947 -1.0278
12036TIP3   OH257522   0.871   0.393  13.196  0.1034  0.6336 -0.0369
12036TIP3    H157523   0.936   0.461  13.178  1.7856 -1.4088 -2.2209
12036TIP3    H257524   0.857   0.350  13.112 -1.6028 -1.1720  1.0782
12037TIP3   OH257525   4.183   1.181  12.332 -0.2318  0.0671 -0.4965
12037TIP3    H157526   4.167   1.098  12.287 -0.6613  0.5165 -1.1715
12037TIP3    H257527   4.150   1.248  12.273  0.9044  0.7889 -0.3387
12038TIP3   OH257528   3.507   4.015   0.924  0.3318 -0.2433 -0.3814
12038TIP3    H157529   3.443   3.966   0.872  1.1732 -1.8084  0.0083
12038TIP3    H257530   3.461   4.031   1.007  0.2611 -0.9758 -0.2655
12039TIP3   OH257531   5.024   0.958   1.222  0.0355 -0.2627  0.2279
12039TIP3    H157532   5.041   0.871   1.260  4.0850 -0.5619 -1.7173
12039TIP3    H257533   4.963   0.941   1.150 -0.1731 -1.2984  0.6346
12040TIP3   OH257534   0.889   5.786  12.418  0.8882 -0.3803  0.3987
12040TIP3    H157535   0.919   5.711  12.469  2.8463 -0.0640 -0.1912
12040TIP3    H257536   0.897   5.757  12.327 -2.3996 -0.8841  0.1652
12041TIP3   OH257537   2.455   1.108  11.394 -0.3992  0.3360  0.3662
12041TIP3    H157538   2.412   1.047  11.453  0.6262 -1.1642 -0.3846
12041TIP3    H257539   2.449   1.068  11.308  2.0282  0.2573  0.1494
12042TIP3   OH257540   5.379   2.898   1.926 -0.1534 -0.1881 -0.4316
12042TIP3    H157541   5.365   2.807   1.899 -0.8501 -0.4152  0.6297
12042TIP3    H257542   5.302   2.945   1.894  1.2744  0.5736 -3.0803
12043TIP3   OH257543   1.129   4.016   1.722  0.0889 -0.4123 -0.7607
12043TIP3    H157544   1.141   3.976   1.808  1.5901  0.0477 -0.7215
12043TIP3    H257545   1.042   4.055   1.725 -0.3470 -1.3989  0.1249
12044TIP3   OH257546   0.639   5.972   3.679 -0.8148  0.6474  0.0079
12044TIP3    H157547   0.670   5.995   3.592 -2.0085  0.1099 -0.5779
12044TIP3    H257548   0.689   6.029   3.738 -0.4846  1.5006 -1.0619
12045TIP3   OH257549   1.037   1.199   0.280 -0.1441 -0.5068 -0.0001
12045TIP3    H157550   0.959   1.254   0.283 -0.6388 -1.1695  3.5216
12045TIP3    H257551   1.012   1.123   0.228 -1.2589  0.0814 -0.3566
12046TIP3   OH257552   4.741   3.757   5.176 -0.0188  0.0150  0.3014
12046TIP3    H157553   4.736   3.824   5.108 -3.4196  1.4303  1.7257
12046TIP3    H257554   4.741   3.674   5.128 -0.0410  0.9662 -1.4211
12047TIP3   OH257555   4.075   5.845  14.730 -0.3446  0.3070 -0.4689
12047TIP3    H157556   4.165   5.819  14.749 -0.3262  0.6274 -0.1121
12047TIP3    H257557   4.075   5.864  14.637  0.3163  1.7036 -0.2186
12048TIP3   OH257558   1.198   5.870   2.936 -0.3568 -0.1635  0.8566
12048TIP3    H157559   1.119   5.911   2.901  0.0037 -1.4978 -1.7541
12048TIP3    H257560   1.239   5.938   2.989 -1.9887  1.3605  0.2606
12049TIP3   OH257561   6.547   5.170  14.732  0.2468 -0.2544  0.4248
12049TIP3    H157562   6.516   5.258  14.710 -0.1617 -0.1888  1.2448
12049TIP3    H257563   6.555   5.169  14.827  0.1450 -1.1396  0.4399
12050TIP3   OH257564   5.328   3.001   1.606  0.2499 -0.4922  0.1370
12050TIP3    H157565   5.380   2.929   1.643  0.6738  0.3959  1.3541
12050TIP3    H257566   5.383   3.078   1.619  0.2094 -0.0598 -2.0155
12051TIP3   OH257567   6.130   1.033   5.679  0.4561 -0.1242 -0.0655
12051TIP3    H157568   6.091   1.108   5.724  1.0340  0.7150 -0.9074
12051TIP3    H257569   6.223   1.055   5.673  0.8602 -1.4895  0.7654
12052TIP3   OH257570   1.314   4.184   2.773 -0.1716 -0.1126  0.1454
12052TIP3    H157571   1.309   4.106   2.718  3.6246 -0.0653 -0.5547
12052TIP3    H257572   1.337   4.150   2.860  0.3729  0.1402  0.1044
12053TIP3   OH257573   1.756   6.051  13.310  0.4129 -0.2931 -0.1280
12053TIP3    H157574   1.851   6.045  13.298  0.2481 -0.2077 -1.7540
12053TIP3    H257575   1.737   6.144  13.303  0.1096 -0.4007 -0.8263
12054TIP3   OH257576   2.699   6.650   3.080 -0.7068  0.0543  0.6152
12054TIP3    H157577   2.760   6.603   3.024 -1.4114  0.3433 -0.4160
12054TIP3    H257578   2.666   6.584   3.141 -0.5499 -0.4424  0.1666
12055TIP3   OH257579   1.775   1.101  15.921 -0.0518  0.4432 -0.5842
12055TIP3    H157580   1.795   1.185  15.879  1.9791  0.0701 -0.4429
12055TIP3    H257581   1.697   1.120  15.974 -0.6044  1.8060 -1.7989
12056TIP3   OH257582   0.551   4.589  13.148  0.5719 -0.1953 -0.4765
12056TIP3    H157583   0.527   4.670  13.193  0.6604 -1.1060  1.2696
12056TIP3    H257584   0.609   4.618  13.077  1.4842  1.1893  0.7748
12057TIP3   OH257585   2.482   1.999  13.192 -0.1472 -0.2126 -0.4509
12057TIP3    H157586   2.490   1.919  13.246 -0.4184 -0.3890 -0.6669
12057TIP3    H257587   2.541   1.984  13.118  0.5966  0.2390  0.0385
12058TIP3   OH257588   1.960   4.856  14.127  0.1091 -0.6892 -0.1193
12058TIP3    H157589   1.872   4.862  14.162 -0.0428  0.3477 -0.6371
12058TIP3    H257590   1.969   4.932  14.070  1.3538 -0.7560 -0.0513
12059TIP3   OH257591   3.989   0.815  13.316  0.6734 -0.3038 -0.0015
12059TIP3    H157592   3.970   0.857  13.400  0.8799  1.0347 -0.5884
12059TIP3    H257593   4.084   0.803  13.315  0.9182  1.2921 -0.7032
12060TIP3   OH257594   4.380   2.617   3.491  0.5628  0.3004 -0.0829
12060TIP3    H157595   4.431   2.606   3.411  1.0264  1.2697  0.0642
12060TIP3    H257596   4.360   2.711   3.494  2.2853  0.6962  1.9539
12061TIP3   OH257597   6.066   3.497  11.777 -0.1286 -0.2324  0.2482
12061TIP3    H157598   6.013   3.458  11.708  0.7051 -1.0961  0.0823
12061TIP3    H257599   6.112   3.569  11.734 -1.1067  0.5136  0.3900
12062TIP3   OH257600   0.715   2.406   0.066 -0.0808 -0.0702  0.1286
12062TIP3    H157601   0.807   2.389   0.047  0.5736  1.5833  1.5480
12062TIP3    H257602   0.703   2.382   0.157 -0.7207  0.8878  0.3207
12063TIP3   OH257603   0.670   4.908   4.945 -0.1613  0.4811  0.1307
12063TIP3    H157604   0.648   5.001   4.954  0.5724  0.6650  0.0836
12063TIP3    H257605   0.717   4.886   5.025  0.2609  0.3301 -0.1510
12064TIP3   OH257606   4.441   2.999  11.395 -0.0360 -0.1217 -0.6925
12064TIP3    H157607   4.432   3.087  11.360  0.2292 -0.1558 -0.8476
12064TIP3    H257608   4.476   2.947  11.322  0.3920 -0.2203 -0.4224
12065TIP3   OH257609   6.027   3.294   1.104 -0.2314 -0.2485  0.7038
12065TIP3    H157610   6.073   3.372   1.074  0.2223 -0.1840  1.5326
12065TIP3    H257611   6.068   3.272   1.188  0.1551 -1.8074  0.1480
12066TIP3   OH257612   5.677   6.467  17.014  0.4422 -0.0960  0.0092
12066TIP3    H157613   5.772   6.463  17.014  0.4837  0.1652 -1.7158
12066TIP3    H257614   5.656   6.555  16.983 -0.3249 -0.8224 -1.6256
12067TIP3   OH257615   2.828   4.332   6.325  0.4382  0.3556 -0.4166
12067TIP3    H157616   2.782   4.325   6.409 -0.1390  0.6790 -0.6928
12067TIP3    H257617   2.901   4.391   6.342  0.4977  0.1829 -0.0691
12068TIP3   OH257618   6.559   0.228   4.322  0.0797 -0.4625  0.2950
12068TIP3    H157619   6.508   0.152   4.295  0.1704 -0.9233  1.3793
12068TIP3    H257620   6.643   0.191   4.349  0.1550  0.0316  0.7437
12069TIP3   OH257621   4.381   6.343   4.464  0.5856 -0.1726 -0.1575
12069TIP3    H157622   4.293   6.379   4.473  0.6154 -0.3746  1.1183
12069TIP3    H257623   4.376   6.286   4.386 -0.1545  0.5099 -0.6180
12070TIP3   OH257624   2.332   2.804  15.429 -0.2591 -0.6307  0.1924
12070TIP3    H157625   2.284   2.787  15.510  0.5520  2.4826  1.4872
12070TIP3    H257626   2.421   2.824  15.457  0.0610  0.5163 -1.4640
12071TIP3   OH257627   4.934   3.685  15.303 -0.0131 -0.1957  0.1088
12071TIP3    H157628   4.906   3.769  15.267 -0.6293 -0.1525  0.6765
12071TIP3    H257629   4.896   3.620  15.244 -1.0254 -0.1261  0.6650
12072TIP3   OH257630   3.086   5.857   4.028 -0.2184  0.6261 -0.6921
12072TIP3    H157631   3.004   5.814   4.003 -0.7013  1.2645 -0.2352
12072TIP3    H257632   3.145   5.785   4.052 -1.1672  0.2137  0.5158
12073TIP3   OH257633   2.805   2.629   4.973 -0.4441 -0.5270  0.1741
12073TIP3    H157634   2.765   2.565   5.032 -0.0572  0.3600  1.4438
12073TIP3    H257635   2.857   2.685   5.030 -0.8361  0.9777 -0.8817
12074TIP3   OH257636   3.095   2.234  13.855 -0.1921  0.5976 -0.0314
12074TIP3    H157637   3.117   2.143  13.874  0.5790  0.7981  0.0591
12074TIP3    H257638   3.000   2.238  13.865 -0.2328 -0.1903 -0.0148
12075TIP3   OH257639   0.728   5.933   0.128  0.2216 -0.4085 -0.4289
12075TIP3    H157640   0.780   6.004   0.091 -1.3944  0.5876 -0.8578
12075TIP3    H257641   0.791   5.861   0.138  1.6873  0.7572 -0.8533
12076TIP3   OH257642   3.564   2.561  13.736 -0.1833  0.0356 -0.2121
12076TIP3    H157643   3.554   2.522  13.649 -0.6920  1.7703 -0.9739
12076TIP3    H257644   3.492   2.525  13.787  0.3444 -1.3020 -0.3690
12077TIP3   OH257645   4.824   1.137  14.770 -0.0149  0.0690 -0.0901
12077TIP3    H157646   4.858   1.109  14.855  1.9311  3.3127  0.3499
12077TIP3    H257647   4.887   1.201  14.738 -3.0596  2.5460 -1.7497
12078TIP3   OH257648   4.409   4.596  16.325 -0.0150  0.2588 -0.3283
12078TIP3    H157649   4.385   4.667  16.265 -0.8633  0.1959 -0.0710
12078TIP3    H257650   4.495   4.567  16.294  1.1139  2.4402  0.5228
12079TIP3   OH257651   3.101   2.206   1.036  0.2152 -0.7237 -0.2844
12079TIP3    H157652   3.120   2.112   1.029 -0.7965 -0.9954  0.3737
12079TIP3    H257653   3.058   2.229   0.954  1.2352 -0.6198 -0.8124
12080TIP3   OH257654   5.174   2.328  13.645 -0.8534 -0.4267 -0.3328
12080TIP3    H157655   5.190   2.233  13.647  1.5629 -0.0791  1.3119
12080TIP3    H257656   5.240   2.361  13.583 -0.2229  0.3550  0.7313
12081TIP3   OH257657   4.353   2.334   4.295 -0.5967  0.5591  0.0059
12081TIP3    H157658   4.309   2.318   4.212 -0.2799  1.5061 -0.3629
12081TIP3    H257659   4.361   2.248   4.336 -1.7802  0.2288 -0.4239
12082TIP3   OH257660   3.862   4.040  17.331  0.3402 -0.8227  0.4650
12082TIP3    H157661   3.834   3.948  17.329  1.2594 -1.1033 -0.2990
12082TIP3    H257662   3.850   4.066  17.422 -2.2616 -0.9396  0.2465
12083TIP3   OH257663   4.600   3.457   5.366 -0.2341  0.3690  0.0830
12083TIP3    H157664   4.665   3.521   5.394  1.6194 -1.5731  0.5318
12083TIP3    H257665   4.518   3.485   5.408  1.0620  1.0796  2.2752
12084TIP3   OH257666   1.013   1.832  11.608 -0.7329 -0.4041 -0.4142
12084TIP3    H157667   0.951   1.894  11.646 -0.9678  0.2521 -1.8083
12084TIP3    H257668   0.993   1.749  11.651 -2.9842 -0.3448 -1.2211
12085TIP3   OH257669   2.885   5.693   1.401 -0.2868  0.1094  0.3452
12085TIP3    H157670   2.873   5.690   1.306 -1.5467 -1.8356  0.5155
12085TIP3    H257671   2.799   5.712   1.436  0.0219  0.1017  1.1299
12086TIP3   OH257672   5.217   1.775  13.729 -0.4496  0.2662  0.3292
12086TIP3    H157673   5.267   1.731  13.798 -1.5072 -0.9663  0.3478
12086TIP3    H257674   5.131   1.791  13.767 -1.1365 -0.6623 -0.7467
12087TIP3   OH257675   6.593   3.461   6.304  0.0846 -0.0236 -0.0901
12087TIP3    H157676   6.615   3.534   6.361 -0.3164 -0.1453  0.2274
12087TIP3    H257677   6.576   3.388   6.364  1.1805 -0.5751 -0.4251
12088TIP3   OH257678   3.217   3.820   4.116  0.0800 -0.0831 -0.0174
12088TIP3    H157679   3.156   3.817   4.042  0.5682  1.4436 -0.5256
12088TIP3    H257680   3.293   3.867   4.082  1.0835 -0.9672  0.9423
12089TIP3   OH257681   4.773   5.754  14.140 -0.0264  0.4666 -0.4355
12089TIP3    H157682   4.791   5.776  14.231 -0.1124 -0.4467 -0.1858
12089TIP3    H257683   4.846   5.791  14.091  1.7951 -1.8288  0.3745
12090TIP3   OH257684   4.646   4.253  15.984  0.0433 -0.2993  0.3078
12090TIP3    H157685   4.734   4.247  16.023  0.1801  0.7411  0.1917
12090TIP3    H257686   4.642   4.342  15.948 -0.1813 -1.1211 -1.8231
12091TIP3   OH257687   1.475   5.106   2.673 -0.0300 -0.0059 -1.1596
12091TIP3    H157688   1.526   5.029   2.650 -0.9838 -0.7709 -0.7789
12091TIP3    H257689   1.420   5.078   2.746  2.0860  2.0183  1.4516
12092TIP3   OH257690   3.990   5.524   3.198  0.4247  0.1401  0.1180
12092TIP3    H157691   4.068   5.496   3.150 -0.5168  0.1006 -1.4359
12092TIP3    H257692   3.951   5.442   3.229  0.5655  0.1062  0.2074
12093TIP3   OH257693   0.920   4.897   3.061  0.7968  0.2482  0.3548
12093TIP3    H157694   0.995   4.900   3.121  1.4175  1.2878 -0.4145
12093TIP3    H257695   0.957   4.926   2.977 -0.3627  0.2717 -0.1600
12094TIP3   OH257696   4.995   4.443  16.531  0.2271  0.3962 -0.2520
12094TIP3    H157697   4.901   4.443  16.513  0.1560  0.3386  0.1071
12094TIP3    H257698   5.020   4.352  16.524 -0.0586  0.1867  1.2191
12095TIP3   OH257699   2.084   1.765   3.698  0.0518  0.5785 -1.1684
12095TIP3    H157700   2.117   1.848   3.732  2.2498 -0.1507 -1.3802
12095TIP3    H257701   2.137   1.747   3.621 -0.7678 -0.7472 -1.4553
12096TIP3   OH257702   2.105   5.923   5.776  0.4394  0.2539  0.7423
12096TIP3    H157703   2.152   5.959   5.850 -0.8723  1.9963  0.7832
12096TIP3    H257704   2.121   5.984   5.704  0.5012 -0.6313 -0.0254
12097TIP3   OH257705   4.900   1.031  15.039  0.3401 -0.1016  0.4244
12097TIP3    H157706   4.966   0.972  15.076 -0.6657 -0.7871  1.1750
12097TIP3    H257707   4.845   1.055  15.114 -0.1801  0.5803 -0.1651
12098TIP3   OH257708   4.469   3.533  13.854  0.0251 -0.3858 -0.5198
12098TIP3    H157709   4.520   3.476  13.796 -2.4159  0.3416 -3.6688
12098TIP3    H257710   4.396   3.478  13.884 -2.0169  0.6762 -3.1073
12099TIP3   OH257711   2.383   3.070  14.177  0.3136  0.1796  0.3555
12099TIP3    H157712   2.325   3.109  14.112 -1.3378 -0.1651  1.5614
12099TIP3    H257713   2.390   2.978  14.152  2.2711  0.6588 -1.1061
12100TIP3   OH257714   6.113   4.344  13.185  0.7312  0.3703 -0.1387
12100TIP3    H157715   6.071   4.334  13.099  0.1609  0.6168  0.1095
12100TIP3    H257716   6.207   4.337  13.166  0.6253  0.6890 -0.8246
12101TIP3   OH257717   2.226   3.034   2.567  0.3189  0.1534  0.0367
12101TIP3    H157718   2.203   3.117   2.610  0.4661  1.4569 -2.2476
12101TIP3    H257719   2.149   3.011   2.516  0.6680 -0.5524 -0.1847
12102TIP3   OH257720   4.186   3.176   5.027  0.2550 -0.0443  0.4253
12102TIP3    H157721   4.162   3.090   5.062  1.4829 -0.5427  0.0908
12102TIP3    H257722   4.252   3.157   4.960 -0.9400  0.9904 -1.1420
12103TIP3   OH257723   3.630   6.490  16.097  0.2020 -0.5141  0.0544
12103TIP3    H157724   3.655   6.581  16.081 -1.2103 -0.4211 -2.1815
12103TIP3    H257725   3.540   6.495  16.130  0.9242 -1.0644  2.3192
12104TIP3   OH257726   0.554   2.544  15.908  0.3385  0.1600 -0.3584
12104TIP3    H157727   0.476   2.600  15.917  1.0124  1.1829 -0.6717
12104TIP3    H257728   0.613   2.595  15.853  2.0165  0.2731  1.4719
12105TIP3   OH257729   2.429   0.721  11.823 -0.2785 -0.0453  0.2458
12105TIP3    H157730   2.502   0.782  11.810  0.5327 -0.9734  0.3393
12105TIP3    H257731   2.456   0.666  11.896 -1.3159 -0.0708  0.6334
12106TIP3   OH257732   3.053   3.549   6.221 -0.3886 -0.3380  0.1799
12106TIP3    H157733   3.009   3.472   6.259  0.4344 -0.5440  0.7543
12106TIP3    H257734   3.009   3.562   6.137  0.5086 -2.4226 -0.6877
12107TIP3   OH257735   1.351   4.957   3.439 -0.2892  0.1987 -0.1298
12107TIP3    H157736   1.296   4.952   3.360 -1.0222  0.7953  0.3305
12107TIP3    H257737   1.307   5.020   3.495 -1.1013 -1.9438  1.7991
12108TIP3   OH257738   4.052   6.000  15.603 -0.5666 -0.4760  0.2829
12108TIP3    H157739   3.999   6.039  15.533  1.1326  2.0143  0.2280
12108TIP3    H257740   4.032   6.055  15.680  1.3127  0.0669  0.4250
12109TIP3   OH257741   3.694   5.064  12.896  0.3459 -0.0451 -0.0818
12109TIP3    H157742   3.696   5.010  12.975  1.6973  0.0154 -0.0508
12109TIP3    H257743   3.611   5.042  12.854  1.3104 -3.0114 -0.6402
12110TIP3   OH257744   2.212   3.779  11.958 -0.0551 -0.3041 -0.2198
12110TIP3    H157745   2.264   3.805  12.034 -1.3474  1.7828  0.0284
12110TIP3    H257746   2.247   3.831  11.886 -0.0284 -0.9233 -0.6667
12111TIP3   OH257747   2.712   5.423  15.312 -0.8030 -0.4831  0.0526
12111TIP3    H157748   2.791   5.420  15.259  0.7810  1.0002  2.1470
12111TIP3    H257749   2.719   5.347  15.370 -0.4346  0.0979  0.7961
12112TIP3   OH257750   1.610   3.244  12.825  0.0337 -0.6621 -0.1504
12112TIP3    H157751   1.608   3.301  12.902  0.9183  1.1053 -1.3778
12112TIP3    H257752   1.643   3.161  12.858  0.4584  0.0665  1.3640
12113TIP3   OH257753   3.975   5.266  11.974  0.1291 -0.0201  0.2232
12113TIP3    H157754   3.939   5.355  11.965 -2.1520 -0.9677 -0.8052
12113TIP3    H257755   4.003   5.262  12.065  0.5475  1.8368  0.2278
12114TIP3   OH257756   3.528   6.613  15.380  0.0835  0.1536  0.0850
12114TIP3    H157757   3.459   6.608  15.446 -0.0572 -0.7681 -0.1267
12114TIP3    H257758   3.608   6.593  15.429  0.0512  0.0275  0.0858
12115TIP3   OH257759   5.870   5.688  12.264  0.1056  0.2038 -0.0576
12115TIP3    H157760   5.775   5.695  12.279  0.2278  0.4896  0.6020
12115TIP3    H257761   5.908   5.695  12.351  0.7589  0.4378 -0.3630
12116TIP3   OH257762   2.467   0.215   4.346 -0.0624  0.4669 -0.1554
12116TIP3    H157763   2.547   0.242   4.301 -0.0220 -0.2488 -0.5175
12116TIP3    H257764   2.397   0.228   4.282  0.0075 -0.6358 -0.4691
12117TIP3   OH257765   3.608   3.105   5.179  0.8601 -0.1822 -0.2495
12117TIP3    H157766   3.696   3.124   5.147  0.7298  0.9768  0.0385
12117TIP3    H257767   3.614   3.115   5.274  0.2749  0.5005 -0.2803
12118TIP3   OH257768   4.263   0.802  13.050  0.1164  0.2247  0.0011
12118TIP3    H157769   4.272   0.767  13.139 -0.7403  1.7534  0.7315
12118TIP3    H257770   4.338   0.765  13.003 -0.7096 -2.5389  0.6662
12119TIP3   OH257771   4.994   0.639  16.451  0.0086  0.1798 -0.0579
12119TIP3    H157772   5.087   0.635  16.473  0.5497 -2.8000 -2.3184
12119TIP3    H257773   4.984   0.578  16.379 -3.5631  1.2182 -0.6148
12120TIP3   OH257774   3.308   5.391   3.758  0.3911  0.4074  0.2233
12120TIP3    H157775   3.271   5.424   3.840 -0.4839  2.1205 -0.8056
12120TIP3    H257776   3.381   5.450   3.740 -0.8851  1.5833 -1.3961
12121TIP3   OH257777   5.715   6.623   6.478 -0.6134  0.2894 -0.2735
12121TIP3    H157778   5.722   6.553   6.544 -0.9563 -1.1393 -1.6826
12121TIP3    H257779   5.802   6.661   6.475 -0.2465 -0.4836  0.1121
12122TIP3   OH257780   5.227   4.228  16.928  0.2664  0.0122 -0.1460
12122TIP3    H157781   5.259   4.178  16.853  3.6695  2.4722 -0.6050
12122TIP3    H257782   5.161   4.287  16.890 -0.5474 -1.0850 -0.4688
12123TIP3   OH257783   1.827   2.566   1.355  0.0074  0.7921 -0.1586
12123TIP3    H157784   1.845   2.493   1.296  1.5316  0.6795  0.3966
12123TIP3    H257785   1.772   2.529   1.424 -0.7691  0.6385 -0.8445
12124TIP3   OH257786   3.991   2.432   3.466  0.2454 -0.0879  0.6164
12124TIP3    H157787   4.011   2.511   3.516  0.4933 -0.3055  0.8622
12124TIP3    H257788   4.066   2.422   3.406  0.3706 -0.3172  0.8104
12125TIP3   OH257789   1.925   2.894  16.546  0.3561 -0.0469  0.1360
12125TIP3    H157790   1.896   2.862  16.631 -0.3794 -1.0362 -0.4593
12125TIP3    H257791   1.863   2.963  16.523 -0.1086 -0.5270 -0.0719
12126TIP3   OH257792   0.212   1.376   5.344 -0.1731  0.0978  0.6029
12126TIP3    H157793   0.247   1.290   5.323  0.0775  0.1132  0.9527
12126TIP3    H257794   0.278   1.417   5.400 -1.2357 -0.3233  2.2567
12127TIP3   OH257795   6.431   6.739  11.242  0.1822 -0.0415 -0.2947
12127TIP3    H157796   6.518   6.776  11.257 -0.1953  0.3931  0.9097
12127TIP3    H257797   6.415   6.683  11.318 -0.2476 -0.8166 -0.9318
12128TIP3   OH257798   3.757   0.991  11.537  0.4297 -0.7363 -0.5167
12128TIP3    H157799   3.662   1.002  11.545  0.6128  0.7299 -0.0668
12128TIP3    H257800   3.777   0.918  11.596 -0.5418 -1.8177 -1.4727
12129TIP3   OH257801   3.512   6.490  12.861  0.1851 -0.2654 -0.4822
12129TIP3    H157802   3.481   6.499  12.771  1.9541  0.7323 -1.0557
12129TIP3    H257803   3.446   6.436  12.904 -2.0709  1.3641 -1.6655
12130TIP3   OH257804   3.358   3.072   2.646 -0.3853  0.5729  0.2897
12130TIP3    H157805   3.311   2.991   2.663 -0.7625  0.7601  0.1540
12130TIP3    H257806   3.333   3.130   2.719 -0.6616  0.7966  0.0231
12131TIP3   OH257807   4.675   0.914   0.433 -0.6054 -0.2711  0.1025
12131TIP3    H157808   4.750   0.974   0.432  0.7449 -1.8665  0.2024
12131TIP3    H257809   4.636   0.923   0.346 -1.6723  2.1636  0.7725
12132TIP3   OH257810   5.703   0.180  13.755  1.0439  0.0318 -0.5532
12132TIP3    H157811   5.657   0.195  13.673  0.7136  2.8336  0.0545
12132TIP3    H257812   5.700   0.085  13.767 -0.0018 -0.3426 -3.1019
12133TIP3   OH257813   5.206   4.211   2.254  0.4197 -0.5290  0.0112
12133TIP3    H157814   5.281   4.181   2.305  0.3653 -1.3026 -0.3515
12133TIP3    H257815   5.133   4.159   2.287 -0.3759  1.4242  1.6227
12134TIP3   OH257816   2.731   1.753   0.777 -0.0377  0.0419  0.1664
12134TIP3    H157817   2.790   1.828   0.789 -0.3710  0.5828 -1.2955
12134TIP3    H257818   2.718   1.748   0.682 -0.1237 -1.8163  0.2411
12135TIP3   OH257819   4.579   1.140   2.536 -0.4569  0.1001 -0.7756
12135TIP3    H157820   4.638   1.214   2.526 -0.0665  0.1674  1.5236
12135TIP3    H257821   4.636   1.064   2.543 -0.3681  0.3255  3.0379
12136TIP3   OH257822   4.550   5.256   0.649  0.5072 -0.0258 -0.0589
12136TIP3    H157823   4.592   5.297   0.573  1.7159 -0.8767  0.1331
12136TIP3    H257824   4.520   5.171   0.618  0.2386 -0.0298  0.2010
12137TIP3   OH257825   5.085   3.303  16.450 -0.5021 -0.3782 -0.1628
12137TIP3    H157826   5.132   3.346  16.379 -0.3301  0.9646  0.7397
12137TIP3    H257827   5.019   3.249  16.405  0.3992 -0.5214 -1.3597
12138TIP3   OH257828   3.730   3.955   2.306 -0.5718 -0.1845 -0.4179
12138TIP3    H157829   3.679   3.879   2.277  0.3736 -1.2842  0.6739
12138TIP3    H257830   3.816   3.920   2.327  0.3272  1.4467 -1.1616
12139TIP3   OH257831   1.141   1.294   2.610 -0.0424 -0.2209 -0.0633
12139TIP3    H157832   1.081   1.358   2.572  1.7993  0.3250 -2.3059
12139TIP3    H257833   1.223   1.342   2.623  0.2854 -1.2074  1.8666
12140TIP3   OH257834   0.375   5.669  14.465  0.3823 -0.0220  0.0076
12140TIP3    H157835   0.457   5.686  14.510  0.8495  0.3166 -0.9418
12140TIP3    H257836   0.330   5.753  14.463  0.3498 -0.0422 -0.1315
12141TIP3   OH257837   6.574   3.675  14.527  0.1946  0.6918 -0.6230
12141TIP3    H157838   6.665   3.670  14.499  0.0853  0.3279 -0.9224
12141TIP3    H257839   6.526   3.699  14.448  0.0835  1.3773 -0.3575
12142TIP3   OH257840   5.016   1.965   5.448 -0.1066  0.2112  0.7247
12142TIP3    H157841   4.925   1.974   5.419 -0.3233 -1.7172  0.6439
12142TIP3    H257842   5.056   1.907   5.382  1.5057  1.8774  0.1553
12143TIP3   OH257843   1.948   6.032   3.733  0.4219  0.7427 -0.3097
12143TIP3    H157844   1.901   5.950   3.718  2.9224 -0.7671 -0.5630
12143TIP3    H257845   1.960   6.036   3.828  0.2005  0.8700 -0.2875
12144TIP3   OH257846   0.094   1.960   2.802  0.2599  0.7621 -0.3066
12144TIP3    H157847   0.133   2.044   2.779 -0.1427  0.8769 -0.5753
12144TIP3    H257848   0.072   1.920   2.718 -1.3849  1.2635 -0.1469
12145TIP3   OH257849   4.217   1.793   5.902 -0.0386  0.1559  0.3503
12145TIP3    H157850   4.146   1.731   5.886 -0.2328  0.5200 -0.2307
12145TIP3    H257851   4.174   1.879   5.907  0.1170  0.1620  2.0528
12146TIP3   OH257852   3.392   0.106  12.970  0.3214  0.3606 -0.1635
12146TIP3    H157853   3.405   0.171  12.901 -0.5295 -1.9485 -2.6791
12146TIP3    H257854   3.306   0.128  13.008  0.7134  1.5363  0.0931
12147TIP3   OH257855   1.575   6.229   5.680  0.0411 -0.4466  0.3960
12147TIP3    H157856   1.662   6.228   5.721 -0.2241  1.3723  1.1106
12147TIP3    H257857   1.531   6.152   5.715  0.8544 -0.5534  1.2236
12148TIP3   OH257858   4.566   4.613   0.468 -0.3542 -0.1880  0.4820
12148TIP3    H157859   4.598   4.538   0.418 -2.6727 -0.2139 -1.1496
12148TIP3    H257860   4.491   4.578   0.516  0.3578  0.4393  2.1178
12149TIP3   OH257861   5.859   2.306   3.025  0.7024  0.2034 -0.0997
12149TIP3    H157862   5.769   2.304   3.058  0.6335 -1.0047 -0.3148
12149TIP3    H257863   5.856   2.365   2.950  0.5415  1.7913  1.1045
12150TIP3   OH257864   5.614   0.075   6.633  0.1997 -0.4914 -0.0916
12150TIP3    H157865   5.655   0.010   6.577 -0.8684 -1.9621  0.7677
12150TIP3    H257866   5.556   0.125   6.575  1.8717  0.5315 -0.9846
12151TIP3   OH257867   0.629   5.081   0.525 -0.2578 -0.1862 -0.3553
12151TIP3    H157868   0.706   5.090   0.581  0.3771  1.6307 -1.4459
12151TIP3    H257869   0.559   5.056   0.585  0.7268  0.1603  0.9920
12152TIP3   OH257870   0.875   0.850   5.703 -0.3955  0.8564 -0.2840
12152TIP3    H157871   0.788   0.857   5.666  0.2197  0.8046 -1.8162
12152TIP3    H257872   0.909   0.939   5.705 -0.8316  1.0196  1.2761
12153TIP3   OH257873   4.599   0.799   4.301  0.0690  0.1236  0.2670
12153TIP3    H157874   4.518   0.758   4.271  1.4645 -2.4511 -0.3355
12153TIP3    H257875   4.624   0.857   4.229 -1.1638  0.8831  0.4252
12154TIP3   OH257876   1.362   3.949  15.250 -0.1794  0.0046  0.5799
12154TIP3    H157877   1.449   3.908  15.254  0.3600  1.0341 -0.1129
12154TIP3    H257878   1.367   4.007  15.174 -0.7631  1.6307  1.7352
12155TIP3   OH257879   4.572   3.007   2.529 -0.4325 -0.4504 -0.6785
12155TIP3    H157880   4.571   2.961   2.613  1.3274  0.9312  0.1691
12155TIP3    H257881   4.491   3.058   2.529 -0.7119 -0.8791 -0.0624
12156TIP3   OH257882   3.764   6.120   1.796 -0.0158 -0.1503  0.0664
12156TIP3    H157883   3.807   6.156   1.874 -1.6250  0.9930  0.4774
12156TIP3    H257884   3.677   6.159   1.796 -0.6666 -1.4846 -1.3742
12157TIP3   OH257885   6.422   1.203  12.753 -0.5977  1.2034  0.5919
12157TIP3    H157886   6.479   1.159  12.690 -0.5499  2.5195 -0.3266
12157TIP3    H257887   6.375   1.132  12.797 -1.9834  0.2471 -2.1798
12158TIP3   OH257888   2.439   3.969   5.502  0.3854  0.4179 -0.2257
12158TIP3    H157889   2.461   3.901   5.438 -1.1487  1.2333 -1.7172
12158TIP3    H257890   2.447   4.051   5.454  0.9261  1.2129  1.1692
12159TIP3   OH257891   1.298   5.746   3.980  0.0088 -0.5921  0.1270
12159TIP3    H157892   1.227   5.743   4.044  0.4999 -0.5027  0.6859
12159TIP3    H257893   1.290   5.664   3.931 -0.4610 -0.5939  0.2041
12160TIP3   OH257894   3.398   4.008   0.538 -0.0558  0.3889  0.1074
12160TIP3    H157895   3.381   3.929   0.589  2.4257  0.4590  1.1656
12160TIP3    H257896   3.311   4.043   0.518 -1.1494 -0.9794  2.1734
12161TIP3   OH257897   1.693   2.186  12.423 -0.4357  0.9883  0.1410
12161TIP3    H157898   1.620   2.163  12.365 -0.1084  2.4329 -0.8900
12161TIP3    H257899   1.772   2.163  12.373 -0.1584  1.6601  0.2584
12162TIP3   OH257900   5.170   6.014   1.041 -0.3684 -0.2400  0.6951
12162TIP3    H157901   5.230   6.082   1.071  0.9701 -0.1829 -1.8240
12162TIP3    H257902   5.226   5.948   1.001 -1.7732 -2.0110  1.4968
12163TIP3   OH257903   3.943   4.901  16.206 -0.1907  0.1058  0.2694
12163TIP3    H157904   3.929   4.848  16.127 -0.9920  0.5034  0.1316
12163TIP3    H257905   3.867   4.883  16.261 -0.1020  0.5449  0.5408
12164TIP3   OH257906   4.957   2.161  12.294  0.3500  0.2529  0.1173
12164TIP3    H157907   4.996   2.161  12.207  0.1467  0.5373  0.0232
12164TIP3    H257908   4.871   2.121  12.281  0.7804 -0.8014  0.4084
12165TIP3   OH257909   4.977   5.904   4.772 -0.2801  0.7024  0.4484
12165TIP3    H157910   5.071   5.889   4.759 -0.9642 -3.4637 -1.0299
12165TIP3    H257911   4.939   5.896   4.685 -2.3752 -2.3859  1.4825
12166TIP3   OH257912   0.662   1.785   2.696 -0.3021  0.2004 -0.1829
12166TIP3    H157913   0.669   1.757   2.605 -2.6669 -1.4499  0.0563
12166TIP3    H257914   0.612   1.867   2.692 -0.0559  0.3394 -0.4033
12167TIP3   OH257915   3.437   4.601  17.196 -0.0634  0.3393  0.0362
12167TIP3    H157916   3.427   4.506  17.192 -1.3457  0.4929 -2.5390
12167TIP3    H257917   3.349   4.635  17.179  0.5773  2.0035 -0.1346
12168TIP3   OH257918   3.124   6.115   4.107 -0.6204 -0.1754 -0.0712
12168TIP3    H157919   3.050   6.148   4.157  0.2620 -1.5164  2.2832
12168TIP3    H257920   3.099   6.026   4.082  0.1082 -0.5806  0.6065
12169TIP3   OH257921   2.932   6.185  12.465 -0.2919 -0.3247 -0.5655
12169TIP3    H157922   2.971   6.158  12.382  0.2662 -0.7185 -0.1752
12169TIP3    H257923   2.843   6.212  12.442  0.6570  2.0630 -1.7334
12170TIP3   OH257924   5.746   4.866  14.280 -0.8982  0.2795  0.6229
12170TIP3    H157925   5.754   4.852  14.185 -1.2630 -0.4412  0.6876
12170TIP3    H257926   5.677   4.805  14.307 -2.6118  2.2292  0.9599
12171TIP3   OH257927   5.140   4.176   5.186 -0.5087  0.5385 -0.5475
12171TIP3    H157928   5.178   4.098   5.227 -0.4379  0.8653  0.0241
12171TIP3    H257929   5.046   4.161   5.187 -0.5574  0.8334  0.3682
12172TIP3   OH257930   6.373   6.409  16.229 -0.6141 -0.1100 -0.0092
12172TIP3    H157931   6.456   6.361  16.234 -0.4672  0.1426  0.0096
12172TIP3    H257932   6.312   6.347  16.189 -0.0356  0.1982 -1.4336
12173TIP3   OH257933   6.742   6.261  16.842  0.7149  0.2122 -0.9374
12173TIP3    H157934   6.722   6.184  16.789  0.7798 -1.2714  1.1043
12173TIP3    H257935   6.673   6.324  16.819  0.8145 -0.3113 -2.8317
12174TIP3   OH257936   2.976   3.544   2.243 -0.0549  0.0577 -0.0251
12174TIP3    H157937   3.062   3.522   2.280  0.2121  0.6472 -0.2819
12174TIP3    H257938   2.994   3.617   2.184 -0.5886 -0.3995 -0.7673
12175TIP3   OH257939   2.255   0.519  11.158  0.1684 -0.1819  0.2133
12175TIP3    H157940   2.272   0.612  11.171 -1.2230  0.3120 -1.1598
12175TIP3    H257941   2.214   0.491  11.240  2.6753 -0.2009  1.5452
12176TIP3   OH257942   4.751   3.636  10.532 -0.3860  0.4338  0.4834
12176TIP3    H157943   4.706   3.721  10.534  0.2795  0.7752  2.2465
12176TIP3    H257944   4.684   3.573  10.559 -0.4917  0.6004  0.6164
12177TIP3   OH257945   6.364   5.742   3.309 -0.0793 -0.1673 -0.2530
12177TIP3    H157946   6.308   5.738   3.386 -0.7446  1.0593 -0.6444
12177TIP3    H257947   6.373   5.836   3.290 -0.2646 -0.4485 -1.8960
12178TIP3   OH257948   5.463   1.348   0.966  0.1735  0.4925  0.1300
12178TIP3    H157949   5.508   1.337   0.882  0.1527 -0.4299  0.2220
12178TIP3    H257950   5.495   1.431   1.000 -0.0465  1.0303 -0.9239
12179TIP3   OH257951   3.122   1.697   4.852 -0.0791 -0.4713 -0.6037
12179TIP3    H157952   3.174   1.767   4.892 -1.4279 -0.6290  1.6136
12179TIP3    H257953   3.184   1.649   4.798  1.2847  1.3556 -0.7702
12180TIP3   OH257954   3.689   3.993   1.905 -0.2417 -0.0902  0.2435
12180TIP3    H157955   3.721   4.078   1.933 -0.0239  0.3111 -1.1509
12180TIP3    H257956   3.755   3.931   1.936  0.2220  0.3842  0.2074
12181TIP3   OH257957   4.281   0.719  13.314  0.4658 -0.1358  0.0784
12181TIP3    H157958   4.257   0.629  13.291  1.0417 -0.7018  1.5436
12181TIP3    H257959   4.370   0.711  13.349  0.8811  1.1583 -0.6232
12182TIP3   OH257960   0.276   3.228  12.062 -0.3804 -0.2702  0.7616
12182TIP3    H157961   0.239   3.316  12.069  1.1260  0.6091 -1.3012
12182TIP3    H257962   0.209   3.178  12.015 -0.3929  0.3539  0.1013
12183TIP3   OH257963   0.947   2.299  15.248 -0.1737 -0.4086  0.5090
12183TIP3    H157964   1.038   2.321  15.228  0.2317 -0.7915  1.8053
12183TIP3    H257965   0.954   2.228  15.312 -1.4034 -1.5523 -0.5644
12184TIP3   OH257966   1.787   4.143   0.413  0.0198 -0.0786  0.4742
12184TIP3    H157967   1.859   4.198   0.442  0.7704 -0.8503  0.1183
12184TIP3    H257968   1.827   4.058   0.396 -0.5246  0.0361 -1.8244
12185TIP3   OH257969   5.383   2.475   4.825 -0.4477  0.2315 -0.7161
12185TIP3    H157970   5.317   2.529   4.869 -0.9046 -0.7329 -0.1516
12185TIP3    H257971   5.332   2.402   4.788  0.3712 -1.1572  0.7270
12186TIP3   OH257972   3.359   5.195   0.454  0.3381 -0.0192  0.8444
12186TIP3    H157973   3.415   5.160   0.523  0.4714  0.3127  0.9054
12186TIP3    H257974   3.397   5.280   0.433 -0.0753  0.1575  0.8031
12187TIP3   OH257975   5.918   1.272  13.110  0.3919 -0.1662  0.0247
12187TIP3    H157976   5.871   1.306  13.034  0.2759 -1.5011 -0.5330
12187TIP3    H257977   5.985   1.215  13.073  1.2874  0.3063  0.8852
12188TIP3   OH257978   4.867   4.039   0.442 -0.1434  0.4206  0.1442
12188TIP3    H157979   4.858   4.134   0.437 -0.2744  0.4949  1.4126
12188TIP3    H257980   4.798   4.012   0.503  0.0199 -0.4609 -0.0504
12189TIP3   OH257981   0.761   5.390  12.862 -0.0239 -0.3066  0.1183
12189TIP3    H157982   0.731   5.305  12.832  0.2211 -0.4557  0.2937
12189TIP3    H257983   0.721   5.401  12.948 -3.4292  1.5420 -1.5302
12190TIP3   OH257984   2.445   6.376  16.353 -0.3873 -0.2719 -0.2131
12190TIP3    H157985   2.427   6.434  16.427 -0.8467 -1.3272  0.5318
12190TIP3    H257986   2.359   6.362  16.312 -0.4153 -1.0165  0.0784
12191TIP3   OH257987   2.883   6.506  16.501  0.5398  0.2868 -0.4766
12191TIP3    H157988   2.863   6.418  16.532 -2.1377  0.7688 -0.6094
12191TIP3    H257989   2.959   6.495  16.444  0.3313 -1.9133 -0.4117
12192TIP3   OH257990   4.833   1.994  16.079 -0.1819  0.3539  0.2400
12192TIP3    H157991   4.757   2.041  16.113 -0.0645  1.1728 -0.5856
12192TIP3    H257992   4.893   2.063  16.050 -0.1033 -0.2889 -1.2340
12193TIP3   OH257993   4.837   5.338  12.401  0.2280  0.2639  0.4398
12193TIP3    H157994   4.903   5.276  12.369  2.5201  2.4564  0.6188
12193TIP3    H257995   4.791   5.289  12.470 -0.4145 -2.3160 -1.6415
12194TIP3   OH257996   6.704   6.054   5.706 -0.0713  0.0486 -0.1494
12194TIP3    H157997   6.706   5.982   5.769  1.1508 -0.5407 -0.8065
12194TIP3    H257998   6.651   6.122   5.747 -4.3232 -2.4648 -0.9288
12195TIP3   OH257999   6.727   0.514  15.020 -0.0466 -0.0569 -0.2152
12195TIP3    H158000   6.768   0.495  15.105 -1.6540  2.4042  1.2825
12195TIP3    H258001   6.749   0.606  15.003 -1.2835  0.0484 -1.5116
12196TIP3   OH258002   6.282   1.256   3.755  0.3952 -0.1240 -0.0007
12196TIP3    H158003   6.348   1.294   3.698  1.5605 -2.4658 -0.3427
12196TIP3    H258004   6.309   1.280   3.844  2.0219 -1.4351 -0.1033
12197TIP3   OH258005   4.427   6.696   1.577  0.1136 -0.2342 -0.0207
12197TIP3    H158006   4.491   6.675   1.510  0.0518  2.8635 -1.1895
12197TIP3    H258007   4.456   6.779   1.614 -2.4091  0.5529  0.4151
12198TIP3   OH258008   0.782   6.656   4.663  0.0948  0.3515 -0.0276
12198TIP3    H158009   0.707   6.685   4.611 -0.9242 -0.3772  0.9746
12198TIP3    H258010   0.783   6.714   4.739 -2.4658 -2.4678  2.4190
12199TIP3   OH258011   3.665   3.685   6.081  0.0800 -0.3043 -0.0845
12199TIP3    H158012   3.685   3.762   6.029 -0.6973 -0.5286 -0.7470
12199TIP3    H258013   3.590   3.645   6.037 -0.9376 -0.2250  1.4964
12200TIP3   OH258014   5.790   3.730   6.055  0.3875  0.3535  0.4030
12200TIP3    H158015   5.831   3.663   6.110 -2.1125 -0.3420  1.5280
12200TIP3    H258016   5.858   3.797   6.045  2.0117 -1.0225  1.5727
12201TIP3   OH258017   1.701   1.731  11.479 -0.0229 -0.0773  0.0012
12201TIP3    H158018   1.732   1.814  11.515  0.0329 -0.7883  1.7109
12201TIP3    H258019   1.605   1.736  11.487  0.0046 -0.3537  0.5573
12202TIP3   OH258020   0.236   1.200   5.051  0.0563  0.8316  0.0063
12202TIP3    H158021   0.201   1.131   5.108 -0.5034 -0.0413 -1.3384
12202TIP3    H258022   0.249   1.275   5.109  0.7838 -0.4174  1.5353
12203TIP3   OH258023   3.557   3.805   6.296  0.1411 -0.7209  0.1735
12203TIP3    H158024   3.529   3.750   6.370  0.7469 -1.7768 -0.3564
12203TIP3    H258025   3.588   3.743   6.231  0.1862  0.2335 -0.7412
12204TIP3   OH258026   1.064   1.657  14.384 -0.4063  0.2544 -0.3295
12204TIP3    H158027   1.126   1.601  14.431 -0.8629  0.8401  1.0532
12204TIP3    H258028   1.066   1.626  14.294 -0.9531 -2.2899  0.4519
12205TIP3   OH258029   1.045   3.400  17.082 -0.0764 -0.8262  0.0515
12205TIP3    H158030   1.067   3.394  17.174  1.1601  0.3051 -0.1382
12205TIP3    H258031   1.059   3.311  17.048 -1.1213 -1.3915  1.0439
12206TIP3   OH258032   3.475   4.486  16.157 -0.2477  0.3440  0.0201
12206TIP3    H158033   3.434   4.419  16.212  0.1486 -1.1543 -1.4092
12206TIP3    H258034   3.424   4.485  16.076  1.0209  0.2566 -0.8082
12207TIP3   OH258035   3.090   6.525   2.701  0.3410  0.1030  0.0003
12207TIP3    H158036   3.058   6.443   2.664 -2.0441  0.7593  0.4248
12207TIP3    H258037   3.145   6.499   2.775 -1.1445 -1.1255  0.7139
12208TIP3   OH258038   2.603   3.711  14.979  0.2163 -0.7029 -0.0927
12208TIP3    H158039   2.645   3.628  14.960  1.4397 -1.1310  3.6460
12208TIP3    H258040   2.524   3.688  15.027 -1.0047  0.2814 -1.5385
12209TIP3   OH258041   2.620   0.585  17.033 -0.3546  0.0972  0.0709
12209TIP3    H158042   2.541   0.616  17.077 -0.3172  0.8307 -0.3553
12209TIP3    H258043   2.591   0.510  16.980 -0.5075 -0.4297  0.8891
12210TIP3   OH258044   1.149   6.248  17.175  0.1851 -0.8681  0.2382
12210TIP3    H158045   1.107   6.295  17.248  0.8332  0.5170 -0.2412
12210TIP3    H258046   1.224   6.303  17.152  0.9095 -2.1093 -0.4414
12211TIP3   OH258047   0.815   3.611   4.743  0.1856  0.0021  0.0927
12211TIP3    H158048   0.734   3.561   4.751  0.2329 -0.3445 -1.2882
12211TIP3    H258049   0.877   3.566   4.801 -0.4235 -0.1548  0.6202
12212TIP3   OH258050   3.814   0.584  16.657 -0.3688  0.1012 -1.4097
12212TIP3    H158051   3.849   0.664  16.695 -0.6555 -0.6601  0.5936
12212TIP3    H258052   3.724   0.579  16.691 -0.8897 -0.2873 -2.7812
12213TIP3   OH258053   5.329   2.322   4.086 -0.4397 -0.2012 -0.4376
12213TIP3    H158054   5.306   2.325   4.179  1.3294 -3.7392  0.2867
12213TIP3    H258055   5.413   2.369   4.080  0.3180 -1.4203  0.1656
12214TIP3   OH258056   4.832   2.382  15.193 -0.0765 -0.3939  0.1337
12214TIP3    H158057   4.800   2.330  15.266  1.8130 -2.6763 -0.5422
12214TIP3    H258058   4.927   2.373  15.196  0.1139  0.1732 -2.0738
12215TIP3   OH258059   5.017   0.241   3.190  0.4452  0.0694 -0.2053
12215TIP3    H158060   5.057   0.154   3.187  2.0656  0.7451  0.5458
12215TIP3    H258061   5.053   0.286   3.114  1.1325  0.6765  0.4610
12216TIP3   OH258062   4.604   4.212  15.094 -0.8445 -0.2902  0.2789
12216TIP3    H158063   4.558   4.128  15.090  0.6710 -1.1311 -1.5119
12216TIP3    H258064   4.696   4.190  15.079 -0.2958  1.6203  0.5124
12217TIP3   OH258065   1.159   2.482   1.282 -0.4122 -0.1113 -0.3014
12217TIP3    H158066   1.073   2.514   1.307 -0.8833 -0.8496 -0.9350
12217TIP3    H258067   1.220   2.548   1.315 -1.1710  0.1237  0.6639
12218TIP3   OH258068   5.477   3.196   2.894  0.2043  0.1517 -0.0612
12218TIP3    H158069   5.438   3.139   2.828  0.9061  0.6768 -0.9699
12218TIP3    H258070   5.544   3.142   2.936 -0.2986 -0.2097  0.2848
12219TIP3   OH258071   6.251   5.654  13.632  0.0250  0.0552 -0.3472
12219TIP3    H158072   6.291   5.692  13.710 -0.0252 -0.9465  0.1868
12219TIP3    H258073   6.161   5.687  13.633  0.7943  2.4562 -1.6474
12220TIP3   OH258074   4.360   1.357   1.307 -0.0904 -0.2312  0.1551
12220TIP3    H158075   4.435   1.300   1.290 -0.4831 -0.7538  0.1410
12220TIP3    H258076   4.340   1.344   1.400  1.1539  1.5283  0.7336
12221TIP3   OH258077   1.682   0.941  13.998 -0.6016 -0.4456 -0.7951
12221TIP3    H158078   1.662   0.964  14.088  0.0289 -1.9873 -0.2354
12221TIP3    H258079   1.729   1.017  13.963 -0.3902 -0.0474  0.3267
12222TIP3   OH258080   5.522   1.886   2.630  0.2592  0.5967 -0.1256
12222TIP3    H158081   5.563   1.822   2.573  1.4148  0.0438  1.2756
12222TIP3    H258082   5.432   1.854   2.642 -0.0937  0.8766 -1.8095
12223TIP3   OH258083   6.409   6.558  13.565  0.0365 -0.1494 -0.4944
12223TIP3    H158084   6.316   6.536  13.558  0.3467 -1.3468 -1.1962
12223TIP3    H258085   6.453   6.473  13.572  1.2604  0.2541 -2.4733
12224TIP3   OH258086   3.400   2.812   1.067  0.3203 -1.0075 -0.3858
12224TIP3    H158087   3.342   2.879   1.101  2.7929  0.5251  1.1518
12224TIP3    H258088   3.402   2.827   0.973  0.8737  1.2453 -0.0803
12225TIP3   OH258089   2.933   0.505   3.546  0.3641 -0.4078 -0.6949
12225TIP3    H158090   2.844   0.474   3.564  0.4565 -0.7499 -0.8170
12225TIP3    H258091   2.971   0.517   3.633  0.8374 -2.1459 -0.6204
12226TIP3   OH258092   6.529   3.959  12.269 -0.3967 -0.4682 -0.6478
12226TIP3    H158093   6.465   3.909  12.219  1.0948 -2.3822 -0.7536
12226TIP3    H258094   6.580   3.893  12.316 -0.2124  1.1246  1.5680
12227TIP3   OH258095   2.879   6.111  11.139 -0.2450  0.1902  0.3323
12227TIP3    H158096   2.974   6.117  11.133  0.0654 -2.9748  0.1352
12227TIP3    H258097   2.851   6.093  11.049 -1.0080  0.6658  0.4651
12228TIP3   OH258098   3.857   4.273  15.746 -0.6972 -0.4076 -0.6216
12228TIP3    H158099   3.845   4.182  15.772 -0.4890 -0.4235 -0.5831
12228TIP3    H258100   3.947   4.293  15.769 -1.3092  0.4392  1.2710
12229TIP3   OH258101   3.763   5.163   0.088  0.2114  0.1489  0.2631
12229TIP3    H158102   3.753   5.131   0.178  1.2500 -0.7655  0.0769
12229TIP3    H258103   3.852   5.199   0.085 -0.7682  2.7674  0.3374
12230TIP3   OH258104   2.500   5.437   2.629  0.9798 -0.2905  0.2080
12230TIP3    H158105   2.436   5.496   2.669  0.3301 -0.5851 -0.3791
12230TIP3    H258106   2.549   5.493   2.569  0.7144 -0.2434  0.0363
12231TIP3   OH258107   5.628   3.600  16.384  0.1711  0.5111  0.6732
12231TIP3    H158108   5.605   3.537  16.453  0.7488  0.2970  0.6771
12231TIP3    H258109   5.560   3.667  16.389 -0.2146  0.1084  0.9557
12232TIP3   OH258110   4.187   6.109  12.857 -0.0386  0.0782 -0.2102
12232TIP3    H158111   4.149   6.106  12.946  0.5793  1.0735  0.0944
12232TIP3    H258112   4.164   6.024  12.819 -2.6300  0.6369 -0.0648
12233TIP3   OH258113   4.019   2.650   2.377 -0.2948 -0.3015 -0.2295
12233TIP3    H158114   3.995   2.739   2.351 -0.8966 -0.4324 -0.1201
12233TIP3    H258115   4.075   2.662   2.454  0.2381  0.0120 -0.6540
12234TIP3   OH258116   1.056   3.411  15.790  0.9203 -0.0644 -0.1537
12234TIP3    H158117   1.114   3.470  15.840  0.1528  0.1526  0.5031
12234TIP3    H258118   1.019   3.353  15.856 -0.1126  0.2199 -0.4613
12235TIP3   OH258119   6.411   5.652  14.937 -0.5741 -0.2347 -0.0943
12235TIP3    H158120   6.468   5.676  15.010 -0.8083  1.8972 -0.5354
12235TIP3    H258121   6.323   5.656  14.973 -0.6065 -0.6678 -0.1265
12236TIP3   OH258122   1.118   4.353   2.927  0.3642  0.4164  0.4088
12236TIP3    H158123   1.183   4.296   2.885  1.1328  1.6611 -0.1485
12236TIP3    H258124   1.053   4.368   2.858 -1.2860 -1.8598  1.3364
12237TIP3   OH258125   6.238   0.091   1.047  0.1804 -0.1158  1.1026
12237TIP3    H158126   6.169   0.149   1.079  2.0105  2.8011  0.2279
12237TIP3    H258127   6.192   0.026   0.994 -1.9099  2.1356 -0.0558
12238TIP3   OH258128   4.409   0.771  16.201  0.0747 -0.2686  0.0465
12238TIP3    H158129   4.480   0.834  16.212  0.8789 -1.2580  0.7218
12238TIP3    H258130   4.449   0.699  16.153 -0.2681 -1.1532  1.0563
12239TIP3   OH258131   4.564   0.315  16.879  0.6804 -0.4757  0.0596
12239TIP3    H158132   4.593   0.224  16.867  1.6306 -0.3267  1.0419
12239TIP3    H258133   4.598   0.339  16.965 -0.7815  0.3645  0.4247
12240TIP3   OH258134   3.419   0.508   1.455 -0.1709  0.2387 -0.3217
12240TIP3    H158135   3.382   0.501   1.543  1.0085 -0.0981  0.1651
12240TIP3    H258136   3.512   0.489   1.467  0.9325  4.4033 -0.9288
12241TIP3   OH258137   0.608   2.339  15.512  0.1039  0.0581 -0.1955
12241TIP3    H158138   0.525   2.377  15.483 -0.3965 -2.1393 -1.9132
12241TIP3    H258139   0.595   2.320  15.605 -0.6279  1.3755  0.0015
12242TIP3   OH258140   5.534   0.040   3.304  0.2252 -0.0985 -0.0444
12242TIP3    H158141   5.492   0.123   3.279 -1.2691 -0.4829  1.0296
12242TIP3    H258142   5.563   0.054   3.395  0.3933 -0.5886 -0.0177
12243TIP3   OH258143   2.707   2.155   3.942  0.6093  0.2102 -0.6113
12243TIP3    H158144   2.796   2.177   3.914  0.8182  0.8971  0.5130
12243TIP3    H258145   2.709   2.061   3.959  0.9554  0.1188 -1.1333
12244TIP3   OH258146   1.787   2.158   0.983  0.0082 -0.1716  0.0207
12244TIP3    H158147   1.847   2.102   1.033  0.1880  0.8432  0.9833
12244TIP3    H258148   1.789   2.122   0.895  2.1022 -0.1243  0.0027
12245TIP3   OH258149   6.097   2.900   3.928 -0.7172  0.3354  0.1156
12245TIP3    H158150   6.041   2.824   3.948 -2.1930  1.4630  0.4227
12245TIP3    H258151   6.074   2.922   3.838 -1.3744  1.2746  0.4960
12246TIP3   OH258152   4.358   0.367  13.892  0.4935 -0.4876 -0.2767
12246TIP3    H158153   4.423   0.391  13.958 -0.4291  0.2919  0.3813
12246TIP3    H258154   4.275   0.398  13.929 -0.5268 -3.0152 -0.2428
12247TIP3   OH258155   6.325   4.261  11.345  0.0566 -0.1388  0.5529
12247TIP3    H158156   6.265   4.333  11.323 -0.9651 -1.2070 -0.2933
12247TIP3    H258157   6.391   4.263  11.276 -0.6758 -0.7549 -0.1938
12248TIP3   OH258158   2.293   1.949  16.665 -0.3417 -0.2995  0.2410
12248TIP3    H158159   2.238   2.007  16.611 -0.5423  0.7803  1.5524
12248TIP3    H258160   2.231   1.906  16.724 -0.0993 -1.3223 -0.2300
12249TIP3   OH258161   5.251   1.894  17.372  0.0357 -0.2029 -0.0340
12249TIP3    H158162   5.176   1.953  17.364  0.4622  0.2238 -1.1341
12249TIP3    H258163   5.217   1.817  17.417 -0.5958  0.7774  1.2349
12250TIP3   OH258164   3.958   4.470  10.922 -0.5379 -0.0137 -0.1299
12250TIP3    H158165   3.885   4.519  10.958 -0.4616  0.3104 -0.4193
12250TIP3    H258166   4.036   4.519  10.949 -0.4343 -0.2571  0.0207
12251TIP3   OH258167   1.394   1.289   1.564 -0.2608  0.1487 -0.5277
12251TIP3    H158168   1.370   1.365   1.512 -1.0475 -0.9094 -1.7679
12251TIP3    H258169   1.486   1.273   1.542 -0.4243  0.0526 -1.1717
12252TIP3   OH258170   2.128   0.718  15.746 -0.1053  0.3238 -0.1260
12252TIP3    H158171   2.072   0.661  15.694  1.4672  0.8953 -2.6250
12252TIP3    H258172   2.215   0.680  15.739  0.3468  1.0038  1.3052
12253TIP3   OH258173   0.026   0.872  15.393  0.5192  0.9227  0.1812
12253TIP3    H158174   0.009   0.931  15.466 -1.0892  0.1853  0.4447
12253TIP3    H258175  -0.032   0.797  15.408  1.8305 -0.3153 -0.6339
12254TIP3   OH258176   2.036   6.080  13.020  0.3633  0.2888 -0.2241
12254TIP3    H158177   2.002   6.169  13.029 -0.9232 -0.1690 -0.2724
12254TIP3    H258178   2.124   6.091  12.985 -0.0846  1.5137 -1.0283
12255TIP3   OH258179   2.502   2.644   2.875 -0.7202 -0.2275 -0.1965
12255TIP3    H158180   2.416   2.633   2.914 -0.4933  0.2030  0.4486
12255TIP3    H258181   2.562   2.605   2.938 -0.2713  1.2150  0.2996
12256TIP3   OH258182   5.353   0.475  12.259 -0.1080 -0.6768  0.2508
12256TIP3    H158183   5.378   0.564  12.237  2.4646 -1.4243 -0.2143
12256TIP3    H258184   5.259   0.480  12.280  0.2511  2.3345  1.5905
12257TIP3   OH258185   5.573   1.333  12.532  0.3672 -0.0768 -0.1050
12257TIP3    H158186   5.521   1.413  12.542  2.2223  1.3750 -1.4184
12257TIP3    H258187   5.541   1.294  12.451  0.6524  0.2869 -0.3953
12258TIP3   OH258188   3.609   0.717  17.421 -0.2042 -0.2216  0.1910
12258TIP3    H158189   3.548   0.714  17.495 -1.7638  0.1773 -1.0228
12258TIP3    H258190   3.611   0.627  17.387 -1.0488 -0.0015 -0.4723
12259TIP3   OH258191   6.480   0.739   3.674  0.6173 -0.0739  0.1595
12259TIP3    H158192   6.418   0.812   3.680  1.5872  0.8064 -0.3417
12259TIP3    H258193   6.511   0.741   3.583 -0.1786 -1.8225 -0.1919
12260TIP3   OH258194   0.874   5.295  12.559 -0.0985 -0.4397 -0.4930
12260TIP3    H158195   0.796   5.260  12.602 -0.0377 -0.4399 -0.3836
12260TIP3    H258196   0.929   5.218  12.543 -0.7477 -0.6545 -1.8766
12261TIP3   OH258197   4.912   2.850  11.331 -0.2722  0.4746  0.0602
12261TIP3    H158198   4.950   2.766  11.358 -0.8105  0.7066  1.6014
12261TIP3    H258199   4.921   2.850  11.236 -1.6112 -1.9965 -0.1473
12262TIP3   OH258200   3.323   4.011   2.270  0.2709  0.2894 -0.1090
12262TIP3    H158201   3.246   4.055   2.232 -1.9614 -2.3569  1.0117
12262TIP3    H258202   3.335   3.932   2.216  0.2383 -0.8985  1.5580
12263TIP3   OH258203   6.134   4.329  15.558  0.0731  0.2094  0.1563
12263TIP3    H158204   6.199   4.388  15.597  0.0745  0.6403 -0.4842
12263TIP3    H258205   6.072   4.388  15.514 -0.9814 -0.1679  1.0872
12264TIP3   OH258206   2.038   4.544  17.088  1.1866  0.1417 -0.1142
12264TIP3    H158207   2.007   4.617  17.143  1.3581  0.4294 -0.3929
12264TIP3    H258208   2.087   4.489  17.148  2.8588  1.3533 -0.2970
12265TIP3   OH258209   0.081   1.788  10.212  0.2774  0.4851 -0.9044
12265TIP3    H158210   0.045   1.703  10.188  0.0545  0.5139 -0.6821
12265TIP3    H258211   0.156   1.768  10.268 -0.0720  0.4404 -0.4470
12266TIP3   OH258212   3.481   4.582   4.153 -0.0990  0.3898 -0.3130
12266TIP3    H158213   3.512   4.516   4.091  0.1898 -0.1674  0.4090
12266TIP3    H258214   3.391   4.555   4.173  1.0182 -1.8061  2.5134
12267TIP3   OH258215   1.242   6.460   2.613 -0.2085 -0.3652 -0.4662
12267TIP3    H158216   1.270   6.527   2.676  1.9269 -0.0178 -1.6920
12267TIP3    H258217   1.259   6.377   2.658  0.1121 -0.1063 -0.0961
12268TIP3   OH258218   5.286   1.964   5.733 -0.0287  0.5230  0.3199
12268TIP3    H158219   5.191   1.955   5.743 -0.1401 -0.3463 -1.1679
12268TIP3    H258220   5.321   1.939   5.818 -0.9796 -3.3088 -0.2316
12269TIP3   OH258221   3.381   1.712   4.317  0.0159 -0.5041  0.0316
12269TIP3    H158222   3.403   1.622   4.295 -0.2788 -0.7071  0.5514
12269TIP3    H258223   3.317   1.705   4.387  0.1920  0.1119  0.2648
12270TIP3   OH258224   2.604   1.021  16.066 -0.0283 -0.5560 -0.2652
12270TIP3    H158225   2.579   0.940  16.111  0.2044  0.1453  1.1859
12270TIP3    H258226   2.627   0.993  15.977  1.1669 -2.2591  0.5176
12271TIP3   OH258227   5.781   4.294  15.014 -0.2353  0.0580  0.5682
12271TIP3    H158228   5.775   4.305  15.109  0.1356  0.4125  0.5538
12271TIP3    H258229   5.816   4.378  14.983 -2.4203  0.7800 -0.1204
12272TIP3   OH258230   5.660   1.599  16.183  0.1318 -0.2358 -0.0155
12272TIP3    H158231   5.652   1.611  16.089 -0.0203 -1.3109 -0.1534
12272TIP3    H258232   5.631   1.682  16.221 -2.6763 -0.7314 -0.8178
12273TIP3   OH258233   5.954   0.496   2.502  0.0575  0.1557 -0.0193
12273TIP3    H158234   5.876   0.468   2.550  0.7370  1.6700  2.1215
12273TIP3    H258235   6.027   0.450   2.544  0.4925 -0.1334 -1.0413
12274TIP3   OH258236   2.882   3.263   1.675  0.0992 -0.1470 -0.0262
12274TIP3    H158237   2.815   3.269   1.743  0.5707  0.5526  0.3920
12274TIP3    H258238   2.934   3.187   1.698 -1.7218 -1.9423 -1.4601
12275TIP3   OH258239   3.056   4.907   4.106 -0.3628 -0.6698 -0.3645
12275TIP3    H158240   3.052   4.813   4.126 -0.3570 -0.2909  1.6869
12275TIP3    H258241   3.018   4.949   4.183  1.0848  1.0737 -0.5366
12276TIP3   OH258242   1.696   6.424   1.977  0.1004 -0.1740 -0.1897
12276TIP3    H158243   1.735   6.444   2.061 -0.2289 -1.7355  0.3700
12276TIP3    H258244   1.769   6.401   1.920  0.2129 -0.5480  0.1038
12277TIP3   OH258245   2.720   2.668  12.589  0.3708  0.3872 -0.3074
12277TIP3    H158246   2.762   2.618  12.659  2.3504 -0.0640 -1.7329
12277TIP3    H258247   2.762   2.754  12.593  1.9929 -0.2712 -2.1683
12278TIP3   OH258248   4.433   4.262   2.664 -0.0559  0.3252  0.4168
12278TIP3    H158249   4.451   4.223   2.749  1.7341  1.0360  0.4130
12278TIP3    H258250   4.424   4.188   2.604  0.4637 -0.1408  0.9149
12279TIP3   OH258251   6.378   2.330  12.240  0.4104  0.6050 -0.1179
12279TIP3    H158252   6.444   2.295  12.300 -0.6480 -3.5519 -0.9914
12279TIP3    H258253   6.426   2.345  12.158  1.0243  2.0330  0.4696
12280TIP3   OH258254   4.985   5.897  11.864  0.1759 -0.3454 -0.0514
12280TIP3    H158255   5.012   5.987  11.847 -0.0309  0.0046  1.3321
12280TIP3    H258256   4.899   5.889  11.823 -1.0168  0.9537  2.0072
12281TIP3   OH258257   4.254   5.955   0.270  0.1921 -0.2218 -0.8452
12281TIP3    H158258   4.251   5.889   0.200  1.3018 -0.5357 -0.6194
12281TIP3    H258259   4.177   6.010   0.255  0.1053 -0.6280 -1.9694
12282TIP3   OH258260   5.419   3.091   5.423  0.3117  0.3016 -0.0230
12282TIP3    H158261   5.448   3.080   5.514  1.3221  0.8691 -0.2502
12282TIP3    H258262   5.495   3.130   5.379  0.1850 -0.8684 -1.3358
12283TIP3   OH258263   6.312   2.895  14.992 -0.0171 -0.3844  0.1977
12283TIP3    H158264   6.386   2.926  14.939  0.2503 -2.0171 -0.4493
12283TIP3    H258265   6.321   2.941  15.075  0.3568  1.2071 -0.6573
12284TIP3   OH258266   6.020   5.425   3.015  0.0053 -0.1124 -0.3207
12284TIP3    H158267   5.937   5.471   3.022 -0.7974 -1.4354 -0.7750
12284TIP3    H258268   6.085   5.487   3.048 -1.1246  1.0226 -0.1641
12285TIP3   OH258269   0.706   1.107  15.477 -0.0944 -0.1140  0.4247
12285TIP3    H158270   0.650   1.167  15.527 -2.5188  0.2058 -2.3482
12285TIP3    H258271   0.714   1.030  15.532 -2.1153  0.4313  1.5886
12286TIP3   OH258272   1.219   6.694   5.967  0.0703  0.4774 -0.4578
12286TIP3    H158273   1.149   6.669   5.907  0.5800  1.9425 -1.7329
12286TIP3    H258274   1.285   6.626   5.957 -0.2634  0.2092 -0.8471
12287TIP3   OH258275   4.796   2.551  14.437  0.6762 -0.2099  0.2314
12287TIP3    H158276   4.759   2.495  14.505  0.2172 -0.4007 -0.1737
12287TIP3    H258277   4.891   2.542  14.448  0.6063 -0.6371  0.5153
12288TIP3   OH258278   0.676   1.826  12.084  0.3967  0.2394 -0.0931
12288TIP3    H158279   0.616   1.867  12.022 -0.5510 -0.0622  0.5974
12288TIP3    H258280   0.763   1.853  12.055 -0.1450  2.2289 -0.0321
12289TIP3   OH258281   5.109   2.487  11.252 -0.1541 -0.3051 -0.1317
12289TIP3    H158282   5.098   2.544  11.328 -0.3790 -0.6472  0.0918
12289TIP3    H258283   5.199   2.456  11.257  0.1877  0.5569 -0.6220
12290TIP3   OH258284   3.798   1.848  15.114 -0.1441 -0.3365  0.6518
12290TIP3    H158285   3.752   1.924  15.077 -0.1020 -0.2569  0.7615
12290TIP3    H258286   3.747   1.773  15.084 -0.3634 -0.2468  0.7961
12291TIP3   OH258287   3.935   4.035   0.727  0.1235 -0.0949 -0.1348
12291TIP3    H158288   3.921   4.067   0.638  0.9260  1.8727  0.3906
12291TIP3    H258289   4.011   4.083   0.758  1.3081 -2.4557  0.8404
12292TIP3   OH258290   5.482   4.549   2.149  0.4155 -0.3357  0.0690
12292TIP3    H158291   5.471   4.622   2.089  0.0559 -0.2858  0.1961
12292TIP3    H258292   5.577   4.543   2.163  0.4922 -0.3027 -0.4444
12293TIP3   OH258293   3.411   0.742  16.808 -0.4707  0.2088 -0.2706
12293TIP3    H158294   3.479   0.808  16.795  0.8123 -0.8288  0.8696
12293TIP3    H258295   3.332   0.792  16.828 -0.3485  1.4892 -2.6304
12294TIP3   OH258296   0.313   4.261   3.674 -0.2242 -0.0817 -0.3506
12294TIP3    H158297   0.218   4.264   3.688 -0.0687  0.5792  0.6635
12294TIP3    H258298   0.328   4.316   3.597 -0.4508  1.6770  0.8083
12295TIP3   OH258299   1.942   0.007   0.988  0.0449 -0.4062  0.1788
12295TIP3    H158300   1.958  -0.032   0.902  0.0871 -0.6973  0.3179
12295TIP3    H258301   1.908  -0.064   1.041  0.8448 -0.4493  0.6591
12296TIP3   OH258302   4.816   0.812  15.232  0.4360  0.3357  0.0953
12296TIP3    H158303   4.810   0.879  15.300 -0.7603  0.4849 -0.1180
12296TIP3    H258304   4.901   0.771  15.245  1.1811  1.8690  0.2610
12297TIP3   OH258305   3.505   0.784  12.865 -0.0097 -0.6256 -0.7504
12297TIP3    H158306   3.546   0.706  12.827  0.4951 -0.6658 -0.1388
12297TIP3    H258307   3.470   0.832  12.790  0.9932 -0.6893 -1.2744
12298TIP3   OH258308   1.301   4.232  13.289  0.6090 -0.2422  0.1660
12298TIP3    H158309   1.353   4.304  13.326 -1.1707  0.4749  1.3983
12298TIP3    H258310   1.248   4.201  13.362 -0.0870 -1.5320 -0.8469
12299TIP3   OH258311   0.219   3.355   0.638 -0.3860 -0.2306  0.0020
12299TIP3    H158312   0.284   3.402   0.586 -1.0362 -0.4883 -1.0767
12299TIP3    H258313   0.264   3.276   0.668 -0.1162 -0.2728 -0.5056
12300TIP3   OH258314   2.723   3.698   2.324  0.1158 -0.0755  0.3599
12300TIP3    H158315   2.810   3.660   2.314  0.0394 -0.0182 -0.5728
12300TIP3    H258316   2.736   3.792   2.314 -0.0509 -0.0629  0.2581
12301TIP3   OH258317   3.136   5.844   1.172  0.0185 -0.1479  0.0115
12301TIP3    H158318   3.071   5.801   1.228 -0.7093 -0.8831 -1.3720
12301TIP3    H258319   3.102   5.932   1.159  0.3153  0.1112  0.8994
12302TIP3   OH258320   6.721   0.067   0.207 -0.2080 -0.2430 -0.1958
12302TIP3    H158321   6.672   0.020   0.274 -0.2446  0.0919  0.0158
12302TIP3    H258322   6.813   0.047   0.226 -0.2026  0.0887  0.1363
12303TIP3   OH258323   3.313   4.902   4.671 -0.2711 -0.5343 -0.0466
12303TIP3    H158324   3.394   4.920   4.718  0.3010 -0.3988 -1.0521
12303TIP3    H258325   3.244   4.907   4.738  0.4690  0.0351  0.6872
12304TIP3   OH258326   6.256   3.593   4.720 -0.8000 -0.4610  0.6872
12304TIP3    H158327   6.260   3.682   4.756 -1.1085 -0.3033  0.3397
12304TIP3    H258328   6.205   3.602   4.639  0.2992 -0.7136 -0.0718
12305TIP3   OH258329   0.651   1.001  13.006 -0.0004 -0.1820 -0.4776
12305TIP3    H158330   0.564   0.999  13.044  0.2094 -1.8839 -0.0200
12305TIP3    H258331   0.658   0.919  12.957  2.1022 -1.1890  1.3283
12306TIP3   OH258332   6.392   4.760  11.774  0.1305  0.4996 -0.3136
12306TIP3    H158333   6.431   4.737  11.859 -2.2713 -0.9147  0.5045
12306TIP3    H258334   6.441   4.838  11.746  3.0673 -0.7591  0.8484
12307TIP3   OH258335   0.890   0.103  17.051  0.3560 -0.1225  0.2365
12307TIP3    H158336   0.977   0.125  17.084  0.7640 -0.8047 -0.3694
12307TIP3    H258337   0.846   0.188  17.043  0.8578  0.2013  0.8216
12308TIP3   OH258338   6.713   3.465  14.884  0.1034 -0.4008 -0.2519
12308TIP3    H158339   6.691   3.414  14.961 -0.6509 -0.3593 -0.4304
12308TIP3    H258340   6.630   3.503  14.856  0.7675  1.6875  0.4137
12309TIP3   OH258341   4.427   2.676  16.105 -0.3976  0.2327 -0.0028
12309TIP3    H158342   4.338   2.708  16.095 -0.8600 -0.8366  0.5817
12309TIP3    H258343   4.446   2.686  16.198 -0.5253 -1.0859  0.1773
12310TIP3   OH258344   5.421   5.206  12.306  0.0268 -0.2166  0.7803
12310TIP3    H158345   5.382   5.204  12.394 -1.3509  0.5835  0.2161
12310TIP3    H258346   5.354   5.247  12.251  0.5241 -1.4623 -0.8245
12311TIP3   OH258347   3.467   5.696  12.801  0.1724 -0.8201 -0.3076
12311TIP3    H158348   3.521   5.617  12.811  0.4555 -0.4596  1.2949
12311TIP3    H258349   3.401   5.688  12.869  1.6505  1.4298  1.5474
12312TIP3   OH258350   4.032   3.556   5.927  0.0517  0.0742 -0.2335
12312TIP3    H158351   4.114   3.571   5.880  0.0818  1.1191  0.1362
12312TIP3    H258352   4.007   3.642   5.962 -2.0714  0.1608 -1.7472
12313TIP3   OH258353   0.803   3.819  13.558  0.1159 -0.3191 -0.4066
12313TIP3    H158354   0.769   3.729  13.556 -1.9712  0.4142  0.1539
12313TIP3    H258355   0.799   3.843  13.651  1.6417  0.0367 -0.4048
12314TIP3   OH258356   0.693   1.784   3.417  0.0624 -0.3195 -0.1329
12314TIP3    H158357   0.637   1.713   3.384  0.7682 -0.9616  0.0170
12314TIP3    H258358   0.650   1.814   3.497  0.8690 -2.0806  1.0204
12315TIP3   OH258359   4.710   6.667   6.231 -0.0974 -0.4242 -0.2822
12315TIP3    H158360   4.676   6.679   6.319 -1.0442 -1.0343 -0.5525
12315TIP3    H258361   4.740   6.576   6.228 -1.9758 -1.0504 -1.1943
12316TIP3   OH258362   4.430   4.143  13.349  0.2475  0.3634 -0.4157
12316TIP3    H158363   4.453   4.054  13.377 -1.3125 -0.4290 -1.5482
12316TIP3    H258364   4.480   4.199  13.408 -0.8628 -1.2321  2.2802
12317TIP3   OH258365   2.911   3.784  14.801  0.1347  0.2018 -0.6830
12317TIP3    H158366   2.979   3.842  14.767 -0.5968  0.0085 -2.5798
12317TIP3    H258367   2.867   3.751  14.723  0.4308 -2.8426  0.3215
12318TIP3   OH258368   5.994   1.603   2.185  0.2158 -0.6657  0.4003
12318TIP3    H158369   5.963   1.516   2.210  0.4237 -0.4199  1.5748
12318TIP3    H258370   5.916   1.659   2.188 -0.5705 -1.3054 -3.2241
12319TIP3   OH258371   1.660   4.786  11.537  0.4031 -0.4981 -0.0334
12319TIP3    H158372   1.668   4.796  11.442  1.1697 -2.9409 -0.3041
12319TIP3    H258373   1.577   4.739  11.550  0.1823  0.0259  0.5546
12320TIP3   OH258374   6.213   4.783  13.315  0.3195 -0.5389  0.2294
12320TIP3    H158375   6.295   4.758  13.359  0.3987  0.5639  0.7426
12320TIP3    H258376   6.235   4.864  13.268 -0.5723 -0.0194  0.6875
12321TIP3   OH258377   1.179   4.833  15.207 -0.3390 -0.4496  0.3564
12321TIP3    H158378   1.207   4.856  15.296  0.8661  1.8033 -0.5346
12321TIP3    H258379   1.174   4.737  15.208  1.5716 -0.6145  2.3058
12322TIP3   OH258380   2.191   2.407  14.049 -0.5860 -0.5378 -0.4178
12322TIP3    H158381   2.215   2.493  14.086  0.4459 -0.7715 -0.5311
12322TIP3    H258382   2.127   2.372  14.111 -1.1044  0.3592 -0.4286
12323TIP3   OH258383   4.828   4.529  10.988  0.6570 -0.3114  0.2669
12323TIP3    H158384   4.914   4.571  10.996  0.1280  0.9325 -0.4979
12323TIP3    H258385   4.836   4.472  10.912 -0.0858  2.1268 -1.7543
12324TIP3   OH258386   2.675   0.439  13.966  0.5550  0.2892 -0.2520
12324TIP3    H158387   2.742   0.431  14.034 -1.1617 -0.2568  1.4610
12324TIP3    H258388   2.661   0.350  13.935  1.2261  0.5187 -1.2791
12325TIP3   OH258389   6.646   5.989  17.032 -0.1608 -0.0686  0.0726
12325TIP3    H158390   6.597   5.986  16.950 -0.4876 -0.4582  0.2823
12325TIP3    H258391   6.737   5.978  17.006  0.0392  2.2507 -0.5024
12326TIP3   OH258392   1.202   1.778   1.431  0.0749 -0.6655 -0.2734
12326TIP3    H158393   1.261   1.801   1.359 -0.6618  0.7284 -0.4792
12326TIP3    H258394   1.132   1.843   1.425 -1.0977 -1.8390  0.4096
12327TIP3   OH258395   6.384   0.616  13.652  0.2897  0.0080 -0.2076
12327TIP3    H158396   6.445   0.546  13.633  0.2940  0.0833 -0.4677
12327TIP3    H258397   6.298   0.579  13.635  0.0742 -0.8352  2.2826
12328TIP3   OH258398   2.652   1.645   6.279 -0.1715  0.1295  0.1301
12328TIP3    H158399   2.648   1.698   6.358  1.2128 -1.1174  1.1188
12328TIP3    H258400   2.566   1.604   6.272 -1.3730  2.6411 -0.8369
12329TIP3   OH258401   6.732   5.090   3.311 -1.0425 -0.7607  0.4334
12329TIP3    H158402   6.803   5.145   3.278 -3.2137  0.7441 -2.1975
12329TIP3    H258403   6.728   5.017   3.249 -1.0783 -1.4608  1.2455
12330TIP3   OH258404   5.480   5.899  11.917 -0.1014 -0.5154 -0.0134
12330TIP3    H158405   5.413   5.968  11.915 -0.5323 -0.9298 -1.3232
12330TIP3    H258406   5.435   5.821  11.883  1.3308 -0.4915 -2.1945
12331TIP3   OH258407   6.077   0.557   0.277 -0.7980 -0.1696  0.4689
12331TIP3    H158408   6.171   0.543   0.289 -0.0028  3.0690 -0.7834
12331TIP3    H258409   6.044   0.575   0.365  0.0133 -0.1797  0.7818
12332TIP3   OH258410   3.030   0.215   2.442 -0.5992  0.5181 -0.3620
12332TIP3    H158411   3.080   0.241   2.365 -0.0898 -0.0099 -0.2179
12332TIP3    H258412   3.045   0.121   2.450 -0.7315  0.5461  0.3132
12333TIP3   OH258413   5.134   5.243  15.004 -0.4925  0.0034 -0.0275
12333TIP3    H158414   5.177   5.188  14.938  0.5113  2.1010 -1.2085
12333TIP3    H258415   5.076   5.300  14.953 -0.1999  1.2148  0.9617
12334TIP3   OH258416   1.750   0.232   1.346  0.0070  0.1017  0.0738
12334TIP3    H158417   1.707   0.195   1.270  0.2587 -0.7545  0.3392
12334TIP3    H258418   1.837   0.258   1.315 -1.0607  3.0638 -0.8030
12335TIP3   OH258419   5.291   1.833   0.298 -0.3973  0.1040 -0.1638
12335TIP3    H158420   5.305   1.850   0.391  1.7927 -0.4122 -0.3449
12335TIP3    H258421   5.286   1.738   0.291  0.6314  0.0706 -0.6776
12336TIP3   OH258422   3.702   2.184  11.227  0.1579 -0.0634  0.3024
12336TIP3    H158423   3.716   2.258  11.168  0.7220  0.4196  1.0293
12336TIP3    H258424   3.782   2.133  11.221  0.7020  0.6179  1.5270
12337TIP3   OH258425   3.269   0.323   0.384  0.2907  0.0068 -0.2862
12337TIP3    H158426   3.233   0.388   0.325 -1.3516 -0.6627 -0.0715
12337TIP3    H258427   3.294   0.250   0.328  0.1877 -0.0056 -0.3159
12338TIP3   OH258428   6.424   5.815  13.811 -0.5282 -0.3681  0.0004
12338TIP3    H158429   6.418   5.775  13.897  1.0279 -0.8508 -0.0916
12338TIP3    H258430   6.502   5.776  13.771 -0.2489  1.1021 -0.9728
12339TIP3   OH258431   3.170   4.412  12.470 -0.2233 -0.3094 -0.0517
12339TIP3    H158432   3.169   4.505  12.493 -1.8087 -0.4505  0.6077
12339TIP3    H258433   3.238   4.404  12.404  0.8434  1.0813  0.8230
12340TIP3   OH258434   0.761   4.979   2.357 -0.2072 -0.1626 -0.4635
12340TIP3    H158435   0.793   5.014   2.274  0.6658  1.8946  0.6505
12340TIP3    H258436   0.837   4.979   2.414 -1.1968  0.5005  0.9333
12341TIP3   OH258437   5.867   0.295  15.336 -0.3257  0.0324 -0.2925
12341TIP3    H158438   5.889   0.215  15.383 -0.5314 -0.4653 -1.0412
12341TIP3    H258439   5.889   0.365  15.398  1.5656 -0.4987 -0.2901
12342TIP3   OH258440   4.832   6.739   2.366  0.5544  0.3021  0.4033
12342TIP3    H158441   4.793   6.747   2.453  2.1009  1.2427  1.0707
12342TIP3    H258442   4.810   6.651   2.337 -1.1202  0.4343  1.1606
12343TIP3   OH258443   2.140   1.460   0.713 -0.5625 -0.2118  0.6738
12343TIP3    H158444   2.095   1.530   0.759 -2.2522  0.1057 -1.3154
12343TIP3    H258445   2.233   1.476   0.731 -0.9522  2.0398  0.9651
12344TIP3   OH258446   2.832   4.940  16.332  0.0807 -0.1175 -0.1097
12344TIP3    H158447   2.900   4.949  16.265  0.3468  0.0886  0.1892
12344TIP3    H258448   2.767   4.881  16.292  0.1311  0.1763 -0.6334
12345TIP3   OH258449   0.067   5.993  13.139 -0.0926  0.3791  0.1183
12345TIP3    H158450   0.088   6.083  13.163  1.0222  0.2239 -0.2231
12345TIP3    H258451  -0.026   5.984  13.159 -1.1654  2.6719 -3.1235
12346TIP3   OH258452   0.768   2.096   1.548 -0.0218 -0.2951 -0.5026
12346TIP3    H158453   0.825   2.063   1.617  0.4656 -0.9674 -1.2024
12346TIP3    H258454   0.684   2.054   1.565 -0.5680  1.2931  0.9846
12347TIP3   OH258455   3.515   4.441  14.025 -0.2102  0.2461  0.0044
12347TIP3    H158456   3.513   4.347  14.007  0.8172  0.4302 -1.1918
12347TIP3    H258457   3.521   4.447  14.120 -0.3384 -0.8977  0.1012
12348TIP3   OH258458   6.403   0.224   6.686 -0.6029 -0.0700 -0.4662
12348TIP3    H158459   6.452   0.158   6.734 -0.0455  0.4088 -0.3588
12348TIP3    H258460   6.448   0.231   6.601 -0.8967 -0.1101 -0.6272
12349TIP3   OH258461   4.842   2.095  15.618 -0.1267  0.5405 -0.6071
12349TIP3    H158462   4.803   2.167  15.668  0.1089  0.1897  0.0968
12349TIP3    H258463   4.930   2.125  15.597  1.4048 -0.9610  2.9726
12350TIP3   OH258464   6.312   3.140   1.808 -0.1822  0.1488 -0.5067
12350TIP3    H158465   6.268   3.209   1.857 -0.8655 -0.7555  0.1863
12350TIP3    H258466   6.313   3.171   1.717 -0.0290  1.2752 -0.1302
12351TIP3   OH258467   3.961   0.479   4.065 -0.0319  0.4291 -0.3556
12351TIP3    H158468   3.878   0.505   4.105 -0.9227 -1.4010 -0.8654
12351TIP3    H258469   3.965   0.384   4.078  2.2823  0.5366  0.1506
12352TIP3   OH258470   2.177   3.431  12.553  0.3104  0.1836  0.0024
12352TIP3    H158471   2.222   3.355  12.518  0.6087  1.6341 -3.1205
12352TIP3    H258472   2.084   3.415  12.535  0.3194  0.3127 -0.1630
12353TIP3   OH258473   3.660   4.930  15.733 -0.3084  0.1165 -0.4376
12353TIP3    H158474   3.600   4.860  15.706 -0.2995  0.5905 -1.7478
12353TIP3    H258475   3.738   4.916  15.679 -0.2684  1.0714 -0.6374
12354TIP3   OH258476   3.012   4.227   4.038 -0.4514  0.1310 -0.4600
12354TIP3    H158477   3.004   4.160   4.106  0.1820  0.7702  0.2688
12354TIP3    H258478   2.971   4.304   4.076 -0.1178  0.4876 -0.8189
12355TIP3   OH258479   5.528   5.741   3.361 -0.6654 -0.6082 -0.5750
12355TIP3    H158480   5.463   5.670   3.356 -1.9676  0.4950 -0.0699
12355TIP3    H258481   5.596   5.707   3.419 -1.4158 -1.3484 -0.0974
12356TIP3   OH258482   1.160   1.039  15.366  0.2110 -0.0855  0.4709
12356TIP3    H158483   1.128   1.019  15.278  0.8954  1.2644 -0.1164
12356TIP3    H258484   1.097   1.102  15.401  0.7678  0.5593  0.3333
12357TIP3   OH258485   2.425   1.176   0.730 -0.0002 -0.1035 -0.1640
12357TIP3    H158486   2.356   1.160   0.666 -0.0767 -1.1352  0.1728
12357TIP3    H258487   2.471   1.093   0.737 -0.4071 -0.2054  1.6287
12358TIP3   OH258488   1.687   5.217  12.912 -0.6201 -0.2626  0.5313
12358TIP3    H158489   1.747   5.178  12.977 -0.0983  1.7417  1.3420
12358TIP3    H258490   1.636   5.280  12.963 -2.4959 -0.9537 -0.4291
12359TIP3   OH258491   0.736   0.513   4.116 -0.2517  0.4316  0.1057
12359TIP3    H158492   0.650   0.470   4.125 -0.3898  0.6742 -0.0414
12359TIP3    H258493   0.715   0.601   4.086  0.0092  0.7272  0.7691
12360TIP3   OH258494   1.944   1.428  16.394  0.2576 -1.0845  0.4167
12360TIP3    H158495   1.996   1.435  16.474 -1.4212 -0.5531  1.5109
12360TIP3    H258496   2.000   1.379  16.333  3.4248  2.1987  0.3010
12361TIP3   OH258497   6.729   3.910  14.404 -0.2222 -0.4004  0.1775
12361TIP3    H158498   6.794   3.869  14.460  0.3363 -1.3372 -1.1020
12361TIP3    H258499   6.733   3.860  14.322 -0.9104  0.9993 -0.7469
12362TIP3   OH258500   5.875   4.577   0.014  0.1388  0.5899 -0.5688
12362TIP3    H158501   5.904   4.508  -0.046 -0.3760  0.8006 -1.0649
12362TIP3    H258502   5.780   4.568   0.017 -0.0046  1.6756 -1.1388
12363TIP3   OH258503   1.284   1.956  12.580  0.4293 -0.6515  0.1163
12363TIP3    H158504   1.241   2.003  12.508 -1.0782 -0.1081  1.3167
12363TIP3    H258505   1.229   1.879  12.594 -0.6690  0.4343  2.1697
12364TIP3   OH258506   1.056   0.186  13.356  0.4558 -0.4214 -0.4335
12364TIP3    H158507   1.079   0.279  13.350  0.3439 -0.4791 -3.9943
12364TIP3    H258508   1.140   0.141  13.365  0.5246 -0.0271  1.0877
12365TIP3   OH258509   1.550   1.301   5.359  0.2174 -0.1193 -0.1634
12365TIP3    H158510   1.624   1.265   5.310 -1.5987 -0.8509 -2.5908
12365TIP3    H258511   1.559   1.396   5.350  1.2444 -0.1667  0.2256
12366TIP3   OH258512   3.722   1.228   1.237  0.0172 -0.1080  0.3008
12366TIP3    H158513   3.674   1.172   1.177 -0.8842  1.5153 -0.5630
12366TIP3    H258514   3.663   1.301   1.255  0.1476 -0.6179  3.3938
12367TIP3   OH258515   1.083   6.087   6.132 -0.2441  0.3205  0.2520
12367TIP3    H158516   1.143   6.013   6.135 -1.5994 -0.9250 -1.5021
12367TIP3    H258517   1.000   6.052   6.166 -1.5445  0.2926 -2.6737
12368TIP3   OH258518   3.760   0.395   5.419  0.3678  0.0184  0.2024
12368TIP3    H158519   3.800   0.375   5.335 -0.2239 -2.0369  0.3505
12368TIP3    H258520   3.808   0.342   5.482 -1.8987 -1.8392  0.5080
12369TIP3   OH258521   0.479   3.600  16.519 -0.5326  0.5291  0.4064
12369TIP3    H158522   0.563   3.581  16.476 -0.0540  1.6198  0.8160
12369TIP3    H258523   0.484   3.555  16.603 -1.2120 -1.0917 -0.3956
12370TIP3   OH258524   4.284   3.791   4.103  0.2103  0.1813  0.2679
12370TIP3    H158525   4.204   3.745   4.078  0.7144 -1.3120  1.2291
12370TIP3    H258526   4.351   3.754   4.044  0.5772 -0.1888  0.8980
12371TIP3   OH258527   3.902   1.068  13.134 -0.4068  0.7558  0.1398
12371TIP3    H158528   3.930   0.989  13.180 -0.8543  0.4439 -0.1176
12371TIP3    H258529   3.968   1.081  13.066 -0.7821  0.1058 -0.3703
12372TIP3   OH258530   3.317   4.608   0.452 -0.2251  0.1543  0.3381
12372TIP3    H158531   3.318   4.564   0.367 -2.3145  2.0595 -0.7972
12372TIP3    H258532   3.310   4.538   0.516  0.6520 -1.3075 -1.0932
12373TIP3   OH258533   1.923   4.613   1.799  0.6327 -0.3514 -0.2009
12373TIP3    H158534   1.828   4.618   1.807  0.5847  1.7885 -1.2618
12373TIP3    H258535   1.947   4.533   1.845 -1.5964 -0.5490  0.7602
12374TIP3   OH258536   4.151   5.315   3.896 -0.4217 -0.4456  0.0380
12374TIP3    H158537   4.172   5.318   3.989 -0.0978 -1.5143  0.0162
12374TIP3    H258538   4.059   5.342   3.891  0.0612  1.3995  0.4556
12375TIP3   OH258539   1.715   3.512  15.000 -0.0926 -0.0075 -0.2740
12375TIP3    H158540   1.703   3.436  15.056  1.7982 -0.4221 -0.3915
12375TIP3    H258541   1.733   3.476  14.913  0.3289  0.5784 -0.4366
12376TIP3   OH258542   6.456   2.149   2.756 -0.3290 -0.2313 -0.4743
12376TIP3    H158543   6.389   2.183   2.697  0.9179  0.1968 -1.6828
12376TIP3    H258544   6.501   2.226   2.789 -0.9162 -0.4729  0.9635
12377TIP3   OH258545   5.671   4.342   1.330  0.3506  0.2288  0.2969
12377TIP3    H158546   5.697   4.323   1.420 -1.6963 -1.6102  0.5778
12377TIP3    H258547   5.729   4.288   1.276 -0.7211 -1.5013  0.7670
12378TIP3   OH258548   0.057   0.773  13.679 -0.6078  0.4694 -0.4513
12378TIP3    H158549   0.063   0.843  13.744  0.5734 -0.8096  0.8825
12378TIP3    H258550   0.142   0.729  13.682 -1.4417 -1.2951 -0.9146
12379TIP3   OH258551   1.321   3.111  11.061  0.2725 -0.4902 -0.3640
12379TIP3    H158552   1.325   3.196  11.106 -0.8650 -0.4917 -0.2282
12379TIP3    H258553   1.314   3.133  10.968 -0.3770 -0.4141 -0.3044
12380TIP3   OH258554   3.196   2.193   2.525  0.5701 -0.2695  0.0982
12380TIP3    H158555   3.249   2.126   2.482 -0.3114  1.3015 -3.8971
12380TIP3    H258556   3.244   2.274   2.511 -1.1531  0.6978 -0.4506
12381TIP3   OH258557   3.632   3.079  10.480 -0.0143 -0.1874 -0.3391
12381TIP3    H158558   3.575   3.041  10.548 -1.0916  1.7773 -0.0655
12381TIP3    H258559   3.665   3.160  10.519  0.5855  0.2035 -1.6142
12382TIP3   OH258560   0.237   3.362  14.010 -0.5733  0.3160  0.0562
12382TIP3    H158561   0.145   3.335  14.008 -0.7201  0.7937 -0.0103
12382TIP3    H258562   0.277   3.310  14.080 -1.0259  0.5011  0.4597
12383TIP3   OH258563   5.636   1.408  14.118 -0.4071 -0.8295 -0.6266
12383TIP3    H158564   5.670   1.447  14.037  2.0567 -1.3152  0.0952
12383TIP3    H258565   5.552   1.369  14.092 -1.0941  1.4805 -2.2417
12384TIP3   OH258566   4.230   1.158  10.964  0.0014  0.4462 -0.7226
12384TIP3    H158567   4.205   1.235  11.014  0.6532  1.0711 -1.3494
12384TIP3    H258568   4.247   1.091  11.031 -1.4690  0.5422 -0.2087
12385TIP3   OH258569   3.703   0.384  13.538  0.2251 -0.0876 -0.1770
12385TIP3    H158570   3.649   0.463  13.548 -2.6551 -1.9801  0.2500
12385TIP3    H258571   3.693   0.361  13.446  0.9139 -0.0770 -0.2567
12386TIP3   OH258572   5.307   4.475  11.248 -0.3078 -0.1294  0.0323
12386TIP3    H158573   5.282   4.552  11.298 -2.3414  0.4320 -1.6912
12386TIP3    H258574   5.328   4.508  11.161  0.8588 -1.3270 -0.1875
12387TIP3   OH258575   4.249   2.206   3.589 -0.1063  0.0052  0.0607
12387TIP3    H158576   4.235   2.117   3.558  0.1977  0.0712 -0.2642
12387TIP3    H258577   4.261   2.197   3.684 -1.1304 -0.1849  0.1907
12388TIP3   OH258578   0.614   3.308  12.535 -0.4677  0.0313  0.8153
12388TIP3    H158579   0.652   3.220  12.532 -1.2663 -0.3259  0.6664
12388TIP3    H258580   0.524   3.294  12.566 -0.4523  0.8536  1.2558
12389TIP3   OH258581   3.070   5.166  13.810  0.3341 -0.2418 -0.5407
12389TIP3    H158582   3.134   5.199  13.747  1.8681 -1.1702  0.4867
12389TIP3    H258583   3.072   5.229  13.882 -2.4727  1.6359 -1.9050
12390TIP3   OH258584   0.016   6.117   1.702  0.5788  0.8417  0.4742
12390TIP3    H158585  -0.006   6.208   1.684  1.9585  1.1590  0.3033
12390TIP3    H258586  -0.002   6.105   1.795 -0.1510  1.1214  0.3695
12391TIP3   OH258587   2.845   5.255  13.612  0.3171  0.4759  0.1923
12391TIP3    H158588   2.809   5.257  13.701  1.0384 -1.4951  0.5881
12391TIP3    H258589   2.768   5.259  13.556 -0.1644  1.5501  0.8868
12392TIP3   OH258590   0.237   0.913  17.180  0.4017  0.1149 -0.4148
12392TIP3    H158591   0.205   0.964  17.107 -1.6625 -1.5097 -0.7294
12392TIP3    H258592   0.305   0.967  17.220 -0.0537  2.0223 -2.1096
12393TIP3   OH258593   3.261   3.769   4.380 -0.2636  0.1655  0.0580
12393TIP3    H158594   3.246   3.790   4.287  3.7719 -0.3149 -0.8920
12393TIP3    H258595   3.281   3.675   4.380  0.7540  0.3603  1.2496
12394TIP3   OH258596   2.116   5.016   1.071 -0.3412  1.0100  0.7733
12394TIP3    H158597   2.142   5.067   0.994 -0.5781  1.3211  0.8962
12394TIP3    H258598   2.025   5.042   1.086 -1.4451 -1.5669 -0.8988
12395TIP3   OH258599   0.236   0.853   4.209  0.4816  0.8155 -0.2807
12395TIP3    H158600   0.270   0.904   4.135 -0.1253 -2.0543 -2.7189
12395TIP3    H258601   0.147   0.829   4.183 -0.2692  0.7953  2.0387
12396TIP3   OH258602   1.909   2.107  12.986  0.2390  0.6457  0.0725
12396TIP3    H158603   1.991   2.087  13.031  0.9070  1.2399 -0.8496
12396TIP3    H258604   1.929   2.184  12.933 -0.4695 -0.1477 -1.3982
12397TIP3   OH258605   6.158   2.200  14.315 -0.0673 -0.6494  0.3441
12397TIP3    H158606   6.159   2.196  14.219 -1.3841 -0.6407  0.3046
12397TIP3    H258607   6.075   2.244  14.336  0.1354 -0.7893  1.4864
12398TIP3   OH258608   2.712   6.104  13.082  0.1112 -0.5367 -0.1272
12398TIP3    H158609   2.790   6.126  13.133 -0.9803  1.0391  0.9791
12398TIP3    H258610   2.640   6.113  13.144 -0.8416 -4.4138 -0.3930
12399TIP3   OH258611   0.005   1.083  11.384  0.7804 -0.1358  0.2550
12399TIP3    H158612  -0.037   1.156  11.338  3.0658  1.6138  0.7293
12399TIP3    H258613   0.005   1.011  11.321 -4.0940 -0.8618  0.6959
12400TIP3   OH258614   1.794   2.864   1.744 -0.0408 -0.2231  0.0206
12400TIP3    H158615   1.836   2.781   1.722 -0.0223 -0.2727  0.2376
12400TIP3    H258616   1.830   2.887   1.830  1.6250  1.1332 -0.9813
12401TIP3   OH258617   2.296   0.150  14.440  0.0389  0.3078 -0.2988
12401TIP3    H158618   2.311   0.057  14.460 -0.1620  0.4808  0.7387
12401TIP3    H258619   2.381   0.182  14.410 -0.4688 -0.7774 -3.1984
12402TIP3   OH258620   2.029   3.204   3.294  0.3325 -0.4510 -0.3446
12402TIP3    H158621   2.100   3.140   3.299  0.4089 -0.3322  0.0539
12402TIP3    H258622   2.073   3.288   3.285  0.2597 -0.5905 -3.0731
12403TIP3   OH258623   4.772   3.529   0.284  0.1750 -0.2919 -0.2479
12403TIP3    H158624   4.817   3.613   0.270 -0.2636 -0.0994 -0.5469
12403TIP3    H258625   4.686   3.542   0.244 -0.5728 -0.2617  1.2781
12404TIP3   OH258626   6.282   6.305  13.925 -0.8923  0.1642 -0.5623
12404TIP3    H158627   6.256   6.234  13.984  2.2587 -0.8514 -0.2073
12404TIP3    H258628   6.278   6.267  13.838 -0.5336  0.0194 -0.5127
12405TIP3   OH258629   6.645   1.306  16.201 -0.9524 -0.0977  0.0539
12405TIP3    H158630   6.687   1.390  16.183  0.0010 -0.5830 -0.0520
12405TIP3    H258631   6.718   1.244  16.208 -1.7036 -1.6033 -3.2611
12406TIP3   OH258632   2.467   5.988   1.229  0.0606 -0.1109  0.4641
12406TIP3    H158633   2.425   5.921   1.283  0.8504  0.7284  2.1997
12406TIP3    H258634   2.412   6.065   1.240 -0.9230 -0.4522 -1.6367
12407TIP3   OH258635   6.555   2.880   6.124 -0.2992 -0.0151  0.3985
12407TIP3    H158636   6.636   2.829   6.134  0.8655  1.5210 -0.6615
12407TIP3    H258637   6.555   2.939   6.200 -0.2191  0.2383  0.2023
12408TIP3   OH258638   1.848   6.692   4.217  0.4495  0.9038  0.2107
12408TIP3    H158639   1.863   6.706   4.310  0.7824  0.0153  0.3003
12408TIP3    H258640   1.935   6.697   4.177  0.3591  0.8740  0.0082
12409TIP3   OH258641   4.189   6.063  14.273 -0.4625 -0.2438 -0.5780
12409TIP3    H158642   4.264   6.013  14.242  0.4446 -0.4429  1.7518
12409TIP3    H258643   4.177   6.132  14.207  1.7868 -0.1899 -1.0152
12410TIP3   OH258644   3.371   6.180  16.237 -0.0065 -0.1048  0.3645
12410TIP3    H158645   3.355   6.089  16.263 -2.2486  0.1164  0.0013
12410TIP3    H258646   3.450   6.176  16.183  0.2610 -1.7326  0.8225
12411TIP3   OH258647   4.157   4.139  16.763  0.7536 -0.2854  0.2694
12411TIP3    H158648   4.200   4.054  16.765 -1.0301 -1.3019 -1.3461
12411TIP3    H258649   4.209   4.191  16.701  0.2893 -1.1435 -0.8668
12412TIP3   OH258650   5.528   6.497   4.013 -0.1932  0.0369 -0.5180
12412TIP3    H158651   5.438   6.522   4.030 -1.2064 -2.6993 -1.3248
12412TIP3    H258652   5.561   6.466   4.097 -0.0491  0.8272 -0.2740
12413TIP3   OH258653   5.371   3.945   2.849  0.4994  0.3006  0.1215
12413TIP3    H158654   5.400   4.004   2.918  0.4353  1.0055 -0.4357
12413TIP3    H258655   5.449   3.931   2.795  0.2864  0.6356 -0.2790
12414TIP3   OH258656   2.539   1.971  11.083  0.2727 -0.4879  0.5825
12414TIP3    H158657   2.474   1.906  11.055  0.4599 -1.1419  1.6308
12414TIP3    H258658   2.603   1.921  11.134  1.3764  0.2265 -0.0620
12415TIP3   OH258659   3.097   1.051  12.973 -0.4724 -0.0591 -0.1743
12415TIP3    H158660   3.024   1.084  13.025  0.1988  1.2287 -0.0230
12415TIP3    H258661   3.161   1.022  13.038 -0.0847  0.5399 -0.2841
12416TIP3   OH258662   5.006   0.901  14.349 -0.5382  0.0016 -0.0069
12416TIP3    H158663   5.010   0.951  14.431 -1.4636 -0.5812  0.4198
12416TIP3    H258664   4.912   0.891  14.333 -0.3577 -0.2932 -0.8948
12417TIP3   OH258665   5.190   5.084  14.760  0.1792  0.0161 -0.1907
12417TIP3    H158666   5.283   5.100  14.771 -0.2423  1.7175  1.2104
12417TIP3    H258667   5.178   4.992  14.785  1.4780 -0.2757 -0.5694
12418TIP3   OH258668   4.169   0.395   3.783 -0.5019  0.3209  0.1548
12418TIP3    H158669   4.162   0.413   3.690  1.7408 -0.7968 -0.2874
12418TIP3    H258670   4.093   0.439   3.822 -0.6718  2.0576 -1.9846
12419TIP3   OH258671   0.589   2.192  16.793 -0.4346  0.0765  0.1121
12419TIP3    H158672   0.608   2.107  16.833 -2.9923 -0.3129  0.6656
12419TIP3    H258673   0.538   2.238  16.859  1.4456  2.3779  0.0918
12420TIP3   OH258674   1.712   6.549  13.337  0.2483  0.3483  0.1328
12420TIP3    H158675   1.660   6.483  13.292 -0.2422 -0.1372  1.3930
12420TIP3    H258676   1.788   6.562  13.280 -0.0418 -0.7029 -0.5171
12421TIP3   OH258677   5.544   4.344  15.832  0.6059  0.1356 -0.0536
12421TIP3    H158678   5.469   4.324  15.888  0.0684 -1.3007 -1.2109
12421TIP3    H258679   5.606   4.274  15.850 -0.1978 -1.2679 -2.2606
12422TIP3   OH258680   4.034   5.492   0.555  0.2349  0.5723 -0.0969
12422TIP3    H158681   3.960   5.504   0.495  1.2688  0.0390 -1.5396
12422TIP3    H258682   4.088   5.570   0.541 -0.1207  1.0416  1.0740
12423TIP3   OH258683   2.801   0.256  17.413  0.2401 -0.3797  0.0492
12423TIP3    H158684   2.757   0.340  17.398  0.9689  0.4163  2.0166
12423TIP3    H258685   2.730   0.193  17.424 -0.4086  0.5084  1.1885
12424TIP3   OH258686   2.970   1.557   5.185  0.1681 -0.1712  0.3448
12424TIP3    H158687   2.908   1.606   5.132  0.4038  0.3155  0.5113
12424TIP3    H258688   3.052   1.562   5.136  0.8330  1.7634  1.5610
12425TIP3   OH258689   5.646   1.282   1.848  0.2160  0.3877 -0.2623
12425TIP3    H158690   5.708   1.263   1.777  0.2182  0.2518 -0.2242
12425TIP3    H258691   5.572   1.323   1.804  0.8492  1.6951 -0.1633
12426TIP3   OH258692   4.644   0.367   3.324 -0.4421  0.0078 -0.7405
12426TIP3    H158693   4.671   0.421   3.399 -2.3850  1.5381 -1.0732
12426TIP3    H258694   4.569   0.318   3.356 -0.9877  0.3121 -1.5188
12427TIP3   OH258695   5.103   1.819   1.422  0.0176 -0.3162 -0.4334
12427TIP3    H158696   5.178   1.867   1.387  0.0803 -0.1978 -0.1396
12427TIP3    H258697   5.133   1.729   1.430 -0.1357 -0.4326 -1.0925
12428TIP3   OH258698   1.440   0.764   2.437 -0.0192  0.1364 -0.3260
12428TIP3    H158699   1.502   0.815   2.490  0.0364  0.1967 -0.4470
12428TIP3    H258700   1.396   0.829   2.383 -0.6048  0.1614  0.1674
12429TIP3   OH258701   2.269   1.696   4.034 -0.0171 -0.8718  0.3015
12429TIP3    H158702   2.349   1.648   4.058  0.1811 -0.1033  1.2267
12429TIP3    H258703   2.284   1.723   3.944  2.2723  2.1046  1.3981
12430TIP3   OH258704   3.449   5.915   5.054 -0.3613 -0.3295 -0.6531
12430TIP3    H158705   3.416   5.964   5.130 -0.5548  0.4504 -1.2279
12430TIP3    H258706   3.407   5.957   4.979 -0.2641 -1.1713 -1.1861
12431TIP3   OH258707   6.417   2.321   5.668 -0.1781  0.3977  0.0553
12431TIP3    H158708   6.420   2.264   5.591  1.1175 -0.0422  0.3959
12431TIP3    H258709   6.345   2.286   5.721 -0.4882  0.1375 -0.5286
12432TIP3   OH258710   6.335   5.177  13.985 -0.5878 -0.1699 -0.2542
12432TIP3    H158711   6.420   5.156  13.947  0.8176  2.1645  1.3065
12432TIP3    H258712   6.308   5.096  14.028  1.3496 -0.7394  0.0151
12433TIP3   OH258713   2.053   5.977  16.985  0.7844 -0.1674 -0.3466
12433TIP3    H158714   2.084   6.049  16.929 -0.5331  1.0923  0.4515
12433TIP3    H258715   1.995   5.927  16.928 -0.0688  0.7532 -0.3251
12434TIP3   OH258716   6.135   5.112  13.760  0.1073  0.0702  0.6389
12434TIP3    H158717   6.120   5.089  13.668 -0.2959  0.2809  0.6493
12434TIP3    H258718   6.215   5.164  13.759 -0.3563  0.7825  0.2995
12435TIP3   OH258719   4.190   5.836  16.991 -0.0355 -0.5349  0.2142
12435TIP3    H158720   4.104   5.863  16.959 -0.1296 -0.4352  0.5498
12435TIP3    H258721   4.242   5.916  16.993 -0.0180 -0.5471  0.2668
12436TIP3   OH258722   4.976   3.743  11.634 -0.0693 -0.4278  0.4321
12436TIP3    H158723   5.063   3.710  11.608 -0.3690 -0.9704  0.0964
12436TIP3    H258724   4.980   3.749  11.729 -0.0333 -1.5542  0.5166
12437TIP3   OH258725   3.930   5.205   1.316  0.2779  0.5312 -0.6375
12437TIP3    H158726   3.880   5.170   1.243 -2.2603  1.5836  0.4707
12437TIP3    H258727   3.880   5.282   1.345  0.9361 -0.0405  2.3921
12438TIP3   OH258728   1.747   0.626   4.333 -0.1124  0.1224  0.4584
12438TIP3    H158729   1.728   0.534   4.314 -1.4445  0.1384  1.5567
12438TIP3    H258730   1.764   0.628   4.427 -1.3920  1.1913  0.6858
12439TIP3   OH258731   4.558   2.117   4.636  0.3792  0.4130  0.3150
12439TIP3    H158732   4.610   2.080   4.564  1.2274  0.3436  0.9420
12439TIP3    H258733   4.553   2.048   4.701 -2.1879 -0.2777 -0.5004
12440TIP3   OH258734   1.664   2.224   0.460 -0.1682 -0.0007 -0.4059
12440TIP3    H158735   1.590   2.177   0.422 -1.4627  0.4583  1.4103
12440TIP3    H258736   1.624   2.294   0.511  1.6272  1.5903 -1.0741
12441TIP3   OH258737   1.327   4.817   4.509  0.1014 -0.2518 -0.0394
12441TIP3    H158738   1.372   4.901   4.507 -0.3725  0.0624  1.5016
12441TIP3    H258739   1.281   4.815   4.593 -0.7168 -1.6282 -0.4723
12442TIP3   OH258740   2.731   3.467   2.741 -0.0175  0.9746 -0.5089
12442TIP3    H158741   2.682   3.494   2.663  1.2407  1.8994 -0.9971
12442TIP3    H258742   2.680   3.502   2.814 -0.9320  0.5437 -0.9225
12443TIP3   OH258743   4.663   4.558   5.506 -0.0355  0.2895  0.4529
12443TIP3    H158744   4.677   4.511   5.588 -1.2233  0.3128  0.6930
12443TIP3    H258745   4.568   4.567   5.500  0.1055  1.4323 -0.2937
12444TIP3   OH258746   6.080   3.155   5.401 -0.3433  0.2910  0.4759
12444TIP3    H158747   6.071   3.155   5.305 -0.0422 -1.5521  0.4166
12444TIP3    H258748   6.161   3.204   5.416 -0.8750  1.3972 -0.1318
12445TIP3   OH258749   3.036   0.593   1.861  0.4216  0.0932 -0.4964
12445TIP3    H158750   3.074   0.647   1.929  1.8607  0.2716 -1.4037
12445TIP3    H258751   2.994   0.655   1.801 -1.9099 -0.1293  0.7776
12446TIP3   OH258752   3.597   2.650   0.447 -0.1692  0.4819 -0.4248
12446TIP3    H158753   3.611   2.634   0.354  0.4931 -0.0790 -0.2354
12446TIP3    H258754   3.574   2.565   0.483  1.7439  0.2335  0.2988
12447TIP3   OH258755   6.445   5.024   3.660 -0.6567  0.3444 -0.3197
12447TIP3    H158756   6.536   5.031   3.688 -0.5488 -0.0179 -0.5803
12447TIP3    H258757   6.440   4.939   3.616 -1.3511 -0.0900  0.5794
12448TIP3   OH258758   1.660   3.269  15.133  0.0603  0.6649 -0.5298
12448TIP3    H158759   1.680   3.211  15.059 -1.7093  0.4486 -0.8876
12448TIP3    H258760   1.693   3.223  15.210  0.5959  0.1925 -1.0347
12449TIP3   OH258761   1.754   3.347   1.205  0.0435 -0.5805  0.0784
12449TIP3    H158762   1.843   3.382   1.211  0.4592 -1.0599 -2.3426
12449TIP3    H258763   1.710   3.381   1.282  1.9050  0.8937  0.5665
12450TIP3   OH258764   2.437   2.489  12.615 -0.2753  0.1761 -0.0752
12450TIP3    H158765   2.515   2.436  12.597 -0.7090 -1.3814  2.1370
12450TIP3    H258766   2.375   2.465  12.546  0.7288  0.4427 -1.0985
12451TIP3   OH258767   2.046   3.825  12.992 -0.4046  0.5380  0.6378
12451TIP3    H158768   2.069   3.869  13.073  1.0541  2.4340 -0.7059
12451TIP3    H258769   2.072   3.887  12.923 -1.2090 -1.1501 -1.2807
12452TIP3   OH258770   3.222   6.330   0.403 -0.3088 -0.3385  0.2190
12452TIP3    H158771   3.258   6.354   0.488 -1.0397 -0.7676  0.6618
12452TIP3    H258772   3.188   6.413   0.367  1.2825  0.1251 -0.3220
12453TIP3   OH258773   4.107   4.264  14.884 -0.1423  0.2152  0.3009
12453TIP3    H158774   4.062   4.288  14.965 -0.5767  0.3913  0.0082
12453TIP3    H258775   4.045   4.286  14.815  0.4881  0.6908 -0.1247
12454TIP3   OH258776   6.483   5.707  15.476 -0.1842 -0.0015  0.3536
12454TIP3    H158777   6.420   5.725  15.407 -1.0017 -0.5073  0.9459
12454TIP3    H258778   6.568   5.714  15.434 -0.6244  1.0316 -0.3808
12455TIP3   OH258779   4.796   2.682   0.960 -0.3683 -0.3457  0.6378
12455TIP3    H158780   4.743   2.696   1.039  0.5582 -0.7942  1.3416
12455TIP3    H258781   4.737   2.706   0.888 -1.3960 -0.4343  1.4282
12456TIP3   OH258782   1.157   4.562  14.143 -0.0478  0.7233  1.3238
12456TIP3    H158783   1.221   4.605  14.199 -0.6502  2.3892  0.8053
12456TIP3    H258784   1.078   4.616  14.151 -0.5212  0.3148 -0.1582
12457TIP3   OH258785   0.955   5.116  11.751  0.8864 -0.1390 -0.2375
12457TIP3    H158786   0.996   5.048  11.805 -1.2462 -0.7138  0.7497
12457TIP3    H258787   1.019   5.133  11.682  1.4772 -3.2258 -0.5806
12458TIP3   OH258788   0.288   1.779   3.691  0.6212 -0.5394 -0.6339
12458TIP3    H158789   0.361   1.765   3.750 -0.4064  1.6216  1.3274
12458TIP3    H258790   0.213   1.792   3.749 -1.2593 -2.1690 -2.5526
12459TIP3   OH258791   4.020   0.216  14.190 -0.3095 -0.2539 -0.1271
12459TIP3    H158792   4.043   0.307  14.210 -0.6191  0.0542 -1.1532
12459TIP3    H258793   4.094   0.165  14.225 -0.3122  0.3459  0.7876
12460TIP3   OH258794   0.245   2.574   1.389 -0.1783 -0.2838 -1.0860
12460TIP3    H158795   0.297   2.550   1.465  0.0130 -0.2183 -1.1962
12460TIP3    H258796   0.246   2.496   1.333 -0.5325 -0.4199 -0.9032
12461TIP3   OH258797   1.904   0.799   0.972 -0.4690  0.7463 -0.2122
12461TIP3    H158798   1.971   0.763   0.914 -1.9427 -0.5456 -1.2332
12461TIP3    H258799   1.952   0.840   1.043  1.3987  1.1553 -1.6407
12462TIP3   OH258800   3.898   3.640   4.619 -0.5007 -0.1527 -0.4445
12462TIP3    H158801   3.938   3.557   4.593 -0.6354  0.0536 -1.3418
12462TIP3    H258802   3.965   3.684   4.671 -1.8987 -2.6955  4.0334
12463TIP3   OH258803   4.936   1.788   0.419  0.0836 -0.2025  0.7496
12463TIP3    H158804   4.884   1.711   0.442  3.2936 -2.0213  2.7429
12463TIP3    H258805   4.990   1.759   0.345  0.4372  0.5284  0.7152
12464TIP3   OH258806   5.356   4.910  16.889 -0.1588 -0.2079 -0.5182
12464TIP3    H158807   5.315   4.948  16.811 -1.1992 -0.2537 -0.0192
12464TIP3    H258808   5.409   4.980  16.925 -2.1246  0.8821  0.4416
12465TIP3   OH258809   3.873   0.803  17.426 -0.1391 -0.2883 -0.2786
12465TIP3    H158810   3.781   0.781  17.417 -0.2266 -0.1531  0.2614
12465TIP3    H258811   3.918   0.719  17.429 -0.4051 -0.4055  1.0741
12466TIP3   OH258812   3.716   2.030  14.628  0.2562 -0.3328 -0.3191
12466TIP3    H158813   3.691   2.098  14.690 -0.1381 -0.2515 -0.5651
12466TIP3    H258814   3.809   2.015  14.645 -0.0362 -0.9079  0.8750
12467TIP3   OH258815   1.485   0.594  12.158  0.6803 -0.0844 -0.1740
12467TIP3    H158816   1.505   0.596  12.252  1.3932 -0.9184 -0.2947
12467TIP3    H258817   1.424   0.667  12.145  1.8619  1.1176  0.6425
12468TIP3   OH258818   6.512   3.029  16.153 -0.4724  0.3742  0.0535
12468TIP3    H158819   6.501   3.124  16.154  0.5456  0.5273 -1.0036
12468TIP3    H258820   6.581   3.012  16.217  0.1391  0.4805 -0.5651
12469TIP3   OH258821   4.700   5.202  14.127 -0.0491  0.4633  0.2338
12469TIP3    H158822   4.771   5.214  14.064  0.2418 -0.1459  0.4413
12469TIP3    H258823   4.696   5.285  14.175  1.7787 -0.1287  1.4871
12470TIP3   OH258824   2.754   3.484   5.374 -0.3315 -0.0448  0.2267
12470TIP3    H158825   2.671   3.525   5.397  1.3553  1.7381  4.1138
12470TIP3    H258826   2.795   3.544   5.311  0.1633  2.0517  2.4001
12471TIP3   OH258827   5.629   1.757  12.198  0.5347  0.2702  0.5252
12471TIP3    H158828   5.618   1.662  12.193  0.5672  0.3473 -1.9763
12471TIP3    H258829   5.542   1.791  12.217  0.1330 -0.1773 -0.4680
12472TIP3   OH258830   0.720   3.384   3.548 -0.4283 -0.1963  0.0192
12472TIP3    H158831   0.676   3.460   3.509 -0.5345 -1.7154 -3.1068
12472TIP3    H258832   0.695   3.310   3.492  1.4698 -2.1559  1.5831
12473TIP3   OH258833   2.400   2.261   1.666  0.2284  0.2419  0.1525
12473TIP3    H158834   2.436   2.172   1.675 -0.8682 -0.1699  0.7192
12473TIP3    H258835   2.409   2.299   1.753 -0.8226  0.0689  0.3518
12474TIP3   OH258836   2.926   4.633  12.690  0.0988  0.1798  0.0905
12474TIP3    H158837   2.997   4.672  12.740 -0.1341  0.6228  0.0814
12474TIP3    H258838   2.923   4.542  12.718 -0.0052  0.4185  0.8567
12475TIP3   OH258839   3.443   1.117  14.324  0.3993  0.5309  0.3739
12475TIP3    H158840   3.366   1.149  14.372  0.0830  1.2207 -0.5767
12475TIP3    H258841   3.513   1.178  14.349  0.5380  0.1719  0.8851
12476TIP3   OH258842   6.461   4.553   4.457 -0.0152 -0.4494 -0.0804
12476TIP3    H158843   6.548   4.550   4.417  0.8942  3.2019  1.2377
12476TIP3    H258844   6.465   4.489   4.527  1.5983 -0.4271 -0.1066
12477TIP3   OH258845   4.993   2.092  14.519  0.1601  0.0166  0.6252
12477TIP3    H158846   5.077   2.099  14.565 -0.0373  1.7197  0.7754
12477TIP3    H258847   4.928   2.084  14.589  0.1993 -1.8231  0.5013
12478TIP3   OH258848   2.725   4.914   5.431  0.1426 -0.5083  0.4442
12478TIP3    H158849   2.673   4.840   5.460  0.4586 -0.6105  0.7499
12478TIP3    H258850   2.725   4.975   5.505  1.4925 -1.0547  0.9233
12479TIP3   OH258851   1.810   0.846  15.561 -0.4585  0.2329 -0.4585
12479TIP3    H158852   1.738   0.909  15.552 -0.0169  0.7247 -0.6301
12479TIP3    H258853   1.814   0.827  15.654 -0.4551  0.6392 -0.3710
12480TIP3   OH258854   2.034   0.883  13.935 -0.3585 -0.2441 -0.3928
12480TIP3    H158855   2.075   0.931  13.863 -0.9241  0.9394  0.0333
12480TIP3    H258856   1.953   0.847  13.898 -0.2488 -0.3242 -0.5537
12481TIP3   OH258857   6.292   1.618  16.009  0.4318  0.0612 -0.2051
12481TIP3    H158858   6.261   1.555  16.074 -0.3325 -0.3756 -0.9861
12481TIP3    H258859   6.314   1.696  16.061 -0.0400 -0.3231  0.5931
12482TIP3   OH258860   1.569   6.045  17.132  0.3865  0.4730  0.3046
12482TIP3    H158861   1.502   6.060  17.065 -0.0487  0.5459  0.7477
12482TIP3    H258862   1.605   6.132  17.149 -0.7865  0.7587  1.4780
12483TIP3   OH258863   4.683   2.622  11.651  0.2454 -0.1806 -0.1483
12483TIP3    H158864   4.694   2.682  11.577  0.4331  0.3676  0.3198
12483TIP3    H258865   4.706   2.536  11.615  2.2756  0.3395 -0.2379
12484TIP3   OH258866   3.629   0.938  10.514  0.3133  0.2904 -0.3527
12484TIP3    H158867   3.698   0.873  10.528 -0.3874 -0.0581  2.1079
12484TIP3    H258868   3.672   1.022  10.530 -0.1346 -0.0230  3.6202
12485TIP3   OH258869   1.082   5.991   3.164  0.3801  0.5587 -0.3425
12485TIP3    H158870   1.108   6.001   3.256 -0.2518  2.5297 -0.3373
12485TIP3    H258871   1.112   6.072   3.122 -0.9508  0.4808 -1.4932
12486TIP3   OH258872   4.964   0.463   1.108 -0.0406 -0.3843  0.0279
12486TIP3    H158873   5.042   0.498   1.152  0.5166 -1.5609  0.0307
12486TIP3    H258874   4.917   0.540   1.078  0.9954  0.3680  0.2608
12487TIP3   OH258875   1.632   4.873   3.211  0.6581 -0.0701  0.5168
12487TIP3    H158876   1.618   4.909   3.298 -1.9491 -1.3681  0.7161
12487TIP3    H258877   1.609   4.945   3.152  1.3398  0.4582  0.8802
12488TIP3   OH258878   0.382   0.176   1.534  0.3796 -0.0893 -0.3766
12488TIP3    H158879   0.341   0.114   1.474  0.6724  1.7420 -2.5943
12488TIP3    H258880   0.407   0.250   1.479  0.8136  1.6558  2.0045
12489TIP3   OH258881   1.690   4.589   5.349 -0.2350 -0.0316 -0.3252
12489TIP3    H158882   1.711   4.683   5.348 -2.2186  0.4770 -0.0689
12489TIP3    H258883   1.666   4.569   5.259  1.1571 -0.5762 -0.5986
12490TIP3   OH258884   6.679   1.865   4.249  0.1915 -0.2306 -0.3856
12490TIP3    H158885   6.588   1.859   4.276 -0.0044  2.8161  0.0127
12490TIP3    H258886   6.728   1.874   4.331  0.7324 -0.7010 -0.6496
12491TIP3   OH258887   6.572   1.699  16.213 -0.0329 -0.0111  0.0528
12491TIP3    H158888   6.558   1.630  16.277  1.3241 -0.4776 -0.1329
12491TIP3    H258889   6.655   1.739  16.238  0.2475  0.1541 -1.0817
12492TIP3   OH258890   0.619   5.420   3.726 -0.5275 -0.4968 -0.3744
12492TIP3    H158891   0.625   5.447   3.634 -0.2299 -0.3114 -0.3025
12492TIP3    H258892   0.647   5.329   3.726  0.3552 -0.2338 -0.3406
12493TIP3   OH258893   0.200   1.511  11.818 -0.4804  0.2409 -0.4147
12493TIP3    H158894   0.232   1.469  11.738  0.5673  1.5795 -0.7410
12493TIP3    H258895   0.109   1.482  11.825  0.7070 -3.9841  0.6990
12494TIP3   OH258896   6.158   1.065   0.386  0.2750 -0.8674 -0.2488
12494TIP3    H158897   6.159   0.971   0.368  0.8172 -0.7289 -0.9742
12494TIP3    H258898   6.101   1.101   0.319  0.6622 -0.5898 -0.4289
12495TIP3   OH258899   1.463   5.063  16.041  0.0740 -0.0224 -0.0390
12495TIP3    H158900   1.506   5.076  16.126 -2.2402  2.5244  0.8656
12495TIP3    H258901   1.535   5.066  15.977  1.8029 -1.3934  1.6939
12496TIP3   OH258902   5.070   6.013   2.448 -0.1822 -0.0314  0.6346
12496TIP3    H158903   4.995   6.046   2.498 -0.3085  1.4490 -0.4750
12496TIP3    H258904   5.146   6.043   2.497 -0.3125  0.6465  0.4333
12497TIP3   OH258905   5.474   0.619   4.803 -0.0660 -0.4113  0.3138
12497TIP3    H158906   5.532   0.554   4.763  1.9084  1.2662  0.2653
12497TIP3    H258907   5.405   0.632   4.739  0.6874 -0.9095 -0.6304
12498TIP3   OH258908   3.200   2.913   6.527 -0.1188  0.5222  0.3970
12498TIP3    H158909   3.142   2.989   6.533 -0.9484  0.1226 -1.7033
12498TIP3    H258910   3.149   2.841   6.565  0.9866  1.0677  3.1861
12499TIP3   OH258911   5.422   5.977   5.457 -0.2019 -0.2019  0.3230
12499TIP3    H158912   5.442   5.885   5.440 -1.6807 -0.6737  0.9955
12499TIP3    H258913   5.418   6.018   5.370  0.6118 -0.7326  0.0327
12500TIP3   OH258914   3.975   1.223   3.352  0.0794  0.2425  0.0655
12500TIP3    H158915   4.046   1.160   3.362 -1.4024 -1.4571  0.4492
12500TIP3    H258916   3.993   1.290   3.418  1.4237 -0.0460  0.0180
12501TIP3   OH258917   4.656   5.137   4.282 -0.1577  0.4072  0.1787
12501TIP3    H158918   4.740   5.093   4.275  0.1216  1.0529 -0.8161
12501TIP3    H258919   4.637   5.166   4.193 -1.3007  0.5116  0.4392
12502TIP3   OH258920   2.891   4.524   5.359 -0.1968 -0.7242  0.0291
12502TIP3    H158921   2.801   4.493   5.362  0.3895 -2.8448 -1.6654
12502TIP3    H258922   2.943   4.445   5.339  2.0183  0.4452  0.8115
12503TIP3   OH258923   0.933   3.992   4.944  0.0279  0.0093  0.0972
12503TIP3    H158924   0.976   3.965   5.025  1.3425  0.3480 -0.4734
12503TIP3    H258925   0.855   4.039   4.973  0.0449 -0.5812  1.1468
12504TIP3   OH258926   5.928   4.076   2.821 -0.0852  0.3260 -0.0617
12504TIP3    H158927   5.908   3.983   2.808  0.6424  0.1003  0.3659
12504TIP3    H258928   5.843   4.119   2.817 -0.2910 -0.1530 -1.8635
12505TIP3   OH258929   4.398   5.162  11.855  0.2048  0.5451  0.3781
12505TIP3    H158930   4.392   5.242  11.804  0.2626  1.0569  1.1507
12505TIP3    H258931   4.318   5.113  11.834 -1.0990  1.9583  1.7658
12506TIP3   OH258932   2.703   4.161  13.119  0.0526 -0.4298 -0.0715
12506TIP3    H158933   2.620   4.185  13.161  0.9582  1.1217  0.8977
12506TIP3    H258934   2.755   4.120  13.188  0.5318 -0.3329 -0.3711
12507TIP3   OH258935   4.797   0.330   2.990 -0.4293  0.1514 -0.3106
12507TIP3    H158936   4.779   0.280   3.069 -1.2939  0.4840 -0.2865
12507TIP3    H258937   4.730   0.398   2.989  0.3510  0.9320 -0.6653
12508TIP3   OH258938   0.392   5.052  15.562  0.4787 -0.5835  0.2485
12508TIP3    H158939   0.426   5.077  15.648  0.2077 -0.8976  0.4490
12508TIP3    H258940   0.381   4.957  15.568 -0.1793 -0.5210  0.0989
12509TIP3   OH258941   6.328   1.154  14.133 -0.0205  0.0322  0.4642
12509TIP3    H158942   6.419   1.171  14.158  0.1885  1.2136 -0.9602
12509TIP3    H258943   6.320   1.059  14.136  2.4621 -0.5022 -3.1096
12510TIP3   OH258944   1.140   1.550  13.831  0.0925  0.4667  0.0362
12510TIP3    H158945   1.207   1.581  13.769 -1.2528  0.0137 -1.7212
12510TIP3    H258946   1.162   1.458  13.845 -1.0449 -0.1718 -1.8964
12511TIP3   OH258947   2.902   2.597   1.089 -0.0778 -0.2982  0.4846
12511TIP3    H158948   2.965   2.600   1.017  0.5603  0.7519  1.0555
12511TIP3    H258949   2.827   2.647   1.056 -0.6670 -1.6142 -0.2244
12512TIP3   OH258950   1.419   0.233  14.652  0.0122 -0.2820  0.2727
12512TIP3    H158951   1.379   0.152  14.620 -1.3042  0.7807 -0.9126
12512TIP3    H258952   1.513   0.219  14.642 -0.2276 -1.3510 -0.7523
12513TIP3   OH258953   5.559   1.999   1.525 -0.2974 -0.4332 -0.0709
12513TIP3    H158954   5.626   2.067   1.519  0.8925 -1.6408 -1.3469
12513TIP3    H258955   5.572   1.960   1.612 -0.7231  0.6665  0.5031
12514TIP3   OH258956   0.105   4.270  14.609  0.2505  0.7138  0.2770
12514TIP3    H158957   0.057   4.353  14.603 -0.0662  0.8369  3.0848
12514TIP3    H258958   0.038   4.205  14.628  0.7375  0.1953  0.2251
12515TIP3   OH258959   3.777   6.213   1.528  0.3835  0.2014  0.0098
12515TIP3    H158960   3.858   6.255   1.499 -0.4504  1.6575 -0.3453
12515TIP3    H258961   3.793   6.189   1.619  0.9150  1.3476  0.2381
12516TIP3   OH258962   1.882   4.459  16.439  0.0914 -0.2287  0.7714
12516TIP3    H158963   1.973   4.431  16.425  0.8555  0.9763  2.8100
12516TIP3    H258964   1.858   4.504  16.358  2.1821  1.5052  1.0295
12517TIP3   OH258965   3.783   0.061   5.810  0.0380  0.9357 -0.1973
12517TIP3    H158966   3.854   0.037   5.870 -0.8686  1.1810  1.0016
12517TIP3    H258967   3.745  -0.023   5.783  2.2411  0.6107 -2.7896
12518TIP3   OH258968   0.303   1.854   6.154  0.3010  0.1358 -0.2927
12518TIP3    H158969   0.326   1.782   6.096 -2.1032 -0.4459 -0.6019
12518TIP3    H258970   0.354   1.838   6.234 -0.0474 -1.8052 -0.4283
12519TIP3   OH258971   6.419   0.280  15.602 -0.2765 -0.2609 -0.1941
12519TIP3    H158972   6.363   0.214  15.562 -0.2139  0.1160 -0.9206
12519TIP3    H258973   6.444   0.242  15.686  0.0135 -1.3060 -0.7300
12520TIP3   OH258974   2.498   0.141  13.105 -0.4128 -0.2661 -0.0854
12520TIP3    H158975   2.420   0.177  13.063  0.6227  0.1971 -1.7309
12520TIP3    H258976   2.525   0.209  13.166 -2.7616 -1.5442  2.5845
12521TIP3   OH258977   2.931   6.506   0.415 -0.2336  0.4641 -0.5774
12521TIP3    H158978   2.987   6.462   0.352  1.1822 -0.6145  1.3178
12521TIP3    H258979   2.923   6.596   0.382  2.3977  0.5812 -1.0800
12522TIP3   OH258980   5.087   3.136   1.657 -0.4349 -0.0930 -0.9877
12522TIP3    H158981   5.046   3.156   1.572 -1.0497  0.4411 -0.5738
12522TIP3    H258982   5.176   3.109   1.634 -1.0060 -1.2754 -1.8979
12523TIP3   OH258983   3.125   4.717  16.708 -0.4794  0.6977  0.6088
12523TIP3    H158984   3.076   4.636  16.723 -1.4538  1.4729  1.8036
12523TIP3    H258985   3.083   4.756  16.631 -2.0402  1.5277  1.8281
12524TIP3   OH258986   4.766   3.255  12.298 -0.5884  0.1831  0.2817
12524TIP3    H158987   4.826   3.186  12.270 -1.4563 -0.2529 -0.5978
12524TIP3    H258988   4.756   3.242  12.392  0.0046 -0.2918  0.2802
12525TIP3   OH258989   0.904   5.719   0.095 -0.1534  0.1421  0.8670
12525TIP3    H158990   0.850   5.681   0.025  1.0115 -0.9067  0.4880
12525TIP3    H258991   0.993   5.689   0.075  0.6318  2.0753  1.2940
12526TIP3   OH258992   1.908   1.431  15.802  0.0191  0.4838  0.0909
12526TIP3    H158993   1.952   1.506  15.843 -0.2690  1.2510 -0.9446
12526TIP3    H258994   1.938   1.433  15.711 -1.1366  0.2326 -0.3154
12527TIP3   OH258995   0.453   4.276   2.291  0.0010  0.1997  0.0282
12527TIP3    H158996   0.403   4.298   2.212  0.5922  1.3954 -0.0315
12527TIP3    H258997   0.516   4.347   2.300  2.4097 -1.7325 -0.4704
12528TIP3   OH258998   6.272   4.136  15.803 -0.1344 -0.9461  0.1980
12528TIP3    H158999   6.215   4.175  15.868  1.1402  2.3295 -0.4315
12528TIP3    H259000   6.213   4.101  15.736 -1.5751  2.3877 -0.4799
12529TIP3   OH259001   1.034   5.704  15.139 -0.4942  0.2266 -0.5600
12529TIP3    H159002   0.992   5.775  15.188 -2.6171 -0.8780 -0.6605
12529TIP3    H259003   0.973   5.684  15.068 -1.3008 -3.3180  0.8895
12530TIP3   OH259004   4.946   6.248   2.619  1.0882  0.5879  0.1967
12530TIP3    H159005   4.951   6.309   2.693  1.3346  2.5102 -1.3428
12530TIP3    H259006   4.852   6.241   2.600  1.1516  1.8725 -0.6880
12531TIP3   OH259007   3.319   5.202  12.646 -0.1198 -0.1011 -0.4674
12531TIP3    H159008   3.336   5.118  12.605  0.2947 -0.0963 -0.3133
12531TIP3    H259009   3.226   5.217  12.634 -0.0542 -0.2273 -1.1614
12532TIP3   OH259010   6.084   5.510  13.858  0.2824 -0.2766 -0.6893
12532TIP3    H159011   6.070   5.442  13.792  0.8733 -0.5259 -0.5653
12532TIP3    H259012   6.151   5.473  13.916 -2.6305 -1.5773  2.1387
12533TIP3   OH259013   2.365   6.596   2.579 -0.2021  0.2683 -0.3268
12533TIP3    H159014   2.413   6.665   2.625 -0.3584 -1.4103  2.6173
12533TIP3    H259015   2.273   6.612   2.601 -0.2727 -0.6300  0.0590
12534TIP3   OH259016   3.527   5.743  15.990 -0.0685 -0.3488 -0.1768
12534TIP3    H159017   3.511   5.690  16.068  0.3724 -0.0047  0.1541
12534TIP3    H259018   3.599   5.699  15.946  1.7054  1.0666  1.1663
12535TIP3   OH259019   3.825   5.156   4.511 -0.0248 -0.3710 -0.1061
12535TIP3    H159020   3.756   5.220   4.491  0.2634  0.0603  0.2458
12535TIP3    H259021   3.831   5.102   4.433  0.0375  0.3221 -0.5919
12536TIP3   OH259022   1.733   3.938  17.387  0.0104 -0.0961 -0.2164
12536TIP3    H159023   1.787   3.864  17.415  0.5517  0.5055  0.3343
12536TIP3    H259024   1.724   3.992  17.465 -1.5546 -0.2745 -0.2368
12537TIP3   OH259025   5.890   3.150  11.121 -0.5982 -0.2535  0.1384
12537TIP3    H159026   5.796   3.164  11.109 -0.8165 -1.0426  0.8522
12537TIP3    H259027   5.931   3.197  11.048 -1.4840  0.9355  0.3924
12538TIP3   OH259028   0.244   6.085  16.360  0.1017 -0.9829 -0.6749
12538TIP3    H159029   0.227   6.052  16.271  1.0114 -0.3980 -1.0839
12538TIP3    H259030   0.210   6.017  16.418 -0.3853 -1.4379 -1.4759
12539TIP3   OH259031   2.690   6.573   0.860 -0.3508 -0.4823  0.2681
12539TIP3    H159032   2.778   6.605   0.881 -0.5829 -0.2053  0.8145
12539TIP3    H259033   2.632   6.619   0.920 -0.9005 -0.4989 -0.2411
12540TIP3   OH259034   3.942   2.918   0.245 -0.2373 -0.1780 -0.5616
12540TIP3    H159035   4.008   2.966   0.294  1.3094 -2.5405 -0.1705
12540TIP3    H259036   3.859   2.937   0.289  0.7282 -0.0929  1.2732
12541TIP3   OH259037   2.510   3.340   2.334 -0.2023  0.5599  0.0770
12541TIP3    H159038   2.591   3.330   2.384 -0.3070  0.5298  0.2408
12541TIP3    H259039   2.504   3.434   2.316  0.9946  0.3183 -1.8161
12542TIP3   OH259040   3.281   5.237  16.505 -0.2059  0.7283  0.1819
12542TIP3    H159041   3.377   5.240  16.509 -0.2124  0.9904  0.1746
12542TIP3    H259042   3.261   5.149  16.476  0.0991  1.2260 -1.6339
12543TIP3   OH259043   6.715   5.994   4.275  0.1670  0.2351  0.5058
12543TIP3    H159044   6.804   5.980   4.310 -0.0516  0.0188  0.9971
12543TIP3    H259045   6.680   5.905   4.266 -0.2686  0.3464  1.0501
12544TIP3   OH259046   3.757   6.033  15.474 -0.6534 -0.2900 -0.2819
12544TIP3    H159047   3.811   6.094  15.423 -0.8793  0.6799  0.6073
12544TIP3    H259048   3.683   6.013  15.417  0.0114 -0.6736 -1.0372
12545TIP3   OH259049   3.201   6.270  11.361 -0.1175  0.2757  0.3764
12545TIP3    H159050   3.168   6.220  11.286  0.4738  1.1317 -0.4777
12545TIP3    H259051   3.285   6.305  11.331 -0.0765  0.9820  1.2947
12546TIP3   OH259052   2.199   6.730  15.881  0.0777  0.1849  0.1341
12546TIP3    H159053   2.195   6.714  15.787 -1.4269 -0.0317  0.2192
12546TIP3    H259054   2.167   6.820  15.891 -1.7739 -0.4992  0.6037
12547TIP3   OH259055   2.207   0.330   2.330 -0.3814  0.2877  0.2637
12547TIP3    H159056   2.205   0.416   2.288  0.2865  1.0723  1.7592
12547TIP3    H259057   2.121   0.321   2.371 -0.7493 -0.1380 -0.5748
12548TIP3   OH259058   4.632   5.054  11.804 -1.0341 -0.8587 -0.2060
12548TIP3    H159059   4.639   4.989  11.874  2.1997  0.4656  0.8617
12548TIP3    H259060   4.571   5.120  11.837  1.2302  0.2864  1.9588
12549TIP3   OH259061   6.168   4.528  16.806 -0.3427  0.4340  0.3065
12549TIP3    H159062   6.092   4.509  16.750 -0.2135 -0.6344  0.4625
12549TIP3    H259063   6.239   4.476  16.767 -0.2931 -0.4546  1.5273
12550TIP3   OH259064   4.103   3.691   6.380  0.0602 -0.5363  0.0431
12550TIP3    H159065   4.032   3.650   6.430 -0.5529  0.2128 -0.1930
12550TIP3    H259066   4.073   3.780   6.364  0.6642 -0.4778 -0.8520
12551TIP3   OH259067   1.239   6.546  13.952  0.2732 -0.3944 -0.2007
12551TIP3    H159068   1.239   6.635  13.987 -0.1505 -0.2599 -0.5362
12551TIP3    H259069   1.212   6.555  13.861  0.5939 -0.8282 -0.3461
12552TIP3   OH259070   3.733   0.310  11.454  0.2617  0.2540  0.0800
12552TIP3    H159071   3.684   0.247  11.508 -0.2346  2.8794  2.9608
12552TIP3    H259072   3.678   0.323  11.377 -0.8831 -0.8998  0.6654
12553TIP3   OH259073   6.278   4.315  10.917 -0.1282  0.3101 -0.0383
12553TIP3    H159074   6.204   4.369  10.945  1.5868  0.8469  4.3846
12553TIP3    H259075   6.241   4.229  10.900 -2.0052  1.0563  0.1000
12554TIP3   OH259076   5.919   3.029   1.324  0.2193 -0.2857  0.1061
12554TIP3    H159077   6.002   2.993   1.355  0.2219  0.5851  1.1427
12554TIP3    H259078   5.857   3.016   1.396 -0.0401  0.8367  0.1128
12555TIP3   OH259079   6.702   4.739   2.622  0.5123  0.1696 -0.4520
12555TIP3    H159080   6.617   4.738   2.577 -0.2402  0.4022  0.8869
12555TIP3    H259081   6.767   4.736   2.552 -0.6020 -0.5548 -1.4983
12556TIP3   OH259082   3.215   4.232   3.603 -0.2596  0.1297  0.1663
12556TIP3    H159083   3.298   4.258   3.564 -1.1594  1.4697 -0.9389
12556TIP3    H259084   3.232   4.145   3.640  1.6720  0.4633  0.1748
12557TIP3   OH259085   5.742   6.337   4.438  0.6592  0.0031 -0.6712
12557TIP3    H159086   5.657   6.321   4.480  1.1263 -1.3111 -0.1667
12557TIP3    H259087   5.752   6.432   4.439 -0.6903  0.1677 -0.5101
12558TIP3   OH259088   3.345   0.371   2.491 -0.1996 -0.0668  0.6979
12558TIP3    H159089   3.388   0.313   2.554 -0.4560  1.0065  1.9251
12558TIP3    H259090   3.390   0.455   2.502 -1.0222  0.4419  0.2731
12559TIP3   OH259091   4.894   2.369   0.133  0.1397  0.0144 -0.8673
12559TIP3    H159092   4.854   2.346   0.049  1.8765 -1.7380 -1.2601
12559TIP3    H259093   4.858   2.306   0.195  0.4584 -0.0099 -0.7097
12560TIP3   OH259094   3.257   2.073  14.914 -0.4576 -0.7594 -0.3365
12560TIP3    H159095   3.165   2.079  14.892 -0.6317 -0.3993  0.4616
12560TIP3    H259096   3.299   2.043  14.833 -1.6499 -3.9401  0.0832
12561TIP3   OH259097   4.949   2.852   3.268 -0.0902 -0.6800 -0.6511
12561TIP3    H159098   4.880   2.912   3.299 -0.6995 -1.5468 -0.2933
12561TIP3    H259099   4.902   2.774   3.239  0.7462 -1.3442 -0.2741
12562TIP3   OH259100   2.796   3.339   2.402 -0.0726  0.4925 -0.0206
12562TIP3    H159101   2.859   3.337   2.331 -1.0203  0.8027 -0.8885
12562TIP3    H259102   2.821   3.415   2.455  0.2017  0.6811 -0.4233
12563TIP3   OH259103   2.942   3.208  17.324 -0.1429  0.6424  0.4834
12563TIP3    H159104   2.900   3.123  17.313  1.5479 -0.3431  1.1994
12563TIP3    H259105   2.870   3.271  17.328 -1.4067 -0.6735 -0.6512
12564TIP3   OH259106   1.694   3.431   5.928  0.8909  0.0815  0.5387
12564TIP3    H159107   1.717   3.350   5.973  1.4683 -0.3166 -0.4421
12564TIP3    H259108   1.744   3.499   5.973 -0.7239  0.1738  2.3459
12565TIP3   OH259109   2.233   1.459  14.703  0.2883 -0.3843  0.4159
12565TIP3    H159110   2.179   1.538  14.702 -3.3883 -2.6748  0.6240
12565TIP3    H259111   2.273   1.458  14.790 -1.1608  0.3526  1.1280
12566TIP3   OH259112   2.121   4.697  12.996  0.3602 -0.2691  0.1422
12566TIP3    H159113   2.159   4.609  13.003  1.2195  0.0380 -0.4494
12566TIP3    H259114   2.196   4.756  13.006  0.0383  0.3595 -0.9755
12567TIP3   OH259115   5.017   1.066  12.174 -0.2617  0.0098 -0.4158
12567TIP3    H159116   4.975   1.086  12.090  0.9674 -0.1112 -1.0956
12567TIP3    H259117   5.002   1.144  12.227 -0.4447  0.3851 -1.0026
12568TIP3   OH259118   3.451   2.613  17.367 -0.2087  0.6738 -0.2994
12568TIP3    H159119   3.374   2.595  17.421  0.2546  1.4201  0.6261
12568TIP3    H259120   3.493   2.527  17.357 -0.8381  0.3610 -0.3334
12569TIP3   OH259121   2.316   0.278  14.119  0.6521  0.4023 -0.4147
12569TIP3    H159122   2.319   0.244  14.029  1.6596 -2.4513  0.6047
12569TIP3    H259123   2.224   0.272  14.144  0.5443  0.1245 -0.8717
12570TIP3   OH259124   5.920   2.381   0.449 -0.2872  0.1543  0.1014
12570TIP3    H159125   5.897   2.431   0.527  1.3349  0.7104  0.2614
12570TIP3    H259126   5.844   2.390   0.391 -0.8922  1.0136  0.9942
12571TIP3   OH259127   2.849   2.835  15.050  0.0651  0.3386 -0.1462
12571TIP3    H159128   2.911   2.796  14.988 -1.7416 -3.8468  0.3235
12571TIP3    H259129   2.768   2.847  14.999 -0.5798 -0.3811  0.6857
12572TIP3   OH259130   0.108   5.284   1.866 -0.2095 -0.5958 -0.5251
12572TIP3    H159131   0.046   5.260   1.797 -1.5034 -2.3246  1.1380
12572TIP3    H259132   0.071   5.364   1.904 -0.0995 -0.2718 -1.0888
12573TIP3   OH259133   5.604   0.533  16.614 -0.5608 -0.4245 -0.1602
12573TIP3    H159134   5.691   0.531  16.576 -0.2728 -2.3057  0.4708
12573TIP3    H259135   5.547   0.498  16.545 -0.7337  0.2163 -0.3493
12574TIP3   OH259136   4.913   1.039   1.937  0.3339  0.1194 -0.0285
12574TIP3    H159137   4.992   1.017   1.986 -0.1972  1.1978  1.3522
12574TIP3    H259138   4.925   0.995   1.852  1.5184 -1.3359  0.8356
12575TIP3   OH259139   6.643   0.231   1.416  0.6635  0.4551  0.5452
12575TIP3    H159140   6.605   0.199   1.498  0.8728  1.0208  0.8670
12575TIP3    H259141   6.672   0.320   1.436 -0.1706  0.9660 -0.4254
12576TIP3   OH259142   5.351   6.501  13.994  0.1625  0.1236 -0.4454
12576TIP3    H159143   5.328   6.593  14.004 -1.9682 -0.4064  0.1016
12576TIP3    H259144   5.304   6.472  13.916 -1.6739 -1.1635  1.0458
12577TIP3   OH259145   0.433   4.464   3.512 -0.5131 -0.9064  0.3567
12577TIP3    H159146   0.419   4.547   3.557  3.4095  0.0438  0.2117
12577TIP3    H259147   0.435   4.488   3.419 -1.4775 -1.5698  0.1596
12578TIP3   OH259148   0.990   6.731   3.423  0.9193 -0.1142  0.5899
12578TIP3    H159149   0.982   6.767   3.335 -1.9244  0.4616  1.0023
12578TIP3    H259150   1.018   6.640   3.409  0.8656  0.0636 -0.8634
12579TIP3   OH259151   2.437   0.257  14.777 -0.2529  0.4308 -0.1753
12579TIP3    H159152   2.514   0.242  14.832  0.8086 -0.5784 -1.8394
12579TIP3    H259153   2.472   0.299  14.699 -1.8016  2.3477  0.0917
12580TIP3   OH259154   2.183   4.680  13.678 -0.4619  0.0388  0.6186
12580TIP3    H159155   2.271   4.717  13.687 -0.6897  1.0296 -0.7957
12580TIP3    H259156   2.125   4.750  13.707 -0.8213 -0.0508  0.1371
12581TIP3   OH259157   5.752   4.447   2.144 -0.3630  0.2911  0.9112
12581TIP3    H159158   5.808   4.375   2.116  0.2062  0.4092  1.7055
12581TIP3    H259159   5.756   4.446   2.240 -0.8341  0.9979  0.9557
12582TIP3   OH259160   0.955   3.015  16.297 -0.1219  0.3687  0.0021
12582TIP3    H159161   1.011   3.092  16.298  0.0691  0.4734 -3.9855
12582TIP3    H259162   0.870   3.047  16.268 -0.4678 -0.7160 -0.2261
12583TIP3   OH259163   3.251   0.631  15.935  0.4361 -0.3968 -0.1580
12583TIP3    H159164   3.285   0.672  15.855 -1.6731  0.7848 -0.5549
12583TIP3    H259165   3.157   0.622  15.918 -0.0288 -0.3342  2.1048
12584TIP3   OH259166   0.003   5.126  10.660  0.5727  0.0046  0.2158
12584TIP3    H159167  -0.019   5.033  10.671 -0.1853  0.2929  1.3255
12584TIP3    H259168   0.094   5.133  10.688  1.0074 -0.5848 -0.9668
12585TIP3   OH259169   3.051   5.774  12.595 -0.4556 -0.2327 -0.6755
12585TIP3    H159170   3.063   5.848  12.655  0.0280 -0.1589 -0.8546
12585TIP3    H259171   3.125   5.717  12.614 -1.0626 -0.8837 -0.2406
12586TIP3   OH259172   5.067   1.846  16.039  0.1005  0.2220  0.1028
12586TIP3    H159173   5.030   1.833  15.952  1.3739 -1.2373 -0.2724
12586TIP3    H259174   4.998   1.889  16.089 -1.0809  0.0164 -1.2940
12587TIP3   OH259175   4.708   5.461   3.177 -0.8777  0.9795 -0.3499
12587TIP3    H159176   4.617   5.440   3.196 -0.6152  0.5897  0.5179
12587TIP3    H259177   4.713   5.464   3.082 -1.0023 -2.6759 -0.5954
12588TIP3   OH259178   4.563   0.549  12.006 -0.5849  0.1260 -0.1153
12588TIP3    H159179   4.563   0.527  11.913 -1.5576 -1.9680  0.3192
12588TIP3    H259180   4.655   0.551  12.031 -0.2955  1.1065 -1.1745
12589TIP3   OH259181   0.606   0.933  15.181 -0.4449  0.3654 -0.6109
12589TIP3    H159182   0.673   1.000  15.192 -1.5901  1.3125  1.0580
12589TIP3    H259183   0.623   0.871  15.252 -0.6615  0.0099 -0.8677
12590TIP3   OH259184   1.351   0.084  16.174  0.4784  0.3513  0.2311
12590TIP3    H159185   1.320   0.152  16.114  1.7095  0.6155 -0.1321
12590TIP3    H259186   1.346   0.125  16.260 -1.4264 -0.0753  0.3761
12591TIP3   OH259187   4.118   0.180  13.725  0.3299 -0.1832  0.0208
12591TIP3    H159188   4.161   0.212  13.645  0.5508  2.8005  1.1924
12591TIP3    H259189   4.034   0.227  13.726 -0.8848 -2.2428  0.2452
12592TIP3   OH259190   1.496   2.745  13.488 -0.0274 -0.4400  0.1740
12592TIP3    H159191   1.525   2.804  13.419 -0.1485 -0.5747  0.0077
12592TIP3    H259192   1.406   2.722  13.465 -0.6419  0.7885  1.2353
12593TIP3   OH259193   3.350   1.214   0.171  0.0210  0.4727  0.6603
12593TIP3    H159194   3.260   1.218   0.138 -0.2199 -1.6837  0.9513
12593TIP3    H259195   3.346   1.257   0.257 -0.8747 -0.1632  0.9503
12594TIP3   OH259196   5.318   3.174  16.532  0.4047  0.4896  0.3946
12594TIP3    H159197   5.239   3.224  16.512  0.5627  0.0212 -1.6848
12594TIP3    H259198   5.295   3.122  16.609 -1.0184  0.9899  0.3323
12595TIP3   OH259199   0.157   3.236   5.256  0.1995 -0.3547  0.0199
12595TIP3    H159200   0.190   3.148   5.277 -0.9332 -0.2252  2.7329
12595TIP3    H259201   0.079   3.245   5.309  0.2860  2.3327 -0.2022
12596TIP3   OH259202   3.054   0.108  17.103  0.2754 -0.5715 -0.6533
12596TIP3    H159203   3.059   0.203  17.102 -0.1951 -0.4210  2.4314
12596TIP3    H259204   2.962   0.088  17.121  0.2704 -1.6677 -1.7251
12597TIP3   OH259205   3.556   3.644   0.585  0.0146  0.2148  0.3544
12597TIP3    H159206   3.592   3.724   0.623 -1.7064  0.9560  0.5203
12597TIP3    H259207   3.622   3.615   0.523  1.5843  0.6271  1.7422
12598TIP3   OH259208   1.729   4.352  12.874 -0.4488  0.0468 -0.2265
12598TIP3    H159209   1.819   4.326  12.853 -0.5299  0.2081 -0.7766
12598TIP3    H259210   1.725   4.347  12.970  0.4893  1.1184 -0.0963
12599TIP3   OH259211   6.721   0.965  17.222 -0.1523  0.2822  0.5323
12599TIP3    H159212   6.699   0.950  17.130 -0.5740 -0.5154  0.7559
12599TIP3    H259213   6.799   0.912  17.237 -0.3307  0.0790  0.7436
12600TIP3   OH259214   5.341   4.265   4.147  0.0003 -0.4362 -0.5821
12600TIP3    H159215   5.358   4.193   4.208  1.4144 -0.6979 -1.2335
12600TIP3    H259216   5.315   4.338   4.203 -0.1511 -1.0818  0.2120
12601TIP3   OH259217   2.792   1.450   5.924 -0.2353  0.2851 -0.0340
12601TIP3    H159218   2.696   1.445   5.922 -0.2198  0.1344 -0.7884
12601TIP3    H259219   2.811   1.544   5.914 -0.3174  0.5080  1.6583
12602TIP3   OH259220   0.022   2.017  13.764 -0.0155 -0.1576 -0.4299
12602TIP3    H159221  -0.053   1.982  13.812 -1.1495  1.3704 -0.9937
12602TIP3    H259222   0.099   1.986  13.812 -1.0561 -0.1716  1.2901
12603TIP3   OH259223   2.413   4.641   3.613  0.2964 -0.1132 -0.3248
12603TIP3    H159224   2.364   4.668   3.691  0.1517 -2.1468  0.3427
12603TIP3    H259225   2.346   4.634   3.545  0.2205  0.4647 -0.3126
12604TIP3   OH259226   5.080   5.842   5.457  0.2244 -0.1394 -0.0735
12604TIP3    H159227   5.093   5.926   5.503 -3.2245 -0.1627  1.2381
12604TIP3    H259228   5.169   5.814   5.434  1.7320  2.5540  1.7997
12605TIP3   OH259229   2.739   3.575   3.386 -0.2391 -0.0243 -0.0179
12605TIP3    H159230   2.807   3.508   3.377 -1.2164 -0.8564 -1.8786
12605TIP3    H259231   2.750   3.609   3.475  2.1931 -0.5340 -0.0540
12606TIP3   OH259232   0.439   0.315  11.982  0.4787 -0.2554  0.7329
12606TIP3    H159233   0.411   0.340  11.894  0.5308  0.6716  0.9657
12606TIP3    H259234   0.358   0.289  12.026  0.7068 -2.9022 -0.2202
12607TIP3   OH259235   3.255   5.159  13.590  0.2108  0.6028  0.7167
12607TIP3    H159236   3.311   5.095  13.634  0.3329  0.0557 -0.1997
12607TIP3    H259237   3.308   5.191  13.517 -1.0806 -0.9479 -1.0184
12608TIP3   OH259238   1.752   1.589  15.572  0.3807  0.5122 -0.1235
12608TIP3    H159239   1.723   1.645  15.644 -0.2285 -0.3864  0.3389
12608TIP3    H259240   1.799   1.649  15.513 -0.8135  1.6377  0.0218
12609TIP3   OH259241   0.069   2.372   5.386  0.2914  0.1492 -0.4530
12609TIP3    H159242   0.027   2.458   5.390  1.2708  0.7091 -1.6395
12609TIP3    H259243   0.097   2.355   5.476  0.2694  1.1753 -0.2428
12610TIP3   OH259244   0.798   0.521   3.717  0.0730 -0.3369  0.5561
12610TIP3    H159245   0.871   0.582   3.710 -0.5328  0.7375  2.7021
12610TIP3    H259246   0.839   0.435   3.724  0.9291 -0.4290 -3.2166
12611TIP3   OH259247   1.987   6.452  15.667  0.2619  0.0659 -0.3436
12611TIP3    H159248   2.017   6.518  15.730  0.8130  0.7640 -1.2954
12611TIP3    H259249   1.968   6.503  15.587 -1.5052 -0.6313 -0.4204
12612TIP3   OH259250   6.344   3.470  12.183  0.1371  0.0716 -0.1876
12612TIP3    H159251   6.340   3.410  12.109  1.8416  0.8124 -0.9273
12612TIP3    H259252   6.395   3.424  12.249  1.1800  0.5508 -0.6387
12613TIP3   OH259253   5.976   4.744  11.625  0.3397 -0.3246 -0.0439
12613TIP3    H159254   6.027   4.787  11.694 -0.6092 -1.5066  1.4544
12613TIP3    H259255   5.946   4.815  11.569 -0.2904  0.8612  1.7464
12614TIP3   OH259256   4.814   1.371   1.423  0.1816  0.0541 -0.3974
12614TIP3    H159257   4.755   1.431   1.378  3.3206  1.5040 -2.9793
12614TIP3    H259258   4.829   1.300   1.360  0.2477 -0.9423  0.7069
12615TIP3   OH259259   4.232   4.222   2.925  0.3070 -0.3101  0.3216
12615TIP3    H159260   4.195   4.166   2.993  2.0990  1.1233  2.6209
12615TIP3    H259261   4.325   4.198   2.921  0.3289 -0.1262 -1.4534
12616TIP3   OH259262   1.824   0.616   4.581  0.1138  0.6377  0.6274
12616TIP3    H159263   1.856   0.527   4.593  0.6340  0.6743 -0.3951
12616TIP3    H259264   1.888   0.671   4.626  0.4864  0.5760  0.1809
12617TIP3   OH259265   6.743   1.389   2.914  0.4055 -0.0748  0.0531
12617TIP3    H159266   6.774   1.298   2.924  2.5195  0.4982 -0.8185
12617TIP3    H259267   6.703   1.391   2.827  1.4633  0.1075 -0.4377
12618TIP3   OH259268   0.458   5.136  13.655 -0.3681 -0.5343  0.2628
12618TIP3    H159269   0.500   5.054  13.679  0.1878 -0.4639 -0.4714
12618TIP3    H259270   0.463   5.140  13.560 -0.9732  0.0431  0.2456
12619TIP3   OH259271   4.780   6.425  15.995  0.0155 -0.5155  0.4882
12619TIP3    H159272   4.699   6.416  16.044 -0.4230 -0.7300 -0.2620
12619TIP3    H259273   4.754   6.420  15.903  0.6756  1.0258  0.1909
12620TIP3   OH259274   1.752   2.135   4.715 -0.0590 -0.2489  0.2465
12620TIP3    H159275   1.690   2.130   4.788  0.2519 -0.1340  0.5192
12620TIP3    H259276   1.703   2.102   4.640 -0.9123  1.1269  0.1635
12621TIP3   OH259277   6.665   2.937  15.468 -0.5670 -0.3015  0.1173
12621TIP3    H159278   6.599   2.996  15.504 -0.6481 -1.2665  1.6884
12621TIP3    H259279   6.749   2.972  15.499 -0.5507 -0.4771  0.2795
12622TIP3   OH259280   4.650   5.880   6.590  0.3185  0.0987 -0.1070
12622TIP3    H159281   4.641   5.853   6.499  0.6235 -1.6576  0.3380
12622TIP3    H259282   4.657   5.798   6.639 -0.7734  0.9572  1.6125
12623TIP3   OH259283   1.008   5.836   3.681 -0.4908 -0.0312 -0.1155
12623TIP3    H159284   0.996   5.899   3.753  2.2112  1.6165 -0.9580
12623TIP3    H259285   1.031   5.754   3.725 -1.4668  0.2390  0.9487
12624TIP3   OH259286   1.834   4.913  16.902 -0.3018 -0.1619  0.2111
12624TIP3    H159287   1.829   4.818  16.913 -0.6351 -0.1988 -0.2642
12624TIP3    H259288   1.793   4.948  16.982  1.2330 -0.3902  1.1475
12625TIP3   OH259289   6.308   5.688  16.216 -0.0528  0.0811  0.1988
12625TIP3    H159290   6.322   5.782  16.206  4.1587 -0.2206  1.3706
12625TIP3    H259291   6.267   5.679  16.302 -1.1409  0.8268 -0.2259
12626TIP3   OH259292   2.039   0.697  12.754  0.2223  0.1131 -0.1614
12626TIP3    H159293   1.949   0.724  12.773 -0.3302 -1.6751 -0.0489
12626TIP3    H259294   2.070   0.760  12.689 -0.6705  1.4912  0.6865
12627TIP3   OH259295   5.483   6.306   1.846 -0.3083 -0.1501 -1.0189
12627TIP3    H159296   5.506   6.356   1.924  1.8537 -1.9783 -0.3866
12627TIP3    H259297   5.401   6.263   1.868  0.1525 -0.4480  0.2033
12628TIP3   OH259298   0.928   3.676  11.941  0.3238 -0.0206 -0.4180
12628TIP3    H159299   0.854   3.730  11.913 -0.6826 -1.4033 -0.5241
12628TIP3    H259300   0.987   3.737  11.985 -0.4150  1.2858 -1.1863
12629TIP3   OH259301   2.491   4.818   4.115 -0.1004  0.1384 -0.0685
12629TIP3    H159302   2.579   4.825   4.152  0.0132  0.5943 -0.4199
12629TIP3    H259303   2.489   4.882   4.044 -0.9179  0.5697  0.3337
12630TIP3   OH259304   1.587   4.354   4.350 -0.5800 -0.1677  0.6985
12630TIP3    H159305   1.659   4.292   4.348 -1.2880 -0.9893  0.0733
12630TIP3    H259306   1.569   4.367   4.443  0.1093 -0.2569  0.8498
12631TIP3   OH259307   6.047   2.186  15.181  0.4981  0.1574  0.0423
12631TIP3    H159308   5.975   2.248  15.177  0.4441  0.1101  0.2895
12631TIP3    H259309   6.098   2.211  15.258 -0.7450 -1.4173  1.4643
12632TIP3   OH259310   2.990   4.663   3.094 -0.6519 -0.4120 -0.3533
12632TIP3    H159311   2.968   4.726   3.162 -0.3067 -0.1393 -0.4929
12632TIP3    H259312   3.022   4.586   3.142 -1.4343 -0.6295 -0.1702
12633TIP3   OH259313   4.789   5.358  11.177  0.3039  0.1555  0.9602
12633TIP3    H159314   4.853   5.363  11.248  1.1193  2.0058  0.1599
12633TIP3    H259315   4.833   5.306  11.109  0.6972  0.8484  0.6790
12634TIP3   OH259316   2.607   4.427   6.172 -0.2691  0.3289 -0.3403
12634TIP3    H159317   2.687   4.384   6.202 -0.5287 -0.6461 -0.9899
12634TIP3    H259318   2.537   4.381   6.219 -0.6012 -0.4982 -1.6098
12635TIP3   OH259319   2.538   0.509   5.864  0.1957 -0.0156 -0.4016
12635TIP3    H159320   2.561   0.439   5.803 -1.5368 -0.8138 -0.1899
12635TIP3    H259321   2.446   0.529   5.846 -0.3663 -0.2436  1.8549
12636TIP3   OH259322   1.109   4.982  16.162  0.2802 -0.7926 -0.0767
12636TIP3    H159323   1.079   4.940  16.242 -1.4956  0.9131  0.2239
12636TIP3    H259324   1.033   4.979  16.104  0.5892  0.6539 -0.5835
12637TIP3   OH259325   2.188   2.670  12.524 -0.3281  0.0881  0.2898
12637TIP3    H159326   2.182   2.753  12.478  0.9317  0.0160 -0.0251
12637TIP3    H259327   2.257   2.682  12.589 -0.2022 -0.6750  0.3126
12638TIP3   OH259328   4.196   5.130  11.274 -0.1623  0.0491  0.0154
12638TIP3    H159329   4.179   5.217  11.309  0.4261  0.7989 -1.5001
12638TIP3    H259330   4.199   5.141  11.179  1.1233 -1.3887 -0.1632
12639TIP3   OH259331   3.149   4.380  11.779  0.2301 -0.1373 -0.4431
12639TIP3    H159332   3.060   4.408  11.759 -0.0492  1.6402  2.6012
12639TIP3    H259333   3.193   4.460  11.808  1.7734 -1.5159  1.2924
12640TIP3   OH259334   2.338   4.645   2.176 -0.0598  0.8348  0.1110
12640TIP3    H159335   2.379   4.727   2.201  0.7467  0.1904  0.9872
12640TIP3    H259336   2.393   4.611   2.105  0.6604  0.2249  0.9331
12641TIP3   OH259337   1.298   1.564  11.507 -0.2386  0.8070  0.4518
12641TIP3    H159338   1.345   1.483  11.526  0.0783  0.8914  0.0371
12641TIP3    H259339   1.214   1.553  11.550 -0.0886  0.3798  0.6478
12642TIP3   OH259340   5.478   3.436  12.376  0.8929 -0.1457 -0.2309
12642TIP3    H159341   5.435   3.380  12.441 -0.2927  1.2751  0.2778
12642TIP3    H259342   5.571   3.431  12.397  0.6585 -0.7894  0.7011
12643TIP3   OH259343   6.649   6.426   5.759  0.2330  0.1910  0.3703
12643TIP3    H159344   6.572   6.371   5.746  1.4611 -1.1567 -2.1467
12643TIP3    H259345   6.635   6.470   5.842 -1.9187 -2.1879  1.3683
12644TIP3   OH259346   3.542   1.261  12.966  0.6837 -0.5354 -0.2167
12644TIP3    H159347   3.597   1.185  12.950 -0.1199 -2.1675  3.6245
12644TIP3    H259348   3.580   1.303  13.043 -2.1883 -0.5719  1.3691
12645TIP3   OH259349   0.604   2.196  14.482  0.4912  0.0785 -0.6484
12645TIP3    H159350   0.615   2.203  14.577  3.4976 -1.1208 -0.7979
12645TIP3    H259351   0.683   2.234  14.446  0.5320 -1.6695 -2.5672
12646TIP3   OH259352   1.729   3.049  11.636 -0.3555  0.0380 -0.4843
12646TIP3    H159353   1.731   3.059  11.731  0.0330  0.7002 -0.5544
12646TIP3    H259354   1.819   3.069  11.608  0.0947 -2.1989 -0.8108
12647TIP3   OH259355   3.691   0.666   1.263 -0.1968 -0.0120 -0.2267
12647TIP3    H159356   3.599   0.693   1.266 -0.7582 -1.6059 -1.6594
12647TIP3    H259357   3.692   0.588   1.209  2.0800  0.1809 -0.5833
12648TIP3   OH259358   4.515   5.964   2.749  0.1593 -0.5468  0.4415
12648TIP3    H159359   4.515   5.875   2.784  0.4871 -0.6975  0.0703
12648TIP3    H259360   4.470   6.016   2.816 -2.8832 -1.5055 -0.7045
12649TIP3   OH259361   1.056   2.999  17.225 -0.4742  0.0053 -0.2255
12649TIP3    H159362   0.993   3.052  17.177  0.0140  1.9993  1.2007
12649TIP3    H259363   1.003   2.929  17.263 -1.3312  0.0322 -1.3094
12650TIP3   OH259364   0.962   0.054   1.537  0.1639 -0.3834  0.2982
12650TIP3    H159365   0.971   0.043   1.443 -0.4324 -1.5525  0.3662
12650TIP3    H259366   1.018   0.129   1.558  0.1466  0.0158 -1.0029
12651TIP3   OH259367   0.418   3.738  13.853 -0.7619  0.3411 -0.3546
12651TIP3    H159368   0.468   3.814  13.882  0.8964 -0.3029 -1.4060
12651TIP3    H259369   0.379   3.765  13.770 -1.9015  0.7033  0.2674
12652TIP3   OH259370   6.019   1.114  16.798  0.7865  0.6601  0.3754
12652TIP3    H159371   5.951   1.056  16.832 -2.1846  3.2079 -0.7214
12652TIP3    H259372   6.099   1.088  16.845 -0.9898 -2.1886  2.1148
12653TIP3   OH259373   3.389   2.103   1.944 -0.1230  0.0817 -0.0394
12653TIP3    H159374   3.413   2.069   1.858 -1.3909 -0.5170 -0.1724
12653TIP3    H259375   3.360   2.192   1.927 -1.6823 -0.4769 -0.4633
12654TIP3   OH259376   4.178   6.510   0.255  0.0726  0.2618  0.5186
12654TIP3    H159377   4.142   6.436   0.206 -1.1414  1.2113 -0.0897
12654TIP3    H259378   4.239   6.552   0.195 -1.0117  1.1074 -0.0427
12655TIP3   OH259379   4.245   6.347  13.166  0.0813 -0.2747  0.5267
12655TIP3    H159380   4.165   6.300  13.189  1.2374 -2.2595  0.6997
12655TIP3    H259381   4.222   6.397  13.087 -1.0139 -1.7302 -0.1174
12656TIP3   OH259382   2.534   6.592  14.322  0.3028 -0.2975  0.3012
12656TIP3    H159383   2.457   6.621  14.273  0.4357 -0.5622 -0.0677
12656TIP3    H259384   2.608   6.632  14.276  0.3638  0.3241  0.9185
12657TIP3   OH259385   4.724   5.360   2.602 -0.2900  0.7966  0.8040
12657TIP3    H159386   4.678   5.403   2.530  0.5498  0.0900 -0.1670
12657TIP3    H259387   4.679   5.277   2.613  1.1866 -0.2503 -0.6778
12658TIP3   OH259388   0.250   3.061   2.146  0.2108 -0.3307  0.3354
12658TIP3    H159389   0.286   3.023   2.226  1.0850  0.0987  0.1466
12658TIP3    H259390   0.164   3.095   2.173  0.3537 -0.4844  1.0094
12659TIP3   OH259391   3.499   2.572  12.221  0.7906  0.4864  0.4375
12659TIP3    H159392   3.459   2.571  12.308 -0.5962 -0.0273 -0.1830
12659TIP3    H259393   3.458   2.498  12.175  0.5646  1.5090 -1.0596
12660TIP3   OH259394   2.772   6.169   5.324  0.4922  0.6488 -0.3455
12660TIP3    H159395   2.708   6.110   5.366  1.4747  1.9185  3.3522
12660TIP3    H259396   2.812   6.116   5.255 -2.6213 -1.0368 -1.0699
12661TIP3   OH259397   4.282   1.748   4.174  0.5289 -0.8125  0.6471
12661TIP3    H159398   4.355   1.808   4.159  1.5134 -1.8176  1.2350
12661TIP3    H259399   4.305   1.669   4.124 -1.4593 -0.2371 -1.3679
12662TIP3   OH259400   2.393   2.347   0.051 -0.0013  0.1578  0.0348
12662TIP3    H159401   2.303   2.339   0.083  0.9182 -0.8740  2.5703
12662TIP3    H259402   2.434   2.410   0.109  1.1685 -0.0592 -0.5229
12663TIP3   OH259403   2.527   3.150  16.522  0.3735  0.4403  0.1224
12663TIP3    H159404   2.619   3.175  16.529  0.2134  1.3874 -0.8477
12663TIP3    H259405   2.491   3.210  16.456 -0.4983 -1.1089 -0.8722
12664TIP3   OH259406   2.392   0.561  15.683  0.2033  0.1310  0.5283
12664TIP3    H159407   2.379   0.556  15.588 -1.3395  0.6093  0.6835
12664TIP3    H259408   2.462   0.625  15.694 -0.6211  1.2185 -0.2667
12665TIP3   OH259409   4.288   5.085  13.992 -0.0177  0.2121  0.2895
12665TIP3    H159410   4.359   5.108  13.932  0.3841 -0.3635  0.5452
12665TIP3    H259411   4.316   5.121  14.076 -0.2784  0.4401  0.2828
12666TIP3   OH259412   3.439   3.885  15.302 -0.4764  0.2162  0.2081
12666TIP3    H159413   3.360   3.839  15.275  0.3255 -0.1678 -1.6740
12666TIP3    H259414   3.434   3.970  15.259 -0.9980  1.1944  2.0724
12667TIP3   OH259415   4.282   2.250  15.245  0.3977 -0.2984 -0.1897
12667TIP3    H159416   4.288   2.297  15.162 -0.0945  2.5978  1.3049
12667TIP3    H259417   4.193   2.215  15.247  0.4410 -0.4684 -0.8810
12668TIP3   OH259418   4.984   4.298   1.995 -0.8066  0.2959  0.1900
12668TIP3    H159419   4.959   4.210   2.025 -1.8544  1.0165  1.5663
12668TIP3    H259420   4.963   4.299   1.902 -1.5168 -0.6679  0.3282
12669TIP3   OH259421   3.686   4.694  17.232 -0.3714 -0.0937  0.0857
12669TIP3    H159422   3.653   4.783  17.242 -0.0793  0.1844 -1.1519
12669TIP3    H259423   3.608   4.638  17.231 -0.5567  0.1498  0.8278
12670TIP3   OH259424   1.690   6.511  15.835  0.3731 -0.2386 -0.2102
12670TIP3    H159425   1.616   6.569  15.819  0.1478 -0.8106 -1.3269
12670TIP3    H259426   1.766   6.569  15.841 -0.0961  0.3076  0.4821
12671TIP3   OH259427   0.166   5.776  14.263 -0.1659  0.3003  0.0911
12671TIP3    H159428   0.175   5.847  14.200  0.2299 -0.0441 -0.2419
12671TIP3    H259429   0.169   5.819  14.349  1.3079  0.5658 -0.0709
12672TIP3   OH259430   5.893   3.334   5.554  0.2385 -0.0314  0.3936
12672TIP3    H159431   5.947   3.315   5.478 -1.0496 -0.4732 -0.4528
12672TIP3    H259432   5.893   3.253   5.605 -0.8606 -0.5814 -0.4246
12673TIP3   OH259433   5.471   1.494   2.781 -0.1943 -0.6510  0.3894
12673TIP3    H159434   5.383   1.459   2.790 -0.1950 -0.6262  0.4838
12673TIP3    H259435   5.485   1.502   2.687  0.1088 -1.6768  0.3335
12674TIP3   OH259436   5.212   5.326  16.266 -0.2970  0.1062  0.3950
12674TIP3    H159437   5.244   5.271  16.195  0.7559  2.1902 -0.8450
12674TIP3    H259438   5.248   5.285  16.345  0.2648 -1.0922 -0.4453
12675TIP3   OH259439   2.636   2.278   0.261 -0.2198  0.0767 -0.1674
12675TIP3    H159440   2.625   2.346   0.328  1.3791 -0.9129  1.1748
12675TIP3    H259441   2.580   2.206   0.290  0.3554 -0.2934  0.0409
12676TIP3   OH259442   5.593   0.175   1.890 -0.2286  0.5507  0.1380
12676TIP3    H159443   5.534   0.235   1.935  0.0231  0.2473  0.8950
12676TIP3    H259444   5.678   0.188   1.933  0.8918  2.6531 -2.4276
12677TIP3   OH259445   1.996   1.007   1.865 -0.3495  0.4992  0.2573
12677TIP3    H159446   1.922   1.033   1.810 -0.1122  0.0608 -0.2726
12677TIP3    H259447   2.053   0.957   1.807 -0.9298 -1.4940  1.3103
12678TIP3   OH259448   0.779   4.430  15.486 -0.4159 -0.0962 -0.0425
12678TIP3    H159449   0.785   4.336  15.507 -0.1190  0.2377  1.4654
12678TIP3    H259450   0.708   4.435  15.422 -0.7574 -1.3020  0.2040
12679TIP3   OH259451   3.172   3.452   4.826 -0.3023  0.3573 -0.6073
12679TIP3    H159452   3.254   3.464   4.874  0.2833  1.0474 -1.7327
12679TIP3    H259453   3.198   3.407   4.746 -1.0358  0.5389 -0.9482
12680TIP3   OH259454   2.181   0.725   6.663 -0.4238 -0.5710 -0.1147
12680TIP3    H159455   2.186   0.808   6.614  0.9402 -0.8084 -0.4088
12680TIP3    H259456   2.215   0.746   6.750 -0.6284 -0.6929 -0.0045
12681TIP3   OH259457   3.025   3.153  14.327 -0.3310  0.2800  0.0404
12681TIP3    H159458   3.008   3.231  14.275  0.0728  0.7308  0.5816
12681TIP3    H259459   2.964   3.159  14.401 -0.9574 -0.3962 -0.4127
12682TIP3   OH259460   5.478   3.687   3.921 -0.1975  0.5114 -0.4161
12682TIP3    H159461   5.547   3.621   3.926  1.4437  2.1483 -0.3042
12682TIP3    H259462   5.484   3.721   3.832 -0.7337  0.7967 -0.3482
12683TIP3   OH259463   1.642   6.487  10.814  0.1308  0.0573  0.5142
12683TIP3    H159464   1.634   6.582  10.829  4.2118  0.4348  1.7663
12683TIP3    H259465   1.701   6.480  10.738 -0.3708 -1.5030  0.2384
12684TIP3   OH259466   2.881   0.057  11.912 -0.2452 -0.6588 -0.5116
12684TIP3    H159467   2.879   0.057  12.008 -0.8869 -1.9461 -0.4962
12684TIP3    H259468   2.794   0.088  11.886 -0.4052 -1.1999 -0.6472
12685TIP3   OH259469   5.076   4.838  12.059 -0.2786  0.6058  0.0315
12685TIP3    H159470   5.059   4.917  12.008  1.7234  1.9272  1.2551
12685TIP3    H259471   5.109   4.870  12.143  0.9157 -1.5190  0.4702
12686TIP3   OH259472   5.730   6.543  16.295 -0.7296  0.1300 -0.3710
12686TIP3    H159473   5.789   6.566  16.366 -0.7971  0.2269 -0.3476
12686TIP3    H259474   5.770   6.580  16.217 -0.4124 -0.3766 -0.4552
12687TIP3   OH259475   4.705   5.021   3.446  0.2501 -0.2562  0.3940
12687TIP3    H159476   4.637   5.003   3.511  1.2415 -2.4814  0.9036
12687TIP3    H259477   4.716   5.116   3.448 -2.0325  0.0459  1.0811
12688TIP3   OH259478   2.772   4.024  16.858  0.6600 -0.3072  0.3344
12688TIP3    H159479   2.685   3.992  16.832  0.5359  0.0429  0.3089
12688TIP3    H259480   2.758   4.065  16.943  0.6727  0.3169  0.0372
12689TIP3   OH259481   0.119   0.975   0.028 -0.1517  0.1312 -0.5207
12689TIP3    H159482   0.030   0.955  -0.003 -0.2672  0.4919 -0.4290
12689TIP3    H259483   0.170   0.898   0.004 -0.8549 -0.8726  1.0215
12690TIP3   OH259484   5.203   0.882  15.994  0.2615  0.3656  0.0963
12690TIP3    H159485   5.164   0.931  15.922 -1.0979 -0.8942 -0.0717
12690TIP3    H259486   5.177   0.929  16.073 -1.1146 -0.0780 -0.0578
12691TIP3   OH259487   3.565   0.135  14.491 -0.2355 -0.2327  0.0860
12691TIP3    H159488   3.532   0.102  14.408 -0.7906 -1.6324  0.8357
12691TIP3    H259489   3.652   0.169  14.470 -0.2860 -0.7500 -1.0239
12692TIP3   OH259490   6.008   6.749   2.866 -0.3117  0.6526  0.2186
12692TIP3    H159491   6.050   6.689   2.927  0.5525  1.3783  0.3637
12692TIP3    H259492   5.987   6.826   2.919  0.0721  1.1274 -0.3009
12693TIP3   OH259493   3.439   3.734  10.556 -0.4849 -0.1981  0.1271
12693TIP3    H159494   3.401   3.673  10.493 -1.6985 -0.6690  1.2537
12693TIP3    H259495   3.376   3.736  10.628  0.2978  1.1931  0.8229
12694TIP3   OH259496   4.915   5.048  11.728 -0.0946 -0.1503 -0.5635
12694TIP3    H159497   4.939   5.080  11.641 -1.8619  0.6564 -0.7763
12694TIP3    H259498   4.848   4.982  11.712 -0.4124 -0.0197  0.1953
12695TIP3   OH259499   2.438   0.873   1.718  0.2554  0.2064  0.3379
12695TIP3    H159500   2.343   0.872   1.707 -0.0627  2.0042  2.1734
12695TIP3    H259501   2.457   0.800   1.776  0.2162 -0.9595 -1.0559
12696TIP3   OH259502   3.920   2.347  13.212  0.1175  0.1565 -0.2064
12696TIP3    H159503   3.964   2.262  13.214  2.4515  1.2898  0.0365
12696TIP3    H259504   3.829   2.327  13.189  0.9604 -2.2422 -1.8056
12697TIP3   OH259505   4.722   6.126   1.313 -0.1281 -0.4597 -0.5384
12697TIP3    H159506   4.766   6.048   1.346  1.9298  0.1394 -1.7507
12697TIP3    H259507   4.734   6.191   1.383 -1.5247 -1.0619  0.3103
12698TIP3   OH259508   2.774   4.088   2.442  0.1096  0.3599 -0.0311
12698TIP3    H159509   2.751   4.062   2.354  0.3123 -1.4303  0.4175
12698TIP3    H259510   2.838   4.023   2.471  0.4839  1.2428  1.2395
12699TIP3   OH259511   3.223   3.867   3.248 -0.5523  0.0711 -0.5191
12699TIP3    H159512   3.315   3.859   3.225 -0.8233 -1.5072 -1.2039
12699TIP3    H259513   3.214   3.815   3.328 -0.8905  0.0002 -0.6005
12700TIP3   OH259514   1.881   6.193  14.421 -0.7102  0.3410  0.3157
12700TIP3    H159515   1.900   6.111  14.468  0.3916  0.2183 -0.2954
12700TIP3    H259516   1.855   6.164  14.333  2.6892  0.6389 -0.9281
12701TIP3   OH259517   5.594   1.601  12.839 -0.2897 -0.3470 -0.1670
12701TIP3    H159518   5.651   1.528  12.864 -1.0972 -0.0230  3.0779
12701TIP3    H259519   5.649   1.656  12.783  1.4544 -1.7519  0.0612
12702TIP3   OH259520   5.731   5.058  13.864  0.3306 -0.1508  0.0020
12702TIP3    H159521   5.666   5.091  13.926 -0.5608 -1.5055 -0.1504
12702TIP3    H259522   5.814   5.062  13.910 -0.1776 -0.2579  0.9378
12703TIP3   OH259523   5.735   3.908  12.071  0.0915 -0.0246 -0.2181
12703TIP3    H159524   5.757   3.825  12.028  3.1979 -0.0333  1.1315
12703TIP3    H259525   5.689   3.882  12.151  1.3255 -0.5341  0.3582
12704TIP3   OH259526   4.917   6.717   0.291  0.8466 -0.4635  0.1693
12704TIP3    H159527   4.929   6.786   0.226 -1.4685 -0.8753 -0.7804
12704TIP3    H259528   4.921   6.635   0.242 -0.2355 -0.8135  0.6281
12705TIP3   OH259529   1.877   6.162   2.534 -0.3112 -0.3077  0.1249
12705TIP3    H159530   1.953   6.183   2.479 -0.2771  0.2073  0.3630
12705TIP3    H259531   1.803   6.201   2.488 -0.0329  2.0234  1.4579
12706TIP3   OH259532   1.167   6.750  15.228  0.4469 -0.2851 -0.6140
12706TIP3    H159533   1.219   6.699  15.165 -0.8527 -2.5335  0.0320
12706TIP3    H259534   1.082   6.707  15.229 -0.3925  1.2966  0.7991
12707TIP3   OH259535   1.659   5.720  13.780 -0.0804  0.0100  0.1788
12707TIP3    H159536   1.728   5.655  13.789 -0.8085 -0.6110  1.6447
12707TIP3    H259537   1.650   5.733  13.685  2.5536  0.7205 -0.0541
12708TIP3   OH259538   2.197   3.172  11.006 -0.0900 -0.2582 -0.4652
12708TIP3    H159539   2.113   3.130  11.023  0.8340 -1.7109  0.8210
12708TIP3    H259540   2.213   3.160  10.913 -1.1649 -0.2194 -0.6588
12709TIP3   OH259541   6.051   1.051   6.655 -0.4252  0.2037 -0.3366
12709TIP3    H159542   6.058   0.978   6.594 -0.6237 -0.1397  0.0435
12709TIP3    H259543   5.956   1.061   6.669 -0.3750  0.1676  0.0429
12710TIP3   OH259544   1.424   3.525  15.805 -0.1951  0.2411  0.1049
12710TIP3    H159545   1.414   3.549  15.713 -1.0060  0.3437  0.2116
12710TIP3    H259546   1.367   3.587  15.852  1.0071  0.8834  0.7804
12711TIP3   OH259547   6.260   6.426  15.350  1.0415  0.3322 -0.7522
12711TIP3    H159548   6.237   6.421  15.443  1.8811 -1.6088 -0.6124
12711TIP3    H259549   6.352   6.449  15.349  0.9571  0.6633 -1.1255
12712TIP3   OH259550   4.202   5.915   2.637  0.8468 -0.1185  0.6422
12712TIP3    H159551   4.252   5.842   2.673  0.9161 -0.3423  0.1058
12712TIP3    H259552   4.115   5.906   2.676  0.5648 -1.0749 -0.1697
12713TIP3   OH259553   4.685   4.350  10.649 -0.1145  0.1023  0.0023
12713TIP3    H159554   4.697   4.388  10.562  0.7665 -0.9624 -0.3803
12713TIP3    H259555   4.764   4.376  10.697 -0.2355  0.0442  0.2317
12714TIP3   OH259556   6.692   0.375  12.743 -0.2393  0.5156 -0.1494
12714TIP3    H159557   6.752   0.340  12.677  0.5085  2.3749 -0.5025
12714TIP3    H259558   6.683   0.467  12.721 -1.9556  0.6366  0.8939
12715TIP3   OH259559   1.281   0.516   2.703 -0.3584 -0.3193 -0.3692
12715TIP3    H159560   1.317   0.495   2.789 -1.4092 -3.0617 -0.5094
12715TIP3    H259561   1.347   0.484   2.641  0.6873  2.1991 -0.6933
12716TIP3   OH259562   6.647   4.543  16.286 -0.1895 -0.2858  0.3827
12716TIP3    H159563   6.560   4.562  16.322  0.1340  1.3128  0.3851
12716TIP3    H259564   6.699   4.517  16.363 -0.5921 -1.0376  0.4110
12717TIP3   OH259565   5.516   5.515  10.745 -0.2086  0.4398 -0.6283
12717TIP3    H159566   5.421   5.520  10.744 -0.2912 -0.4785  0.4173
12717TIP3    H259567   5.535   5.423  10.727  0.5176  0.7165 -1.3696
12718TIP3   OH259568   3.256   2.974   2.118 -0.4908  0.1873  0.1562
12718TIP3    H159569   3.187   2.995   2.181  0.6022  0.3291  1.3412
12718TIP3    H259570   3.331   3.024   2.148  0.5232 -1.0234 -0.3041
12719TIP3   OH259571   1.232   1.322   0.023 -0.2859 -0.1175 -0.4552
12719TIP3    H159572   1.228   1.287  -0.066  0.2847 -0.4256 -0.3669
12719TIP3    H259573   1.141   1.333   0.049 -0.5641 -2.6998 -0.0444
12720TIP3   OH259574   4.415   4.922   4.551 -0.1128  0.8214 -0.1986
12720TIP3    H159575   4.412   5.013   4.523  1.6303  0.7300 -0.7926
12720TIP3    H259576   4.508   4.901   4.554 -0.4582 -0.7418  0.6076
12721TIP3   OH259577   1.964   0.255  14.946  0.0860 -0.5503 -0.0755
12721TIP3    H159578   2.013   0.186  14.901 -0.0218  0.0687 -1.1858
12721TIP3    H259579   1.885   0.211  14.978 -0.6779 -0.7081 -2.0024
12722TIP3   OH259580   2.638   1.899   2.476 -0.3808 -0.1050 -0.0042
12722TIP3    H159581   2.690   1.904   2.556 -0.0980 -1.2854 -0.0937
12722TIP3    H259582   2.673   1.969   2.420  0.0252  0.1440  0.5494
12723TIP3   OH259583   5.913   4.866   2.745 -0.0079  0.1753  0.4616
12723TIP3    H159584   5.974   4.866   2.819  1.1936  1.6033 -0.4657
12723TIP3    H259585   5.844   4.928   2.771  0.4059  0.6664  0.4080
12724TIP3   OH259586   3.143   6.738   2.067  0.3754  0.3029  0.3210
12724TIP3    H159587   3.055   6.745   2.102  0.5317 -1.2379  1.1184
12724TIP3    H259588   3.201   6.752   2.142  0.8888  2.4223 -0.3904
12725TIP3   OH259589   5.263   6.528   1.845 -0.1842 -0.1972  0.0136
12725TIP3    H159590   5.342   6.556   1.891  1.2504 -1.2059 -1.6876
12725TIP3    H259591   5.196   6.590   1.872  1.1465  0.6485  1.5864
12726TIP3   OH259592   5.801   6.177   6.007 -0.8001  0.3729  0.2089
12726TIP3    H159593   5.735   6.221   6.060 -0.3695  1.6009 -0.2302
12726TIP3    H259594   5.880   6.178   6.061 -0.6895  0.4947  0.0472
12727TIP3   OH259595   2.924   1.304   1.913  0.5569 -0.0388 -0.3896
12727TIP3    H159596   3.011   1.333   1.941 -0.6694  1.8697  1.7998
12727TIP3    H259597   2.915   1.216   1.948  1.8270 -0.5134 -1.2053
12728TIP3   OH259598   5.905   4.175   3.874 -0.1571  0.0391 -0.2593
12728TIP3    H159599   5.962   4.129   3.813  0.6076  0.2706  0.2633
12728TIP3    H259600   5.948   4.164   3.959  0.2128  1.9439 -0.1592
12729TIP3   OH259601   0.066   1.589  10.850 -0.2509  0.0385  0.1111
12729TIP3    H159602   0.108   1.505  10.865 -2.2454 -0.7455  1.8797
12729TIP3    H259603  -0.015   1.567  10.804 -1.2746  0.8068  1.4586
12730TIP3   OH259604   6.033   5.290  12.323  0.2163  0.0976  0.5754
12730TIP3    H159605   6.046   5.382  12.346 -2.3231 -0.1116  3.4683
12730TIP3    H259606   6.071   5.241  12.396  1.8389 -1.2498 -1.0829
12731TIP3   OH259607   3.520   3.690  13.231  0.0293 -0.2498  0.7728
12731TIP3    H159608   3.500   3.665  13.322  0.1467 -0.6029  0.7044
12731TIP3    H259609   3.436   3.688  13.187  0.3206 -3.2249  0.1243
12732TIP3   OH259610   3.214   0.023   5.104 -0.4486 -0.0461 -0.6625
12732TIP3    H159611   3.122   0.016   5.079 -0.2371  1.2304 -1.8951
12732TIP3    H259612   3.223   0.111   5.141  0.2637 -0.1863 -0.4799
12733TIP3   OH259613   3.969   3.284  11.340 -0.1335 -0.5268 -0.4479
12733TIP3    H159614   4.050   3.279  11.392  1.2617 -1.0595 -2.5298
12733TIP3    H259615   3.900   3.262  11.402  1.2622  0.2935  1.5129
12734TIP3   OH259616   0.131   1.069   5.466  0.7185 -0.0769 -0.8610
12734TIP3    H159617   0.075   1.109   5.532  1.7610  0.8817 -0.5382
12734TIP3    H259618   0.163   0.988   5.506 -0.5359 -0.7181 -1.1099
12735TIP3   OH259619   1.652   2.705   3.352 -0.0257  0.6875 -0.0359
12735TIP3    H159620   1.583   2.660   3.304  1.0332  1.0959 -2.0192
12735TIP3    H259621   1.608   2.778   3.395 -0.9112  0.6567 -0.8650
12736TIP3   OH259622   2.645   5.575  10.859  0.0769  0.4890  0.1610
12736TIP3    H159623   2.576   5.627  10.900  1.1685  1.9458  0.2121
12736TIP3    H259624   2.727   5.608  10.897  0.8198 -1.3737  0.2999
12737TIP3   OH259625   2.909   5.373   3.516 -0.5527  0.5039 -0.2018
12737TIP3    H159626   2.973   5.362   3.585  1.1592  1.0470 -1.6359
12737TIP3    H259627   2.856   5.448   3.543  1.1606  1.7666 -0.2272
12738TIP3   OH259628   3.272   5.674   1.769  0.1529 -0.2543  0.0556
12738TIP3    H159629   3.291   5.757   1.812  0.2596  0.3059 -1.0195
12738TIP3    H259630   3.277   5.609   1.838 -0.3003  0.6791  0.9915
12739TIP3   OH259631   5.234   2.150   3.218 -0.3407 -0.2582  0.7450
12739TIP3    H159632   5.268   2.225   3.266 -1.4592  1.1050 -0.4715
12739TIP3    H259633   5.205   2.187   3.134  2.2305 -2.6248 -1.3642
12740TIP3   OH259634   6.561   5.245   5.050  0.9078  0.1065 -0.0086
12740TIP3    H159635   6.588   5.189   4.977  0.5435 -0.4328  0.2639
12740TIP3    H259636   6.484   5.292   5.017  1.0746  0.2773 -0.1576
12741TIP3   OH259637   6.535   2.739   2.487 -0.9763 -0.3715  0.2461
12741TIP3    H159638   6.531   2.710   2.578  0.9908  0.2876  0.5898
12741TIP3    H259639   6.628   2.742   2.467 -1.3858 -1.2547 -2.0700
12742TIP3   OH259640   3.956   2.842  14.683 -0.4737 -0.2721 -0.1018
12742TIP3    H159641   3.880   2.848  14.740 -0.0453 -0.1384  0.4673
12742TIP3    H259642   3.961   2.927  14.640 -0.2060 -0.0046  0.4413
12743TIP3   OH259643   3.825   6.375  14.449  0.2786  0.1253  0.0728
12743TIP3    H159644   3.731   6.381  14.467  0.1250 -0.5205 -0.4464
12743TIP3    H259645   3.842   6.448  14.388  0.4208  1.1277  1.2682
12744TIP3   OH259646   5.828   2.223   2.131 -0.1113 -0.4480  0.2889
12744TIP3    H159647   5.778   2.274   2.068  0.6660 -0.5097 -0.3961
12744TIP3    H259648   5.894   2.284   2.164 -0.0805 -0.6109  0.5321
12745TIP3   OH259649   2.844   0.847   5.721  0.6013  0.5281  0.1570
12745TIP3    H159650   2.771   0.838   5.782 -0.5387  0.2677 -1.1945
12745TIP3    H259651   2.894   0.921   5.755 -0.1868  0.6105  1.2056
12746TIP3   OH259652   1.093   5.615   3.438 -0.0499 -0.1292 -0.5560
12746TIP3    H159653   1.061   5.540   3.388  0.6353 -0.9926  0.2611
12746TIP3    H259654   1.158   5.578   3.497 -0.1118  1.0236  0.2647
12747TIP3   OH259655   5.799   2.213   4.960 -0.5095  0.3873 -0.4864
12747TIP3    H159656   5.862   2.256   4.903  0.7132 -2.5222 -1.5315
12747TIP3    H259657   5.714   2.251   4.934  0.5626  3.1536 -0.2213
12748TIP3   OH259658   3.508   4.549   5.737 -0.1180 -0.6085 -0.0144
12748TIP3    H159659   3.463   4.610   5.796  0.3312 -0.4100  0.1230
12748TIP3    H259660   3.586   4.521   5.785  0.7765  0.3108 -0.8742
12749TIP3   OH259661   2.493   4.913   5.016  0.1084 -0.1968  0.2148
12749TIP3    H159662   2.467   4.823   5.033 -0.3147  0.3412  2.9474
12749TIP3    H259663   2.455   4.963   5.088  0.8570  2.0883 -0.8662
12750TIP3   OH259664   0.499   2.635   0.165  0.2024  0.1745 -0.5010
12750TIP3    H159665   0.482   2.701   0.098  1.1131 -0.4279 -1.3569
12750TIP3    H259666   0.467   2.553   0.126 -0.9515  0.1045  0.5609
12751TIP3   OH259667   5.931   2.723   5.538 -0.5537  0.0284  0.0146
12751TIP3    H159668   6.012   2.680   5.565 -0.6275  0.1793  0.4721
12751TIP3    H259669   5.950   2.817   5.543 -1.5193  0.1546  2.5825
12752TIP3   OH259670   1.528   2.016  13.207  0.1124  0.3255  0.9034
12752TIP3    H159671   1.500   1.933  13.168  2.2267 -0.6758  1.3793
12752TIP3    H259672   1.527   1.999  13.301 -0.3170  1.1619  1.0587
12753TIP3   OH259673   3.688   2.439  15.088 -0.5726 -0.1806  0.2786
12753TIP3    H159674   3.620   2.407  15.029  0.7341  0.4936 -1.6976
12753TIP3    H259675   3.686   2.534  15.077  0.4913 -0.1316  0.4096
12754TIP3   OH259676   6.559   2.796   4.556 -0.1016 -0.1776  0.1535
12754TIP3    H159677   6.587   2.772   4.645  0.0036 -0.3833  0.0665
12754TIP3    H259678   6.514   2.880   4.567 -0.3527 -0.3471  0.4456
12755TIP3   OH259679   4.903   3.854  13.848 -0.1525  0.0774 -0.4603
12755TIP3    H159680   4.893   3.766  13.885 -1.7147  0.3122 -0.2705
12755TIP3    H259681   4.977   3.846  13.787 -1.2366 -1.7792 -1.6271
12756TIP3   OH259682   4.922   0.760   1.450 -0.4528 -0.4065 -0.4015
12756TIP3    H159683   4.990   0.694   1.461 -0.7287 -0.6483 -0.1131
12756TIP3    H259684   4.861   0.743   1.522 -0.9947 -0.4144 -0.8592
12757TIP3   OH259685   0.855   5.512  15.247  0.2504  0.1568 -0.1225
12757TIP3    H159686   0.792   5.537  15.180  0.2199  0.1624 -0.0920
12757TIP3    H259687   0.928   5.473  15.198 -0.1732 -0.6951 -0.0962
12758TIP3   OH259688   2.289   6.700   3.631 -0.2486 -0.0568 -0.6034
12758TIP3    H159689   2.307   6.618   3.678 -0.1550  0.4244  0.2139
12758TIP3    H259690   2.328   6.686   3.545  2.8618  0.3825  0.5869
12759TIP3   OH259691   2.312   6.562   1.151 -0.3865 -0.5285  0.0400
12759TIP3    H159692   2.255   6.610   1.211  1.9351  1.2206  1.0293
12759TIP3    H259693   2.253   6.525   1.086 -2.7849 -0.3841  1.9844
12760TIP3   OH259694   0.286   1.511   1.000  0.3082  0.1806 -0.2344
12760TIP3    H159695   0.302   1.605   0.991  1.0043  0.0267 -0.6211
12760TIP3    H259696   0.249   1.485   0.916 -1.0828  0.3296  0.2884
12761TIP3   OH259697   0.513   1.644   3.865  0.4905 -0.3302 -0.1171
12761TIP3    H159698   0.571   1.703   3.913  0.3884  0.3638 -0.8273
12761TIP3    H259699   0.496   1.572   3.926  2.0329 -0.5152  0.1308
12762TIP3   OH259700   6.319   0.179   1.509 -0.3563  1.0607  0.3397
12762TIP3    H159701   6.225   0.199   1.513 -0.6363 -0.3049  2.7186
12762TIP3    H259702   6.359   0.242   1.570 -0.1490 -0.1157  1.4651
12763TIP3   OH259703   1.143   5.275   5.322  0.4906  0.1332  0.1903
12763TIP3    H159704   1.207   5.206   5.309  0.8884  0.0613  2.2507
12763TIP3    H259705   1.158   5.335   5.249  1.4495 -0.9386 -0.5411
12764TIP3   OH259706   5.714   1.414  15.874  0.3609  0.0577 -0.4565
12764TIP3    H159707   5.712   1.355  15.949  1.6857 -0.0090 -0.4420
12764TIP3    H259708   5.804   1.409  15.842 -0.4944 -0.9915 -2.9224
12765TIP3   OH259709   6.134   4.132  12.362 -0.1877  0.4862 -0.0617
12765TIP3    H159710   6.065   4.195  12.381  0.9217  1.5020  0.7260
12765TIP3    H259711   6.140   4.130  12.267 -1.8459 -0.2480 -0.1775
12766TIP3   OH259712   5.036   0.272   2.041 -0.0831 -0.0318  0.4232
12766TIP3    H159713   4.973   0.344   2.032  0.3870  0.3959  0.4569
12766TIP3    H259714   5.032   0.248   2.133 -0.2392 -0.0380  0.4139
12767TIP3   OH259715   3.000   0.364  17.176  0.1846 -0.2113 -0.0251
12767TIP3    H159716   2.920   0.346  17.226  0.3897  0.3391  0.5150
12767TIP3    H259717   2.981   0.444  17.128 -0.1001 -0.8717 -1.0483
12768TIP3   OH259718   2.004   6.364  13.632  0.2287 -0.3538  0.4983
12768TIP3    H159719   2.043   6.342  13.716 -0.0527  2.0522  1.3449
12768TIP3    H259720   1.930   6.421  13.654  0.0784  0.2453 -1.3586
12769TIP3   OH259721   0.733   3.142  16.271  0.4981 -0.3177 -0.0366
12769TIP3    H159722   0.674   3.126  16.344 -1.2052 -1.1682 -1.5206
12769TIP3    H259723   0.680   3.124  16.193  1.9373  1.4797 -1.5301
12770TIP3   OH259724   1.126   0.560   3.368  1.0586 -0.3996  0.0628
12770TIP3    H159725   1.143   0.502   3.294 -1.3117 -0.0760 -0.8293
12770TIP3    H259726   1.168   0.643   3.344  1.9629 -0.8688  0.0006
12771TIP3   OH259727   4.140   1.393   2.439  0.5727  0.1159 -0.2601
12771TIP3    H159728   4.209   1.445   2.399 -0.2027  1.4751  0.1321
12771TIP3    H259729   4.075   1.457   2.470 -0.4391 -1.0723  0.1752
12772TIP3   OH259730   6.407   1.378  15.708  0.2384 -0.0279  0.7581
12772TIP3    H159731   6.356   1.303  15.677  1.0503 -1.1494  2.0280
12772TIP3    H259732   6.341   1.442  15.736 -0.4674 -0.9606  1.2496
12773TIP3   OH259733   1.248   3.639  14.030  0.5525 -0.1041 -0.0464
12773TIP3    H159734   1.244   3.729  13.998  0.2409  0.2972  1.0782
12773TIP3    H259735   1.194   3.589  13.968 -0.7272  0.7933  0.3167
12774TIP3   OH259736   2.738   2.461  12.767  0.0648  0.1535 -0.8824
12774TIP3    H159737   2.687   2.395  12.814 -0.1956  1.2297  0.3901
12774TIP3    H259738   2.828   2.427  12.768  0.1445  0.3180  0.7658
12775TIP3   OH259739   4.283   1.000   1.499  0.5202 -0.1238 -0.4697
12775TIP3    H159740   4.191   1.025   1.488  0.7874  0.6043 -1.1706
12775TIP3    H259741   4.331   1.083   1.496  1.3013 -0.5866 -1.3948
12776TIP3   OH259742   2.213   5.096  13.656 -0.0032  0.3082 -0.1040
12776TIP3    H159743   2.160   5.024  13.691  1.4432 -0.9531 -0.3878
12776TIP3    H259744   2.196   5.096  13.562  0.0385  0.3062 -0.1117
12777TIP3   OH259745   3.521   1.008  16.780 -0.2837 -0.0472 -0.4185
12777TIP3    H159746   3.554   1.095  16.802 -2.5051  1.4559 -2.4990
12777TIP3    H259747   3.560   0.989  16.694  2.3918 -2.4947  1.1319
12778TIP3   OH259748   2.883   6.396   1.429  0.1889  0.2485  0.6325
12778TIP3    H159749   2.876   6.301   1.423  0.9941  0.2407 -0.6191
12778TIP3    H259750   2.858   6.416   1.519 -1.0534 -1.0282  0.6128
12779TIP3   OH259751   2.527   6.463  13.997 -0.1605  0.3162  0.0752
12779TIP3    H159752   2.512   6.392  14.059 -0.0317  0.5600  0.3913
12779TIP3    H259753   2.469   6.534  14.028  0.9874  0.9633  0.7980
12780TIP3   OH259754   1.610   1.582   5.648 -0.0839  0.3732  0.2440
12780TIP3    H159755   1.584   1.578   5.740 -0.5072 -0.4910  0.1012
12780TIP3    H259756   1.704   1.566   5.649 -0.2644 -0.7627  0.4538
12781TIP3   OH259757   1.189   4.041   0.887  0.1909 -0.3586  0.3083
12781TIP3    H159758   1.188   4.126   0.930 -0.0893 -0.9418  1.4945
12781TIP3    H259759   1.169   4.060   0.795  1.9131  1.0339  0.1758
12782TIP3   OH259760   1.600   0.607   4.785  0.0030 -0.4195 -1.1893
12782TIP3    H159761   1.673   0.546   4.782  0.9097  0.5923 -0.6196
12782TIP3    H259762   1.615   0.668   4.713 -1.0166 -0.9824 -1.9000
12783TIP3   OH259763   0.179   0.371  12.074  0.5754  0.2663  0.4308
12783TIP3    H159764   0.109   0.432  12.049 -0.5507 -1.1880 -0.0669
12783TIP3    H259765   0.168   0.359  12.168 -2.2961 -2.7382 -0.0916
12784TIP3   OH259766   0.509   4.871  12.594 -0.5493  0.0812  0.2537
12784TIP3    H159767   0.496   4.916  12.510  0.4872  0.2333  0.1566
12784TIP3    H259768   0.557   4.792  12.572  1.7973  1.2272  0.8994
12785TIP3   OH259769   3.149   5.670  13.386 -0.5131  0.5719  0.3746
12785TIP3    H159770   3.094   5.592  13.389 -1.1518  0.8374 -1.9139
12785TIP3    H259771   3.179   5.683  13.475 -0.9361 -1.8920  0.9275
12786TIP3   OH259772   6.075   4.813  14.831  0.7255 -0.2311  0.1941
12786TIP3    H159773   6.035   4.843  14.912 -0.0090 -2.2916  0.6563
12786TIP3    H259774   6.148   4.873  14.816 -0.9490  2.0836  0.6927
12787TIP3   OH259775   0.789   3.367   3.170  0.6086  0.3116 -0.3820
12787TIP3    H159776   0.731   3.326   3.234  1.7433 -0.3185  0.2536
12787TIP3    H259777   0.763   3.460   3.170 -1.2955 -0.1633 -1.1054
12788TIP3   OH259778   5.495   4.661  16.804  0.0131  0.4724 -0.9323
12788TIP3    H159779   5.445   4.580  16.792 -0.3845  0.3233  1.2533
12788TIP3    H259780   5.428   4.727  16.824  0.5562  0.4671  1.1171
12789TIP3   OH259781   6.280   4.106  15.305  0.0380  0.7317  0.0449
12789TIP3    H159782   6.210   4.058  15.260  0.4055 -0.6702  0.9225
12789TIP3    H259783   6.262   4.198  15.284 -0.9545  0.2737 -1.3051
12790TIP3   OH259784   3.954   1.652  14.211 -0.2560  0.5308 -0.3394
12790TIP3    H159785   3.874   1.655  14.262 -0.0898 -1.3181  0.0825
12790TIP3    H259786   3.926   1.628  14.123 -0.0473 -2.3295  0.2851
12791TIP3   OH259787   1.799   3.818  11.665 -0.3446 -0.4531  0.2260
12791TIP3    H159788   1.757   3.748  11.716  0.8852 -1.3309  0.0752
12791TIP3    H259789   1.892   3.798  11.669  0.1565  1.7033  0.9422
12792TIP3   OH259790   5.129   2.420  16.394  0.0567 -0.1661 -0.4582
12792TIP3    H159791   5.121   2.463  16.479 -1.5167 -0.1354 -0.5898
12792TIP3    H259792   5.080   2.339  16.404 -2.1692  0.9049 -1.9956
12793TIP3   OH259793   1.307   6.676   4.809  0.1919  0.1406 -0.5699
12793TIP3    H159794   1.235   6.613   4.820  0.2078  0.0209 -1.1142
12793TIP3    H259795   1.276   6.736   4.741  1.0760 -0.6293 -1.6912
12794TIP3   OH259796   0.076   4.985   2.641  0.3643 -0.6744 -0.2696
12794TIP3    H159797   0.021   4.914   2.608 -1.0526 -0.6183  1.8089
12794TIP3    H259798   0.165   4.950   2.638 -0.1524 -2.0356 -0.5029
12795TIP3   OH259799   0.822   3.619  12.927  0.1311  0.6564 -0.4217
12795TIP3    H159800   0.790   3.630  13.016 -1.5832 -2.2546 -0.5664
12795TIP3    H259801   0.909   3.580  12.937  0.8771  2.3202 -0.0796
12796TIP3   OH259802   2.410   6.316   0.262  0.3228  0.1813 -0.2095
12796TIP3    H159803   2.368   6.238   0.299 -0.9601  0.8158 -0.2943
12796TIP3    H259804   2.475   6.341   0.327  0.4247 -0.6762  0.0396
12797TIP3   OH259805   3.293   3.179  11.142  0.1676 -0.2963  0.1159
12797TIP3    H159806   3.316   3.093  11.107  0.1442 -0.0429 -0.5348
12797TIP3    H259807   3.373   3.208  11.187  0.0097 -0.8743  0.8007
12798TIP3   OH259808   2.228   2.710   5.746 -0.2621 -0.4588  0.0946
12798TIP3    H159809   2.158   2.775   5.736 -1.4588 -1.6193  0.6118
12798TIP3    H259810   2.226   2.687   5.839  0.4624 -0.8869  0.0137
12799TIP3   OH259811   4.911   3.622  16.410  0.2041 -0.2533 -0.1039
12799TIP3    H159812   4.898   3.596  16.319  0.9763  0.9623 -0.6010
12799TIP3    H259813   4.982   3.686  16.405 -1.5626  1.9163  0.9976
12800TIP3   OH259814   1.002   5.519   0.333 -0.3648 -0.1481 -0.2508
12800TIP3    H159815   0.985   5.536   0.240 -1.3002 -1.0958 -0.2791
12800TIP3    H259816   1.063   5.446   0.333  0.5413  0.5901 -0.1096
12801TIP3   OH259817   3.100   1.522   4.080  0.1011  0.0391 -0.1784
12801TIP3    H159818   3.110   1.444   4.136 -0.5191 -0.1113 -0.2723
12801TIP3    H259819   3.069   1.590   4.140  1.7836  0.5678  0.1593
12802TIP3   OH259820   2.156   0.699  14.088 -0.3781  0.8824  0.0083
12802TIP3    H159821   2.130   0.769  14.027  3.7169  1.4787 -1.3975
12802TIP3    H259822   2.185   0.746  14.166  0.2944  0.6335 -0.0839
12803TIP3   OH259823   2.741   3.720  11.331  0.0933 -0.0232  0.1364
12803TIP3    H159824   2.677   3.778  11.290  1.4133  0.2503 -1.6632
12803TIP3    H259825   2.738   3.742  11.424 -0.2574  2.1354 -0.3396
12804TIP3   OH259826   4.158   5.727  12.145  0.4878  0.1169 -0.4306
12804TIP3    H159827   4.129   5.818  12.149 -1.1470 -0.3988  0.0937
12804TIP3    H259828   4.174   5.703  12.236  1.0773 -0.0826 -0.5823
12805TIP3   OH259829   3.785   6.266   0.764  0.2248  0.6874  0.0188
12805TIP3    H159830   3.730   6.208   0.816 -0.8325 -0.7167 -2.4619
12805TIP3    H259831   3.862   6.214   0.742  0.3420  1.0066 -0.3534
12806TIP3   OH259832   4.198   1.208   0.935 -0.9722  0.0633  0.3490
12806TIP3    H159833   4.214   1.301   0.951  1.5464  0.8593 -4.7043
12806TIP3    H259834   4.203   1.167   1.021  2.6280  4.0390  2.3803
12807TIP3   OH259835   3.095   3.996  14.362 -0.1439 -0.7495 -0.1762
12807TIP3    H159836   3.131   4.026  14.279 -0.3015  0.1877  0.0831
12807TIP3    H259837   3.106   4.070  14.421  0.3305 -1.5354  0.7601
12808TIP3   OH259838   3.730   5.976   3.993  0.0544  0.6663  0.0120
12808TIP3    H159839   3.655   6.031   3.970  1.0380  1.7822 -0.6458
12808TIP3    H259840   3.714   5.951   4.084 -1.7474 -0.2203 -0.5018
12809TIP3   OH259841   4.998   6.716  16.647  0.3630 -0.2547  0.2766
12809TIP3    H159842   4.936   6.652  16.612  1.5663 -1.6207  0.5182
12809TIP3    H259843   4.962   6.801  16.622 -0.5257 -1.0615 -1.3821
12810TIP3   OH259844   6.707   4.431   4.367  0.4959 -0.2743 -0.2156
12810TIP3    H159845   6.715   4.349   4.415  3.2170  2.1439  4.1502
12810TIP3    H259846   6.770   4.422   4.295  0.0768 -2.2741 -0.3881
12811TIP3   OH259847   2.473   4.952  15.268  0.3588  0.2910  0.3652
12811TIP3    H159848   2.531   4.985  15.199 -0.5278 -0.9686 -1.0474
12811TIP3    H259849   2.411   4.895  15.222  0.2552 -1.2869  2.3170
12812TIP3   OH259850   0.175   3.056  15.494  0.0711 -0.0704  0.5957
12812TIP3    H159851   0.225   3.109  15.432  1.9448 -1.3887  0.8788
12812TIP3    H259852   0.182   3.103  15.577 -0.0661  0.2935  0.4022
12813TIP3   OH259853   5.346   0.990  12.985 -0.4461  0.1189  0.2228
12813TIP3    H159854   5.427   0.940  12.973  0.0264  1.0499 -0.7204
12813TIP3    H259855   5.369   1.058  13.048 -0.5969  0.1547  0.2403
12814TIP3   OH259856   4.079   6.599   6.195  0.0604  0.0793 -0.6288
12814TIP3    H159857   4.149   6.602   6.130 -0.5064  3.0852 -1.2604
12814TIP3    H259858   4.059   6.506   6.205  0.5866 -0.5990 -4.3359
12815TIP3   OH259859   4.849   5.996  13.340 -0.5152  0.3734  0.2328
12815TIP3    H159860   4.768   5.949  13.359 -0.5311  0.1393 -0.3994
12815TIP3    H259861   4.821   6.084  13.316 -0.7653 -0.3087 -2.1451
12816TIP3   OH259862   3.539   3.668   2.703  0.1772 -0.0298  0.2988
12816TIP3    H159863   3.466   3.659   2.765 -0.6000  0.2029 -0.5594
12816TIP3    H259864   3.503   3.720   2.632  0.5073 -1.7158 -1.1808
12817TIP3   OH259865   1.896   6.655   4.499  0.4103  0.4333  0.1772
12817TIP3    H159866   1.809   6.669   4.537  0.9889  1.7972  1.0920
12817TIP3    H259867   1.925   6.571   4.535  1.0080  1.7401  3.0229
12818TIP3   OH259868   6.075   4.530   3.720  0.4611  0.4794 -0.4137
12818TIP3    H159869   6.090   4.480   3.800 -2.6664 -0.7835 -0.4824
12818TIP3    H259870   6.061   4.620   3.750  2.4614  0.6657  0.0771
12819TIP3   OH259871   6.464   3.457   5.524  0.5625 -0.1653 -0.0982
12819TIP3    H159872   6.558   3.476   5.531  0.6187 -0.4682 -0.0309
12819TIP3    H259873   6.423   3.543   5.515  0.5892  0.1836  2.4717
12820TIP3   OH259874   5.394   2.343  17.382  0.8729  0.3360  0.3136
12820TIP3    H159875   5.441   2.394  17.447  1.0499  1.1817 -0.4644
12820TIP3    H259876   5.366   2.407  17.317  2.4516 -0.7340 -1.5160
12821TIP3   OH259877   6.029   3.713  12.040 -0.4528 -0.1097  0.4592
12821TIP3    H159878   5.946   3.677  12.009 -0.5519 -0.2464  0.8697
12821TIP3    H259879   6.091   3.695  11.970 -1.1488  1.6042 -0.6501
12822TIP3   OH259880   2.203   2.844   0.004  0.0174  0.2471  0.2918
12822TIP3    H159881   2.200   2.756  -0.032  0.5996  0.5514 -0.5252
12822TIP3    H259882   2.296   2.861   0.019 -0.1416  0.4718  1.0967
12823TIP3   OH259883   2.976   3.682  12.427  0.1455 -0.5598 -0.5586
12823TIP3    H159884   2.904   3.622  12.407  0.5244 -1.2233  0.0194
12823TIP3    H259885   2.932   3.763  12.455 -0.4222 -1.3007  0.8620
12824TIP3   OH259886   0.828   3.164   0.476  0.6017 -0.0633  0.2998
12824TIP3    H159887   0.918   3.145   0.450 -0.1078 -3.5956 -0.1576
12824TIP3    H259888   0.791   3.078   0.497 -1.2363  1.5932  5.4891
12825TIP3   OH259889   1.513   3.227   5.765 -0.8102  0.5633  0.0241
12825TIP3    H159890   1.455   3.185   5.828 -1.6795  1.3030 -0.2556
12825TIP3    H259891   1.458   3.242   5.688 -0.3549  1.5889 -0.1202
12826TIP3   OH259892   1.115   0.204   3.462 -0.6444 -0.6164 -0.1279
12826TIP3    H159893   1.187   0.176   3.406  1.2239  1.1834  1.2313
12826TIP3    H259894   1.066   0.124   3.480  0.4151 -1.7160 -1.9174
12827TIP3   OH259895   6.737   6.174  17.428 -0.0126  0.6402  0.4333
12827TIP3    H159896   6.819   6.217  17.453  0.1293 -0.0911  1.2870
12827TIP3    H259897   6.764   6.094  17.383 -0.2608  0.5534  0.4375
12828TIP3   OH259898   1.556   6.307   0.846 -0.5483  0.4682  0.2999
12828TIP3    H159899   1.519   6.290   0.759 -0.0897  2.0258 -0.2426
12828TIP3    H259900   1.649   6.291   0.836 -0.7828 -1.9205  1.2522
12829TIP3   OH259901   5.254   3.881   1.309  0.0713  0.0599  0.0081
12829TIP3    H159902   5.219   3.797   1.338 -1.4466  0.6062 -0.1623
12829TIP3    H259903   5.328   3.897   1.368 -0.0073 -1.0881  0.4499
12830TIP3   OH259904   4.262   3.935   5.672  0.2537 -0.1014  0.4120
12830TIP3    H159905   4.356   3.920   5.682  0.0153 -0.1093  3.2584
12830TIP3    H259906   4.256   4.010   5.612  1.9453 -1.2377 -1.2879
12831TIP3   OH259907   4.084   3.359   6.138 -0.1182  0.0905  0.2298
12831TIP3    H159908   4.153   3.413   6.176  0.8402 -1.9498  1.5543
12831TIP3    H259909   4.085   3.381   6.045  0.6553  1.8438  0.6209
12832TIP3   OH259910   5.987   4.082  11.467  0.3174  0.5300  0.4516
12832TIP3    H159911   5.968   3.988  11.462  2.0040  0.0985  1.5010
12832TIP3    H259912   6.062   4.088  11.525  0.9010  2.4633 -0.4447
12833TIP3   OH259913   3.842   1.968   2.651  0.3620  0.3161 -0.0371
12833TIP3    H159914   3.835   1.958   2.746  2.2969 -1.5115 -0.0030
12833TIP3    H259915   3.754   1.949   2.618 -0.1663  0.2788  1.3275
12834TIP3   OH259916   5.488   5.434   0.439 -0.3126  0.1370  0.5180
12834TIP3    H159917   5.423   5.456   0.372 -0.6171  0.0204  0.7724
12834TIP3    H259918   5.567   5.413   0.390 -0.6858 -0.4570  0.1717
12835TIP3   OH259919   0.395   1.907  17.260  0.0453 -0.0298 -0.1451
12835TIP3    H159920   0.458   1.863  17.318  1.0898  0.7635 -0.6419
12835TIP3    H259921   0.309   1.886  17.298  0.5355 -1.8053  0.0853
12836TIP3   OH259922   3.930   3.771   2.365 -0.4594 -0.3076 -0.3644
12836TIP3    H159923   3.926   3.683   2.327 -0.8103 -0.8459  0.8674
12836TIP3    H259924   3.902   3.759   2.456  0.8642  0.8426  0.2318
12837TIP3   OH259925   4.217   3.416  13.856 -0.1935  0.1028 -0.0435
12837TIP3    H159926   4.126   3.418  13.886 -0.4051 -1.4675 -0.4906
12837TIP3    H259927   4.215   3.361  13.777  1.1837 -0.2349  0.1293
12838TIP3   OH259928   2.064   1.515   1.461 -0.2034 -0.0992 -0.2092
12838TIP3    H159929   2.048   1.425   1.489  1.6130  0.2624  2.2962
12838TIP3    H259930   2.158   1.518   1.443 -0.7631  0.4183 -4.1550
12839TIP3   OH259931   1.240   1.181  14.734  0.0245 -0.0139 -0.6475
12839TIP3    H159932   1.304   1.138  14.676  0.4350 -0.8978  0.4249
12839TIP3    H259933   1.158   1.134  14.718 -0.2942  0.8883 -1.7653
12840TIP3   OH259934   4.560   4.095  13.890  0.1690  0.2800  0.2020
12840TIP3    H159935   4.528   4.113  13.802  1.0049 -1.0887 -0.4264
12840TIP3    H259936   4.486   4.056  13.936  0.2472 -0.7707 -0.5236
12841TIP3   OH259937   0.271   3.446   1.705 -0.0544 -0.2094  0.2011
12841TIP3    H159938   0.187   3.461   1.662  0.2765 -0.8394 -0.6777
12841TIP3    H259939   0.327   3.518   1.674  0.5588 -1.3570 -1.4454
12842TIP3   OH259940   0.240   0.311   2.752  0.2085  0.0330  0.4427
12842TIP3    H159941   0.203   0.376   2.693  2.1876  1.3216  0.5393
12842TIP3    H259942   0.208   0.227   2.718 -0.7409  0.9029 -0.9148
12843TIP3   OH259943   4.304   2.693  13.696 -0.1566  0.5638 -0.0568
12843TIP3    H159944   4.246   2.656  13.629 -0.5892  0.4504  0.3778
12843TIP3    H259945   4.246   2.736  13.758  0.1675 -0.0477  0.6956
12844TIP3   OH259946   4.518   3.828  12.876 -0.4186  0.0853 -0.3987
12844TIP3    H159947   4.434   3.868  12.858 -0.4478  0.5697  0.7526
12844TIP3    H259948   4.502   3.771  12.951  0.5763  1.2975  0.7792
12845TIP3   OH259949   1.818   0.966   3.747  0.0283 -0.1028 -0.1740
12845TIP3    H159950   1.832   1.056   3.777  0.2832 -0.0545 -0.4345
12845TIP3    H259951   1.818   0.914   3.827  0.6716  0.0260 -0.0856
12846TIP3   OH259952   0.683   4.768  11.657  0.7962 -0.0036 -0.2888
12846TIP3    H159953   0.749   4.702  11.636  0.3445 -1.2668  1.8584
12846TIP3    H259954   0.686   4.831  11.585  3.9390 -0.3010 -0.5229
12847TIP3   OH259955   3.168   3.501  11.279 -0.7578  0.0181 -0.8091
12847TIP3    H159956   3.193   3.592  11.294 -0.5660  0.2523 -2.3676
12847TIP3    H259957   3.245   3.451  11.308 -0.5356  0.3981 -0.7295
12848TIP3   OH259958   5.680   5.487   6.459  0.4602 -0.9057  0.3778
12848TIP3    H159959   5.674   5.398   6.495 -0.3612 -0.7539  0.6355
12848TIP3    H259960   5.592   5.524   6.471  0.6376 -0.2577 -0.2542
12849TIP3   OH259961   6.599   5.262   4.379  0.3735  0.0200  0.0340
12849TIP3    H159962   6.565   5.234   4.294  1.2860 -1.1249  0.0126
12849TIP3    H259963   6.545   5.336   4.403 -0.9964 -0.6746 -0.7726
12850TIP3   OH259964   2.404   3.054   4.704 -0.5699 -0.4870 -0.1077
12850TIP3    H159965   2.494   3.053   4.671 -0.7671  0.6999 -0.7382
12850TIP3    H259966   2.403   2.988   4.774  0.1227 -2.4123 -1.8065
12851TIP3   OH259967   3.106   4.578  13.356  0.4164  0.5955  0.2489
12851TIP3    H159968   3.175   4.594  13.292 -0.6367  2.4481 -0.5081
12851TIP3    H259969   3.139   4.615  13.437  0.2980  1.5584 -0.1327
12852TIP3   OH259970   3.945   2.918  15.071  0.3453  0.3134 -0.2098
12852TIP3    H159971   4.004   2.847  15.044 -0.3792 -0.1575 -0.5788
12852TIP3    H259972   3.994   2.998  15.051  0.5612 -0.0561 -1.2358
12853TIP3   OH259973   6.080   3.825   3.293 -0.2112 -1.0197 -0.4292
12853TIP3    H159974   6.095   3.849   3.202 -2.3018 -1.5122 -0.9501
12853TIP3    H259975   5.995   3.781   3.293  0.1499 -1.8366  1.6244
12854TIP3   OH259976   5.607   3.430   0.980 -0.4043 -0.4358 -0.4056
12854TIP3    H159977   5.536   3.464   1.035 -1.2003  0.2272 -1.7797
12854TIP3    H259978   5.657   3.507   0.954  1.9802 -1.0437  1.9580
12855TIP3   OH259979   0.248   2.869   4.262 -0.3531 -0.3802  0.1292
12855TIP3    H159980   0.262   2.943   4.321  0.7885 -1.4081  1.2030
12855TIP3    H259981   0.168   2.827   4.293 -0.2851 -0.3529  0.3405
12856TIP3   OH259982   5.198   4.165  15.780 -0.4480  0.1162 -0.2424
12856TIP3    H159983   5.189   4.224  15.854 -0.0349 -0.1045 -0.0077
12856TIP3    H259984   5.183   4.078  15.817 -1.9435  0.1379 -0.7636
12857TIP3   OH259985   4.496   2.668  16.370 -0.0445  0.0675  0.0032
12857TIP3    H159986   4.485   2.630  16.457 -0.4800 -0.1302 -0.1357
12857TIP3    H259987   4.557   2.741  16.383  2.4303 -1.8772 -0.0451
12858TIP3   OH259988   6.420   4.154  14.046 -0.3923  0.0872  0.3976
12858TIP3    H159989   6.362   4.079  14.038 -0.6594  0.3571 -0.2234
12858TIP3    H259990   6.379   4.209  14.113 -0.6700  0.1150  0.2027
12859TIP3   OH259991   3.823   2.506  13.865  0.0772  0.1717 -0.0214
12859TIP3    H159992   3.853   2.555  13.942  0.5216 -1.6089  1.0095
12859TIP3    H259993   3.776   2.570  13.812  1.7714  2.0157  0.5747
12860TIP3   OH259994   2.688   1.221   1.251  0.0117  0.1490 -0.0277
12860TIP3    H159995   2.740   1.213   1.331 -1.0202  0.3902  0.6914
12860TIP3    H259996   2.651   1.134   1.238 -0.4271  0.3002  0.1909
12861TIP3   OH259997   4.389   4.666   2.027 -0.2924 -0.0117 -0.2529
12861TIP3    H159998   4.362   4.749   1.988  0.6786  1.3600  1.8367
12861TIP3    H259999   4.346   4.600   1.973 -1.8495  1.8455 -1.4349
12862TIP3   OH260000   6.154   2.054   6.243 -0.0405  0.7029 -0.2456
12862TIP3    H160001   6.147   2.143   6.277  0.3300  0.8318 -0.5041
12862TIP3    H260002   6.248   2.038   6.235 -0.0847  1.1628 -2.4334
12863TIP3   OH260003   6.743   0.482   1.439  0.1603 -0.0782 -0.7217
12863TIP3    H160004   6.808   0.526   1.385 -0.9992  1.7496 -0.7176
12863TIP3    H260005   6.660   0.499   1.396 -0.8477  1.6496  1.6504
12864TIP3   OH260006   1.355   2.730  15.490  0.3908  0.0235  0.0080
12864TIP3    H160007   1.380   2.688  15.408 -2.5845 -0.3220 -0.8401
12864TIP3    H260008   1.321   2.815  15.465 -1.4947 -0.4729  0.6835
12865TIP3   OH260009   4.836   5.284   1.613 -0.3537  0.1347 -0.5447
12865TIP3    H160010   4.886   5.219   1.563 -1.3227 -0.5079 -0.6937
12865TIP3    H260011   4.903   5.336   1.657  0.4425 -1.2222 -0.0990
12866TIP3   OH260012   5.178   1.359   0.954  0.2406 -0.5845 -0.1125
12866TIP3    H160013   5.174   1.263   0.948  0.2188 -0.5422 -0.9140
12866TIP3    H260014   5.264   1.377   0.992  0.1761 -0.9309  0.2011
12867TIP3   OH260015   5.375   5.953  13.721  0.1901  0.3539  0.4537
12867TIP3    H160016   5.289   5.910  13.713 -0.8305  2.5087 -0.9901
12867TIP3    H260017   5.361   6.023  13.784  1.0899  0.2980  0.7279
12868TIP3   OH260018   5.766   3.428   1.974 -0.3025  0.4215 -0.1705
12868TIP3    H160019   5.705   3.427   1.900 -2.0164 -3.4506  1.0150
12868TIP3    H260020   5.732   3.496   2.032 -0.8806  1.2753 -1.4669
12869TIP3   OH260021   2.523   0.411   0.585  0.1853  0.0974 -0.5986
12869TIP3    H160022   2.453   0.386   0.645  0.2406  0.7582 -0.2587
12869TIP3    H260023   2.550   0.328   0.544  0.5813 -0.4553  0.7407
12870TIP3   OH260024   0.952   3.611   4.457 -0.0751  0.1491 -0.1034
12870TIP3    H160025   0.961   3.632   4.364  0.3638  2.5387  0.4255
12870TIP3    H260026   0.859   3.591   4.468 -0.3896  1.1730 -0.8117
12871TIP3   OH260027   4.322   5.860  14.560  0.0343  0.4661 -0.8420
12871TIP3    H160028   4.309   5.808  14.480 -0.0331 -0.1981 -0.4036
12871TIP3    H260029   4.245   5.916  14.565 -1.3533 -1.4228  0.2077
12872TIP3   OH260030   1.681   5.189  12.329  0.2597  1.0932  0.1008
12872TIP3    H160031   1.617   5.201  12.399 -0.6287 -0.2566 -0.4425
12872TIP3    H260032   1.731   5.112  12.355 -1.3020 -0.5736 -1.5775
12873TIP3   OH260033   1.139   2.543   5.135  0.3326 -0.3031 -0.2491
12873TIP3    H160034   1.189   2.571   5.212 -0.5413  0.1918  0.1534
12873TIP3    H260035   1.057   2.592   5.141 -0.1746 -1.0523 -0.9345
12874TIP3   OH260036   2.522   1.891   2.072 -0.2088 -0.2632  0.4205
12874TIP3    H160037   2.434   1.863   2.094 -0.5435  0.9682  0.6661
12874TIP3    H260038   2.522   1.896   1.976 -0.3259 -0.4755  0.4076
12875TIP3   OH260039   6.221   6.400   6.263 -0.5278  0.3286  0.1750
12875TIP3    H160040   6.171   6.319   6.271 -0.4728  0.2809  0.0445
12875TIP3    H260041   6.291   6.393   6.329 -0.0181 -0.1017 -0.4000
12876TIP3   OH260042   3.233   1.292  13.653  0.2000 -0.8074  0.1868
12876TIP3    H160043   3.279   1.365  13.694 -0.9050  0.9080 -1.4468
12876TIP3    H260044   3.282   1.214  13.680  0.9420  0.4098  2.6750
12877TIP3   OH260045   3.482   1.822  10.965 -0.0928  0.0926  0.1460
12877TIP3    H160046   3.406   1.765  10.965  0.9704 -1.3693 -0.0242
12877TIP3    H260047   3.525   1.806  10.881  0.3470  1.0048  0.1779
12878TIP3   OH260048   4.917   0.943  13.747  0.0690  0.1969 -0.0647
12878TIP3    H160049   4.823   0.927  13.745  0.4469 -2.7612  1.0612
12878TIP3    H260050   4.943   0.920  13.837  2.0590 -0.5457 -0.7892
12879TIP3   OH260051   3.127   1.088  15.729 -0.2270  0.5135 -0.7059
12879TIP3    H160052   3.061   1.021  15.711  0.0599 -0.4917  1.6235
12879TIP3    H260053   3.082   1.171  15.715 -0.9727 -0.1268 -2.3705
12880TIP3   OH260054   6.120   0.422   5.293 -0.1468 -0.1730 -0.1703
12880TIP3    H160055   6.167   0.398   5.373 -2.1417  0.3610  1.2320
12880TIP3    H260056   6.114   0.517   5.296 -2.6179 -0.2839  0.5356
12881TIP3   OH260057   5.621   3.890   0.324  0.3695 -0.3479  0.7393
12881TIP3    H160058   5.672   3.970   0.342  0.3212 -0.0128 -0.5053
12881TIP3    H260059   5.618   3.844   0.408  2.1528 -0.0502  1.0136
12882TIP3   OH260060   3.561   1.696   2.908  0.7456 -0.6570 -0.3379
12882TIP3    H160061   3.596   1.617   2.867 -0.5818 -0.9614 -0.9349
12882TIP3    H260062   3.508   1.664   2.981  0.3605 -0.3106 -0.4616
12883TIP3   OH260063   3.108   4.554   4.667  0.3623  0.0026 -0.3340
12883TIP3    H160064   3.156   4.516   4.741 -0.3174  0.0580  0.1457
12883TIP3    H260065   3.107   4.484   4.601  0.8429 -0.0991 -0.2380
12884TIP3   OH260066   4.358   1.859  13.219 -0.0481  0.1079  0.1588
12884TIP3    H160067   4.267   1.853  13.190  0.2040 -2.1785 -0.2740
12884TIP3    H260068   4.406   1.888  13.142 -0.0903 -1.0056 -0.2950
12885TIP3   OH260069   3.080   5.003  14.826 -0.3519 -0.1272  0.0480
12885TIP3    H160070   3.020   5.076  14.843  0.3427  0.5718 -0.4592
12885TIP3    H260071   3.039   4.928  14.870 -0.6692  0.7295  1.2483
12886TIP3   OH260072   2.369   0.788   0.197  0.0903 -0.0556 -0.0191
12886TIP3    H160073   2.368   0.850   0.270  0.5015 -0.4639  0.3392
12886TIP3    H260074   2.352   0.703   0.237  0.5170 -0.3115 -0.3635
12887TIP3   OH260075   5.183   2.850   0.577  0.3151  0.2162  0.2058
12887TIP3    H160076   5.133   2.770   0.560  1.5004 -0.4301 -0.3587
12887TIP3    H260077   5.180   2.898   0.494 -0.5289  0.8621  0.5891
12888TIP3   OH260078   3.646   2.282  13.825  0.3863 -1.0211 -0.3519
12888TIP3    H160079   3.623   2.268  13.733  0.0405 -0.3628 -0.3698
12888TIP3    H260080   3.712   2.351  13.822  0.8355 -1.4377 -0.1467
12889TIP3   OH260081   0.676   6.043   1.956  0.2540 -1.0180 -0.6258
12889TIP3    H160082   0.708   6.021   1.869 -3.7411 -1.2370 -2.2483
12889TIP3    H260083   0.613   6.114   1.941  0.1274 -0.4044  2.2340
12890TIP3   OH260084   1.305   2.568   2.427  0.0581  0.0415  0.3535
12890TIP3    H160085   1.310   2.519   2.345  1.3813  0.9808 -0.1664
12890TIP3    H260086   1.337   2.508   2.494  2.9648  0.5111 -0.4683
12891TIP3   OH260087   0.408   3.280   3.461  0.7583 -0.4167  0.0760
12891TIP3    H160088   0.502   3.272   3.447  0.6983  1.1256 -1.4522
12891TIP3    H260089   0.384   3.199   3.507  2.5541 -1.5590 -0.8822
12892TIP3   OH260090   2.235   2.742   4.124 -0.1777 -0.0579 -0.2304
12892TIP3    H160091   2.163   2.789   4.081  0.3022  1.9706  1.0411
12892TIP3    H260092   2.205   2.729   4.214 -0.2281 -2.1586 -0.5022
12893TIP3   OH260093   2.601   0.833   0.061  0.1301  0.8013  0.0797
12893TIP3    H160094   2.626   0.855   0.151 -0.9947 -0.9870  0.8860
12893TIP3    H260095   2.515   0.792   0.069  0.2583  0.0548 -1.7511
12894TIP3   OH260096   3.030   5.266   6.026 -0.4321 -0.4191 -0.1276
12894TIP3    H160097   3.120   5.234   6.035 -0.1478  0.2223 -0.6421
12894TIP3    H260098   2.995   5.267   6.115  0.0069 -0.8317  0.0541
12895TIP3   OH260099   4.395   4.513   4.319  0.0675 -0.1275 -0.0375
12895TIP3    H160100   4.401   4.607   4.299 -0.5470 -0.1894 -0.5280
12895TIP3    H260101   4.441   4.504   4.403 -1.4676  0.9266  0.9655
12896TIP3   OH260102   1.410   2.555   4.418  0.0502  0.3735 -0.3881
12896TIP3    H160103   1.387   2.515   4.501 -0.3435  0.0411 -0.6541
12896TIP3    H260104   1.479   2.617   4.440  0.1352  0.0978  0.1442
12897TIP3   OH260105   1.365   0.536  16.329 -0.3755 -0.1560  0.5104
12897TIP3    H160106   1.373   0.597  16.402 -2.4465  2.2749 -1.1121
12897TIP3    H260107   1.277   0.551  16.295 -0.1638 -2.5491 -1.3461
12898TIP3   OH260108   3.235   3.088  16.685 -0.3513  1.1180 -0.5885
12898TIP3    H160109   3.296   3.135  16.629 -0.1937  0.6198 -0.8436
12898TIP3    H260110   3.262   3.111  16.774  0.5974  0.4464 -0.6784
12899TIP3   OH260111   5.294   6.193   6.971 -1.0046 -0.5824 -0.7181
12899TIP3    H160112   5.208   6.171   7.007 -0.6593 -0.9184 -0.0815
12899TIP3    H260113   5.326   6.263   7.028 -0.1491 -1.6083  0.0866
12900TIP3   OH260114   0.310   1.557  15.660  0.2382  0.1492 -0.7174
12900TIP3    H160115   0.383   1.507  15.623  0.0553 -0.3938 -0.3548
12900TIP3    H260116   0.331   1.648  15.640  0.0647 -0.1270 -2.3222
12901TIP3   OH260117   1.947   2.414  12.377 -0.2291  0.0719  0.0627
12901TIP3    H160118   1.942   2.325  12.343 -0.2021 -0.1554  0.6480
12901TIP3    H260119   1.862   2.453  12.356  0.6283  0.7646 -2.5039
12902TIP3   OH260120   3.294   6.195  14.358  0.1815 -0.0085 -0.1772
12902TIP3    H160121   3.301   6.216  14.451 -0.9490 -1.0059  0.1631
12902TIP3    H260122   3.382   6.206  14.323  0.5927  0.4924  0.9861
12903TIP3   OH260123   6.184   6.534   3.393  0.2315  0.0359 -0.5479
12903TIP3    H160124   6.242   6.464   3.364 -0.1161 -0.9157  0.9133
12903TIP3    H260125   6.239   6.612   3.395  1.0776 -0.5449 -0.5555
12904TIP3   OH260126   3.031   6.377  13.521  0.0750  0.3188  0.1490
12904TIP3    H160127   2.946   6.361  13.562 -0.8512 -0.2826 -1.8900
12904TIP3    H260128   3.052   6.468  13.545 -0.3055 -0.0466  2.0373
12905TIP3   OH260129   5.608   6.195   3.140  0.7143 -0.0633  0.2258
12905TIP3    H160130   5.561   6.117   3.109 -0.2915  0.9093 -0.7623
12905TIP3    H260131   5.701   6.173   3.128  0.4021 -0.4108 -1.8675
12906TIP3   OH260132   0.919   6.395   1.567 -0.1634 -0.0783 -0.7205
12906TIP3    H160133   0.958   6.315   1.530 -0.2192 -0.0486 -0.8436
12906TIP3    H260134   0.854   6.422   1.503 -0.1030  0.1000 -0.7076
12907TIP3   OH260135   5.734   6.187   1.726  0.6735 -0.0473  0.2290
12907TIP3    H160136   5.672   6.216   1.793 -0.9618 -0.2628 -1.1439
12907TIP3    H260137   5.795   6.260   1.717 -0.6666  1.1083  0.0853
12908TIP3   OH260138   4.966   3.932  16.381 -0.4466 -0.2516 -0.1545
12908TIP3    H160139   5.023   3.857  16.364 -0.8397 -0.6932  0.4826
12908TIP3    H260140   5.010   4.005  16.337  0.2312 -0.7333 -0.2878
12909TIP3   OH260141   4.197   5.643  11.676 -0.1005  0.3453 -0.2272
12909TIP3    H160142   4.184   5.737  11.681 -2.6326 -0.0162  2.2451
12909TIP3    H260143   4.255   5.623  11.750 -1.4814 -0.2445  0.7307
12910TIP3   OH260144   4.510   1.180  16.078 -0.1228  0.2540 -0.0414
12910TIP3    H160145   4.520   1.107  16.139 -1.3074 -0.5999 -0.8276
12910TIP3    H260146   4.579   1.166  16.013 -0.7471 -0.5822 -0.5568
12911TIP3   OH260147   0.477   2.813  15.541  0.9647  0.2264  0.0844
12911TIP3    H160148   0.472   2.901  15.578 -1.1366  2.1392 -4.0820
12911TIP3    H260149   0.508   2.827  15.451 -0.2177 -3.1971 -0.9877
12912TIP3   OH260150   1.138   0.779  15.531  0.1660 -0.4351 -0.2500
12912TIP3    H160151   1.163   0.854  15.478 -1.3098 -1.1852 -2.1099
12912TIP3    H260152   1.160   0.703  15.477 -1.5050 -1.2266  0.1359
12913TIP3   OH260153   4.660   4.369   3.024  1.1653  0.3345 -0.9235
12913TIP3    H160154   4.745   4.400   2.991  0.8243  1.7364 -0.5571
12913TIP3    H260155   4.639   4.428   3.096  0.2836 -0.5490 -0.4350
12914TIP3   OH260156   2.700   4.314   5.385 -0.0397 -0.8013 -0.4647
12914TIP3    H160157   2.680   4.356   5.469 -0.2610 -1.3579 -0.2321
12914TIP3    H260158   2.614   4.291   5.350  0.0365 -0.3115 -0.9856
12915TIP3   OH260159   3.271   5.817  13.163 -0.0533  0.2293  0.3714
12915TIP3    H160160   3.225   5.783  13.240  2.4107  0.4058  2.0046
12915TIP3    H260161   3.228   5.900  13.144  1.1038  1.6281  3.4094
12916TIP3   OH260162   0.903   0.354  16.569 -0.0295 -1.0754  0.4253
12916TIP3    H160163   0.812   0.368  16.595  0.0271 -0.8796  0.5238
12916TIP3    H260164   0.954   0.396  16.638  0.1319 -1.0502  0.2925
12917TIP3   OH260165   4.641   4.026   0.116 -0.3272  0.4306  0.1605
12917TIP3    H160166   4.654   4.116   0.087 -0.1409  0.4097  0.1761
12917TIP3    H260167   4.548   4.021   0.138  0.1581  1.3467  2.6615
12918TIP3   OH260168   4.044   1.290   2.940 -0.7921 -0.2343  0.1937
12918TIP3    H160169   3.979   1.307   2.873 -0.9818  0.6297  0.5908
12918TIP3    H260170   4.104   1.227   2.900 -0.6597  0.6012 -0.9343
12919TIP3   OH260171   0.092   2.253   1.778  0.0976 -0.4361 -0.1044
12919TIP3    H160172   0.124   2.253   1.868  1.4117  0.1939 -0.5548
12919TIP3    H260173   0.022   2.319   1.778  0.8287  0.3514  0.2099
12920TIP3   OH260174   1.417   6.621  11.449 -0.1777  0.3517  0.3924
12920TIP3    H160175   1.390   6.571  11.526 -0.2121 -0.2366  0.0066
12920TIP3    H260176   1.411   6.559  11.377  1.5283  0.3854  0.1704
12921TIP3   OH260177   2.626   6.112  11.976 -0.6844 -0.2185 -0.0278
12921TIP3    H160178   2.668   6.195  11.957  0.5700 -1.1151 -1.3941
12921TIP3    H260179   2.576   6.128  12.056 -2.2314  2.4406 -1.3834
12922TIP3   OH260180   6.141   3.402   1.907 -0.3455 -0.3490  0.2310
12922TIP3    H160181   6.126   3.492   1.933 -1.7359 -0.9264  1.5365
12922TIP3    H260182   6.054   3.365   1.893  0.2309 -0.9962 -2.2210
12923TIP3   OH260183   1.215   6.136  16.784  0.1710 -0.9818  0.3495
12923TIP3    H160184   1.121   6.128  16.765  0.1747  1.0590 -0.8551
12923TIP3    H260185   1.246   6.203  16.723  2.2516 -0.9792  1.3231
12924TIP3   OH260186   6.666   1.836  12.664  0.4619  0.0309 -0.3476
12924TIP3    H160187   6.674   1.742  12.684 -0.2853  0.2893  1.2854
12924TIP3    H260188   6.724   1.849  12.589  0.1330 -1.8477 -0.9754
12925TIP3   OH260189   1.087   0.640   4.502 -0.2229 -0.8461  0.0214
12925TIP3    H160190   0.995   0.666   4.498 -0.0740 -0.3424 -0.2203
12925TIP3    H260191   1.084   0.546   4.519 -0.8007 -0.9850 -0.7418
12926TIP3   OH260192   0.559   0.634  16.843 -0.3418  0.5645  0.0641
12926TIP3    H160193   0.609   0.692  16.785 -2.6189  1.6763 -0.9431
12926TIP3    H260194   0.531   0.691  16.915  1.7818 -0.6195  1.9330
12927TIP3   OH260195   4.444   2.111   0.641 -0.4563  0.3650 -0.1329
12927TIP3    H160196   4.507   2.122   0.569 -0.9505 -1.9660 -0.9981
12927TIP3    H260197   4.475   2.172   0.708  2.3173 -0.1594 -0.7967
12928TIP3   OH260198   0.453   5.346  12.289 -0.3471  0.4812 -0.2132
12928TIP3    H160199   0.516   5.282  12.321 -1.5591 -0.8202 -0.3641
12928TIP3    H260200   0.420   5.309  12.207  0.3839  2.2636 -1.3963
12929TIP3   OH260201   3.849   4.137  11.837 -0.0056 -0.4479 -0.1576
12929TIP3    H160202   3.919   4.135  11.903 -0.3146  0.6031  0.2178
12929TIP3    H260203   3.844   4.047  11.805  1.3187 -0.6092  0.0274
12930TIP3   OH260204   0.659   2.484   4.346  0.3809 -0.7937 -0.1217
12930TIP3    H160205   0.576   2.518   4.313  0.0785 -0.4306  0.9606
12930TIP3    H260206   0.717   2.560   4.348  0.6626 -0.9959 -0.6419
12931TIP3   OH260207   1.131   4.834  13.770  0.1884  0.2862  0.2761
12931TIP3    H160208   1.048   4.862  13.809 -0.0142  0.3837 -0.2129
12931TIP3    H260209   1.133   4.878  13.685  0.2556 -0.5494 -0.1602
12932TIP3   OH260210   4.354   5.507   3.847  0.3455 -0.6262 -0.1491
12932TIP3    H160211   4.300   5.434   3.878  1.8520 -2.1001 -0.8018
12932TIP3    H260212   4.307   5.585   3.874 -2.6733 -1.7772 -1.6355
12933TIP3   OH260213   4.125   5.413  11.300  0.3435  0.1705  0.6833
12933TIP3    H160214   4.134   5.500  11.340  3.4053  0.6728 -0.7648
12933TIP3    H260215   4.091   5.431  11.212  1.6908  0.0539  0.1100
12934TIP3   OH260216   4.843   3.652   2.584 -0.1851  0.0566 -0.2673
12934TIP3    H160217   4.802   3.672   2.500 -0.5001  1.4792  0.2014
12934TIP3    H260218   4.781   3.593   2.627  0.2171 -1.0945 -1.2123
12935TIP3   OH260219   5.984   6.221  11.710  0.4428  0.0209 -0.2034
12935TIP3    H160220   5.949   6.148  11.762 -1.8303 -0.3962 -2.1384
12935TIP3    H260221   5.999   6.291  11.774 -1.8932 -0.5634  1.1129
12936TIP3   OH260222   5.469   6.068   5.208  0.2834  0.4978 -0.0002
12936TIP3    H160223   5.412   6.143   5.193 -1.3892 -0.4397  1.2615
12936TIP3    H260224   5.433   5.998   5.153  0.7673  0.1285  0.1364
12937TIP3   OH260225   2.931   4.234  16.827 -0.0165  0.6273 -0.6592
12937TIP3    H160226   2.864   4.168  16.813 -1.0567  1.7352 -1.0859
12937TIP3    H260227   2.931   4.250  16.921  0.2783  0.0078 -0.5459
12938TIP3   OH260228   3.535   5.154   0.688 -0.3252  0.5175  0.0764
12938TIP3    H160229   3.532   5.062   0.713  0.4645  0.6217  0.5879
12938TIP3    H260230   3.627   5.171   0.670 -0.7189  0.6810 -2.0645
12939TIP3   OH260231   3.479   6.318  16.760 -0.1506  0.2342  0.6584
12939TIP3    H160232   3.514   6.346  16.844  2.2549 -2.3920  0.7058
12939TIP3    H260233   3.541   6.251  16.729 -2.0977 -0.4784 -2.1839
12940TIP3   OH260234   3.845   4.063   4.184 -0.3708  0.1277  0.3677
12940TIP3    H160235   3.880   4.130   4.125 -3.7972  2.4162  0.6448
12940TIP3    H260236   3.839   3.984   4.130 -0.3785  1.2830 -1.4002
12941TIP3   OH260237   3.333   0.178   3.282 -0.0130  0.0575 -0.4636
12941TIP3    H160238   3.333   0.267   3.248 -1.2248  0.0502 -0.5447
12941TIP3    H260239   3.253   0.173   3.335 -0.9671 -1.5145 -1.9602
12942TIP3   OH260240   0.874   5.683  12.857 -0.1804  0.5257  0.5835
12942TIP3    H160241   0.871   5.622  12.932 -0.2189 -0.2575 -0.0387
12942TIP3    H260242   0.782   5.692  12.831 -0.1461  0.6161  0.4950
12943TIP3   OH260243   0.646   2.192  10.967 -0.2642  0.5352  0.2209
12943TIP3    H160244   0.708   2.250  11.010 -0.2464  0.9575 -0.3656
12943TIP3    H260245   0.690   2.107  10.965 -0.9816  0.0037  2.6875
12944TIP3   OH260246   4.550   0.818  16.737  0.2073 -0.2026 -0.1348
12944TIP3    H160247   4.496   0.784  16.809 -0.4132 -0.4734 -0.7119
12944TIP3    H260248   4.620   0.754  16.727  0.4001 -0.0695  0.3460
12945TIP3   OH260249   6.744   5.053   0.074  0.1728  0.4233  0.4441
12945TIP3    H160250   6.801   5.129   0.060  0.6697 -0.0596 -0.1760
12945TIP3    H260251   6.668   5.089   0.120  0.4078  1.3008  0.1712
12946TIP3   OH260252   1.709   6.032  15.484  0.3535  0.0128 -0.1785
12946TIP3    H160253   1.664   6.018  15.401  0.3627  0.2134 -0.2180
12946TIP3    H260254   1.779   6.093  15.463  0.6349 -0.2864 -0.1148
12947TIP3   OH260255   3.419   0.939   1.943 -0.5169 -0.4391 -0.3049
12947TIP3    H160256   3.477   1.015   1.947  2.8113 -2.6848 -1.4331
12947TIP3    H260257   3.372   0.940   2.026 -0.2714  2.5109 -0.0803
12948TIP3   OH260258   4.794   4.505  14.461  0.0049 -0.9468 -0.4658
12948TIP3    H160259   4.721   4.566  14.466 -0.7198 -1.7002 -1.4342
12948TIP3    H260260   4.753   4.418  14.461  0.8867 -1.3780 -1.0979
12949TIP3   OH260261   0.387   0.773  13.381 -0.1458  0.0580  0.2626
12949TIP3    H160262   0.363   0.862  13.353 -0.5996 -0.2592 -0.3637
12949TIP3    H260263   0.320   0.717  13.343  0.2238 -0.5766  0.5369
12950TIP3   OH260264   3.377   5.568  11.025  0.2081 -0.0803 -0.3739
12950TIP3    H160265   3.356   5.479  11.056 -1.0648  0.0359 -0.8545
12950TIP3    H260266   3.306   5.590  10.965  0.1101  1.5529  0.2948
12951TIP3   OH260267   4.854   1.098   2.962 -0.0806 -0.5483 -0.5367
12951TIP3    H160268   4.828   1.182   2.925  3.0471  1.0213  0.4761
12951TIP3    H260269   4.940   1.080   2.924  1.0638 -1.2872  2.1359
12952TIP3   OH260270   6.393   6.633   1.641 -0.3611 -0.5474 -0.7803
12952TIP3    H160271   6.447   6.675   1.574  0.9399 -1.5177 -0.3890
12952TIP3    H260272   6.374   6.702   1.704  0.8380 -0.2692 -0.6952
12953TIP3   OH260273   3.463   0.085  11.358 -0.3634 -0.1411  0.6482
12953TIP3    H160274   3.498   0.170  11.330 -1.7795  0.2917  0.0918
12953TIP3    H260275   3.448   0.038  11.276 -0.3116 -0.6316  0.9178
12954TIP3   OH260276   2.569   3.024   2.455  0.1572 -0.3049  0.2197
12954TIP3    H160277   2.636   3.060   2.513  0.3325  0.3819 -0.3901
12954TIP3    H260278   2.506   2.983   2.514  0.5296  0.0326  0.8723
12955TIP3   OH260279   1.289   3.607  12.240 -0.4146 -0.2163  0.3175
12955TIP3    H160280   1.263   3.680  12.183 -1.4238 -0.8825 -0.1231
12955TIP3    H260281   1.376   3.582  12.209 -1.0044 -0.6638 -1.0753
12956TIP3   OH260282   5.721   6.290  11.692 -0.6054 -0.0899 -0.2763
12956TIP3    H160283   5.811   6.263  11.674 -0.2176  1.3125 -0.5542
12956TIP3    H260284   5.684   6.218  11.743  0.4254 -1.0353 -0.8094
12957TIP3   OH260285   2.019   0.538   2.530 -0.1593 -0.1342  0.1789
12957TIP3    H160286   1.947   0.585   2.572  1.0296  3.0865 -1.0643
12957TIP3    H260287   1.976   0.482   2.466 -1.7624 -2.4738  3.0902
12958TIP3   OH260288   2.222   3.500  11.719  0.3619 -0.0723  0.1079
12958TIP3    H160289   2.294   3.481  11.779  0.0623  1.4749  1.0084
12958TIP3    H260290   2.144   3.506  11.775 -0.3192 -0.7876 -0.7280
12959TIP3   OH260291   0.852   6.476   2.064  0.0333  0.5626 -0.1343
12959TIP3    H160292   0.799   6.405   2.102 -0.4507  0.5733 -0.7723
12959TIP3    H260293   0.814   6.556   2.100 -1.0011  0.6240 -1.3026
12960TIP3   OH260294   1.887   4.800  13.034  0.2253  0.0055  0.3172
12960TIP3    H160295   1.978   4.807  13.003 -0.3097  1.1660 -1.1272
12960TIP3    H260296   1.847   4.736  12.975  0.0402 -0.3160  0.7912
12961TIP3   OH260297   4.869   3.027  15.220 -0.2990  0.9231  0.2173
12961TIP3    H160298   4.889   2.996  15.308  0.1975  0.0590 -0.1809
12961TIP3    H260299   4.888   3.121  15.222 -2.2728  1.3440  1.5779
12962TIP3   OH260300   0.146   5.371  12.693  0.1570 -0.0159  0.1155
12962TIP3    H160301   0.169   5.397  12.604 -1.1328  0.1300 -0.1957
12962TIP3    H260302   0.227   5.336  12.730  0.9202  0.7343 -0.8137
12963TIP3   OH260303   5.187   2.650   4.868  0.1338  0.5496  0.1448
12963TIP3    H160304   5.163   2.669   4.959 -3.0517  0.4205 -0.5653
12963TIP3    H260305   5.146   2.719   4.817  1.7854  0.5507 -1.2640
12964TIP3   OH260306   0.879   6.181   6.482  0.4804 -0.4136 -0.0971
12964TIP3    H160307   0.907   6.253   6.425  0.3639 -1.3032 -1.3223
12964TIP3    H260308   0.813   6.220   6.539 -0.1735  0.2807 -1.2839
12965TIP3   OH260309   1.171   5.467  12.418 -0.1572 -0.0044  0.3365
12965TIP3    H160310   1.188   5.561  12.429  1.4939 -0.1429 -0.8292
12965TIP3    H260311   1.219   5.425  12.489 -1.0190  0.0078  0.9505
12966TIP3   OH260312   4.977   2.365  13.403  0.0745 -0.2951 -0.1779
12966TIP3    H160313   4.927   2.444  13.427 -0.8976 -1.1046  0.5335
12966TIP3    H260314   5.051   2.364  13.463  1.5303  1.3950 -1.8085
12967TIP3   OH260315   4.050   0.077   3.137 -0.1738  0.3567 -0.1096
12967TIP3    H160316   3.959   0.091   3.111 -0.0552  0.1134 -0.6627
12967TIP3    H260317   4.066  -0.016   3.119 -0.3254 -0.0316  1.5733
12968TIP3   OH260318   4.465   3.851  16.166 -0.0074 -0.3647  0.0620
12968TIP3    H160319   4.557   3.876  16.157 -0.0176  0.1500  1.1906
12968TIP3    H260320   4.435   3.834  16.076  0.8181  0.7882 -0.4521
12969TIP3   OH260321   2.316   1.127   0.183 -0.7107 -0.6391  0.0352
12969TIP3    H160322   2.362   1.088   0.108 -2.6049 -1.0154 -0.9995
12969TIP3    H260323   2.350   1.081   0.259  1.7719  0.2125 -0.4547
12970TIP3   OH260324   2.735   5.527   3.709  0.5747  0.1053 -0.5401
12970TIP3    H160325   2.694   5.574   3.637 -1.1413  0.0445  0.3350
12970TIP3    H260326   2.691   5.442   3.711  0.4491  0.1806  0.6810
12971TIP3   OH260327   1.481   5.693  13.981 -0.2316  0.2907 -0.0046
12971TIP3    H160328   1.538   5.700  13.905 -1.2477 -1.2614 -0.9511
12971TIP3    H260329   1.410   5.755  13.964 -2.0327 -2.0986 -1.8335
12972TIP3   OH260330   3.994   0.500  11.137 -0.2777 -0.3204  0.4722
12972TIP3    H160331   4.019   0.411  11.114 -2.4538 -1.3587  1.7941
12972TIP3    H260332   3.931   0.526  11.069  1.8314  1.0747 -1.0769
12973TIP3   OH260333   6.550   2.602  14.415  0.3560 -0.0706  0.7299
12973TIP3    H160334   6.572   2.592  14.508  1.2896  0.3479  0.5573
12973TIP3    H260335   6.502   2.522  14.394 -0.9234  0.3672  1.8670
12974TIP3   OH260336   3.672   6.059   4.606 -0.6359 -0.5348 -0.1591
12974TIP3    H160337   3.681   6.093   4.517 -1.0484 -0.5700 -0.2135
12974TIP3    H260338   3.756   6.080   4.648 -1.0972  1.1255  0.0150
12975TIP3   OH260339   4.130   5.934   6.024 -0.3832 -1.1437 -0.5947
12975TIP3    H160340   4.133   6.018   6.069  1.6082 -1.5622  0.1608
12975TIP3    H260341   4.057   5.887   6.066 -1.8592  0.3261 -1.3862
12976TIP3   OH260342   3.079   6.278  12.667  0.1489 -0.5290 -0.7980
12976TIP3    H160343   3.080   6.371  12.645 -1.5700  0.0226  1.1625
12976TIP3    H260344   3.051   6.235  12.586 -1.0381  0.8835 -1.1747
12977TIP3   OH260345   2.795   6.281  10.596 -0.0679 -0.7072  0.2402
12977TIP3    H160346   2.736   6.229  10.542 -0.5756  0.0754  0.0262
12977TIP3    H260347   2.753   6.285  10.682 -0.5599  0.1949 -0.0234
12978TIP3   OH260348   1.549   0.586   3.151  0.1434  0.4737  0.4314
12978TIP3    H160349   1.628   0.608   3.101 -0.1284 -0.7325 -0.5765
12978TIP3    H260350   1.503   0.670   3.162  0.5645  0.8767 -0.7358
12979TIP3   OH260351   4.180   4.093  13.523 -0.2175 -0.0912 -0.1257
12979TIP3    H160352   4.220   4.064  13.441  0.2095  1.1606 -0.3807
12979TIP3    H260353   4.087   4.102  13.503 -0.0823  0.4175 -0.5415
12980TIP3   OH260354   3.158   2.971   2.868  0.1812 -0.1489  0.1669
12980TIP3    H160355   3.220   2.957   2.939  0.2765  0.0535  0.1234
12980TIP3    H260356   3.093   2.902   2.879  0.7774 -0.7816 -0.1826
12981TIP3   OH260357   4.771   4.342  12.627 -0.2852  0.4057  0.3917
12981TIP3    H160358   4.853   4.296  12.644  0.5646  1.2823 -1.1235
12981TIP3    H260359   4.709   4.273  12.606  0.8623 -0.1534 -1.4419
12982TIP3   OH260360   3.104   2.132  16.954 -0.0700  0.5170  0.0536
12982TIP3    H160361   3.175   2.115  16.891 -0.9165 -1.5747 -0.4371
12982TIP3    H260362   3.150   2.159  17.034  1.0884  2.0930 -1.0795
12983TIP3   OH260363   3.585   2.154  16.823 -0.1159  0.2040 -0.0893
12983TIP3    H160364   3.594   2.217  16.751  1.8445  0.3179  0.2047
12983TIP3    H260365   3.623   2.073  16.788 -0.7599 -0.2436  0.2299
12984TIP3   OH260366   2.200   0.130   5.215 -0.2823 -0.3250  0.0614
12984TIP3    H160367   2.244   0.209   5.183 -1.6862  0.8256  0.8557
12984TIP3    H260368   2.172   0.084   5.136  0.6401 -0.0887 -0.4100
12985TIP3   OH260369   5.955   4.949   1.009  0.0733 -0.1413  0.0413
12985TIP3    H160370   5.915   4.986   0.930  1.4209  2.1434  0.3580
12985TIP3    H260371   5.962   5.022   1.070 -0.1198 -1.6558  2.0035
12986TIP3   OH260372   0.754   4.462   2.066  0.4020 -0.0673 -0.0072
12986TIP3    H160373   0.758   4.406   1.989  0.2578  1.2327 -0.9956
12986TIP3    H260374   0.843   4.459   2.103  0.2987 -1.2118  0.1742
12987TIP3   OH260375   6.361   2.028   0.764  0.0222  0.0610  0.0553
12987TIP3    H160376   6.301   1.955   0.748 -1.0727  0.4622  2.0595
12987TIP3    H260377   6.305   2.105   0.774  0.9168  0.6352  0.9152
12988TIP3   OH260378   3.184   1.663  11.857  0.0656  0.1189  0.2787
12988TIP3    H160379   3.159   1.754  11.875  0.1496  0.5506 -1.5903
12988TIP3    H260380   3.101   1.620  11.835  0.1353 -0.0308  0.3088
12989TIP3   OH260381   5.095   2.443   6.268 -0.3566  0.2810  0.0168
12989TIP3    H160382   5.131   2.360   6.300 -0.8424  0.3848  0.8476
12989TIP3    H260383   5.166   2.506   6.280  0.2713 -0.1239 -1.2726
12990TIP3   OH260384   4.205   2.446   2.229 -0.5856  0.8046  0.5484
12990TIP3    H160385   4.148   2.500   2.284  0.5716  0.6142  1.9784
12990TIP3    H260386   4.187   2.356   2.256  0.7543  0.7690  1.4089
12991TIP3   OH260387   1.905   4.423   3.086 -0.3372  0.3022 -0.0057
12991TIP3    H160388   1.821   4.442   3.127  0.3968 -1.5848  2.6600
12991TIP3    H260389   1.960   4.499   3.106 -0.5241  0.1905  0.9459
12992TIP3   OH260390   2.148   5.858   4.595  0.3483  0.0471 -0.5416
12992TIP3    H160391   2.104   5.796   4.536 -1.0168 -0.4725  0.9547
12992TIP3    H260392   2.212   5.804   4.642 -1.0988 -0.3868  1.0317
12993TIP3   OH260393   6.346   4.952  12.641 -0.1956  0.0052 -0.0131
12993TIP3    H160394   6.393   5.034  12.658  0.6522 -0.4701 -0.0386
12993TIP3    H260395   6.270   4.956  12.700  0.6879  0.0999  1.1511
12994TIP3   OH260396   4.751   3.702   5.748  0.4787  0.4562 -0.3142
12994TIP3    H160397   4.827   3.716   5.805 -0.2320  1.7879  0.3668
12994TIP3    H260398   4.675   3.717   5.805 -0.3040 -0.6573 -1.0254
12995TIP3   OH260399   5.233   3.331   5.395 -0.1802  0.1230  0.1551
12995TIP3    H160400   5.274   3.246   5.381  0.0100  0.2266  0.0824
12995TIP3    H260401   5.294   3.378   5.452 -0.6888 -0.0991  0.9004
12996TIP3   OH260402   2.083   2.570   2.336 -0.4832  0.4017 -0.2287
12996TIP3    H160403   2.045   2.537   2.417 -0.6293 -0.4299 -0.6299
12996TIP3    H260404   2.020   2.634   2.304 -0.4778  0.6527  0.2526
12997TIP3   OH260405   6.465   3.406  14.547 -0.3497 -0.1005  0.1446
12997TIP3    H160406   6.539   3.464  14.531  0.7150 -1.7304 -1.1856
12997TIP3    H260407   6.432   3.385  14.459 -0.9476 -1.1685  0.6082
12998TIP3   OH260408   0.544   6.417   3.268  0.0938 -0.0573 -0.2691
12998TIP3    H160409   0.477   6.356   3.299  0.6313 -1.1746 -1.2463
12998TIP3    H260410   0.534   6.494   3.324 -2.5257  0.1445 -0.8712
12999TIP3   OH260411   4.406   5.883  12.395 -0.1681 -0.4129 -0.4908
12999TIP3    H160412   4.446   5.847  12.316  1.3625 -0.0655  0.0937
12999TIP3    H260413   4.423   5.977  12.390 -0.0041 -0.3972  0.2676
13000TIP3   OH260414   4.946   5.345  16.729  0.4006  0.0741  0.5792
13000TIP3    H160415   4.886   5.403  16.682 -0.2203 -0.8260  0.2375
13000TIP3    H260416   4.982   5.399  16.799  1.7786  1.6236 -1.2325
13001TIP3   OH260417   6.365   3.692   2.971  0.7684  0.0248 -0.2851
13001TIP3    H160418   6.300   3.664   2.906  2.0986 -0.3407 -1.5199
13001TIP3    H260419   6.406   3.611   3.001  3.0718  0.3506 -2.1965
13002TIP3   OH260420   6.573   2.047   5.143 -0.0746  0.0910 -0.1891
13002TIP3    H160421   6.528   2.109   5.085  0.1116  1.7341  1.3135
13002TIP3    H260422   6.628   2.103   5.199  0.4061 -1.4776  0.9748
13003TIP3   OH260423   5.761   3.516   5.711  0.3353  0.6599  0.1116
13003TIP3    H160424   5.796   3.468   5.636  1.7487  1.9610 -0.1101
13003TIP3    H260425   5.769   3.455   5.784  2.5751  0.6551 -0.0550
13004TIP3   OH260426   1.841   2.967   1.049 -0.0651  0.0799  0.5272
13004TIP3    H160427   1.769   3.011   1.002  0.0699  1.1153  1.2505
13004TIP3    H260428   1.819   2.977   1.141 -0.5245 -2.2872  0.7222
13005TIP3   OH260429   1.925   0.416  16.967  0.1151 -0.0854  0.1514
13005TIP3    H160430   1.873   0.463  17.033  0.3675 -0.4045  0.5819
13005TIP3    H260431   1.922   0.325  16.995  0.4761 -0.1812 -0.1155
13006TIP3   OH260432   4.476   5.725   5.021  0.1756  0.3536  0.4154
13006TIP3    H160433   4.507   5.675   4.946  1.7143  1.0728  0.5288
13006TIP3    H260434   4.549   5.722   5.083 -1.0698 -0.2696  1.9337
13007TIP3   OH260435   0.589   2.784  12.705 -0.3932  0.4576  0.0649
13007TIP3    H160436   0.584   2.690  12.725  2.1684  0.5030  1.4299
13007TIP3    H260437   0.498   2.813  12.703 -1.2252 -1.8268  0.7001
13008TIP3   OH260438   1.981   2.927  15.775 -0.4788  0.1939 -0.3896
13008TIP3    H160439   1.913   2.994  15.778  0.1734  0.8322  0.5321
13008TIP3    H260440   1.938   2.848  15.808 -1.0263  0.3499 -0.7153
13009TIP3   OH260441   4.244   5.187  16.679 -0.4604  0.8788  0.0092
13009TIP3    H160442   4.230   5.260  16.619  0.8588  0.2510 -1.1462
13009TIP3    H260443   4.332   5.156  16.658  0.1514  0.7623  2.4696
13010TIP3   OH260444   6.712   2.609  16.382  0.9688  0.5027  0.1341
13010TIP3    H160445   6.680   2.662  16.455  1.5721  1.0149  0.0388
13010TIP3    H260446   6.633   2.574  16.341  0.6672 -1.7530  2.4298
13011TIP3   OH260447   4.190   6.585  12.549  0.3991  0.0670  0.3921
13011TIP3    H160448   4.282   6.590  12.575  1.3675 -2.0087 -2.1384
13011TIP3    H260449   4.153   6.513  12.600  0.0318  1.1248  1.6618
13012TIP3   OH260450   6.346   6.354   3.207 -0.0710  0.3016 -0.3380
13012TIP3    H160451   6.400   6.287   3.249 -1.3389 -0.5708 -0.0150
13012TIP3    H260452   6.352   6.335   3.113 -1.4567 -1.1432 -0.1762
13013TIP3   OH260453   5.939   2.395  11.100  0.1481 -0.2377 -0.1037
13013TIP3    H160454   5.877   2.435  11.039  0.7125  0.5762 -0.1496
13013TIP3    H260455   5.892   2.319  11.135 -1.2482  0.8997  0.6059
13014TIP3   OH260456   1.780   0.116  11.647 -0.7519  0.0679 -0.2855
13014TIP3    H160457   1.684   0.113  11.657 -1.0559 -0.3586 -2.7731
13014TIP3    H260458   1.799   0.208  11.632 -0.6502  0.2537  0.8562
13015TIP3   OH260459   4.056   1.623   1.186 -0.1273 -0.3561 -0.0358
13015TIP3    H160460   4.008   1.622   1.269 -2.1558 -0.9763 -1.1619
13015TIP3    H260461   4.043   1.712   1.152  1.1273  0.0586  0.5030
13016TIP3   OH260462   5.277   3.576   1.960 -0.5057 -0.0369  0.5421
13016TIP3    H160463   5.219   3.587   1.884 -1.1249 -1.7238  0.7168
13016TIP3    H260464   5.218   3.575   2.035 -0.2020 -1.1285  0.7845
13017TIP3   OH260465   3.896   0.912  14.020  0.5600  0.2797  0.0849
13017TIP3    H160466   3.965   0.856  13.983  1.2505  0.0152  1.7078
13017TIP3    H260467   3.932   0.943  14.103 -1.3501  0.0041  1.0715
13018TIP3   OH260468   2.112   0.220   3.890 -0.2772 -0.1030 -0.3087
13018TIP3    H160469   2.088   0.128   3.874 -0.2856 -0.2469  0.4902
13018TIP3    H260470   2.042   0.270   3.848 -0.6701 -0.4795 -0.1194
13019TIP3   OH260471   3.930   2.648   0.133  0.0023  0.4998 -0.0831
13019TIP3    H160472   3.945   2.725   0.188 -0.3330  0.9491 -0.6027
13019TIP3    H260473   3.843   2.663   0.095  0.5595  0.5881 -1.3633
13020TIP3   OH260474   0.269   5.362   4.349  0.3402  0.3733 -0.1167
13020TIP3    H160475   0.265   5.457   4.363 -0.4314  0.3887 -0.4024
13020TIP3    H260476   0.295   5.352   4.258  0.0697  0.3076 -0.1846
13021TIP3   OH260477   4.449   5.673   1.415 -0.5251  0.2534  0.0651
13021TIP3    H160478   4.380   5.618   1.378 -0.3028 -0.6116  0.8908
13021TIP3    H260479   4.508   5.690   1.342 -0.7077 -0.4501 -0.2548
13022TIP3   OH260480   1.937   2.661   1.679  0.0897 -0.3414 -0.4052
13022TIP3    H160481   1.987   2.640   1.600 -0.5060 -1.8888 -0.4020
13022TIP3    H260482   1.985   2.619   1.750 -0.3082 -0.4110 -0.1766
13023TIP3   OH260483   3.708   5.299   2.804 -0.2196 -0.4033 -0.2598
13023TIP3    H160484   3.734   5.299   2.712 -3.1102  3.1333 -1.3349
13023TIP3    H260485   3.719   5.390   2.832 -3.0922 -0.4777  1.6014
13024TIP3   OH260486   2.972   2.183   0.397 -0.5821 -0.4297  0.2609
13024TIP3    H160487   2.886   2.184   0.356 -0.8915 -0.3746  0.9039
13024TIP3    H260488   3.013   2.102   0.365 -2.2678 -2.4194  2.7557
13025TIP3   OH260489   1.950   3.437   0.874 -0.2136  0.2004  0.5592
13025TIP3    H160490   1.970   3.441   0.967 -0.2665 -0.1590  0.5871
13025TIP3    H260491   1.855   3.431   0.870 -0.2354  0.5685  0.4683
13026TIP3   OH260492   3.014   4.845  14.164 -0.2056  0.5784  0.2761
13026TIP3    H160493   2.976   4.761  14.138 -1.6517  0.9803  0.9976
13026TIP3    H260494   3.068   4.871  14.089  1.9965 -1.9309  0.8152
13027TIP3   OH260495   4.307   0.053   2.236 -0.3453  0.3836 -0.3765
13027TIP3    H160496   4.348   0.100   2.163 -1.7134  1.2097 -0.6535
13027TIP3    H260497   4.213   0.056   2.217 -0.8160  1.3047  1.8031
13028TIP3   OH260498   4.875   1.711   5.161 -0.7763  0.1836 -0.3975
13028TIP3    H160499   4.823   1.666   5.227 -0.3058  0.1228 -0.0610
13028TIP3    H260500   4.842   1.678   5.077 -0.9973 -0.1593 -0.1776
13029TIP3   OH260501   0.285   0.011   6.630 -0.0852 -0.4728 -0.0102
13029TIP3    H160502   0.320  -0.000   6.541  0.8819  0.3302  0.2542
13029TIP3    H260503   0.337   0.082   6.668 -0.4864 -0.8020  1.2040
13030TIP3   OH260504   3.464   5.084   4.528  0.1480 -0.1787  0.1071
13030TIP3    H160505   3.390   5.033   4.495 -0.4642  0.2842  0.7218
13030TIP3    H260506   3.507   5.026   4.591 -0.0658 -0.2395  0.2004
13031TIP3   OH260507   2.141   0.685   3.457  0.4097  0.0062  0.2469
13031TIP3    H160508   2.114   0.728   3.538 -0.4669  0.3956 -0.2464
13031TIP3    H260509   2.184   0.754   3.406 -1.1351  0.3609 -0.6095
13032TIP3   OH260510   5.926   0.425  16.288 -0.0073  0.0239 -0.4697
13032TIP3    H160511   5.958   0.514  16.274 -1.1149  0.3013 -1.4022
13032TIP3    H260512   5.832   0.430  16.273 -0.5226 -0.8008  2.0593
13033TIP3   OH260513   6.661   0.613   6.239  0.2023  0.3053  0.0379
13033TIP3    H160514   6.631   0.525   6.263  2.2349 -0.7386 -0.9776
13033TIP3    H260515   6.590   0.649   6.185 -1.3212 -0.0590  1.7008
13034TIP3   OH260516   4.333   4.031  14.006 -0.2754 -0.3015  0.0434
13034TIP3    H160517   4.305   3.942  13.983 -0.8581 -0.3300  0.7929
13034TIP3    H260518   4.345   4.027  14.101  1.6689 -0.1068 -0.1550
13035TIP3   OH260519   3.641   2.639  15.546  0.4468  0.8581  0.8152
13035TIP3    H160520   3.585   2.674  15.615  0.8345  0.0453  1.5535
13035TIP3    H260521   3.608   2.551  15.529  0.6637  0.8689  0.3012
13036TIP3   OH260522   5.548   2.335  16.866  1.0109  0.7080 -0.0930
13036TIP3    H160523   5.577   2.407  16.811 -3.1016  2.4899 -0.3327
13036TIP3    H260524   5.562   2.366  16.956  2.7776  0.0647 -0.1052
13037TIP3   OH260525   3.875   1.253   2.055  0.0905  0.1967 -0.5108
13037TIP3    H160526   3.873   1.329   2.112 -1.6162  1.1357 -1.7226
13037TIP3    H260527   3.930   1.280   1.981 -0.0743  0.0483 -0.6874
13038TIP3   OH260528   5.483   0.133   1.029 -0.3715 -0.2615 -0.1928
13038TIP3    H160529   5.487   0.064   1.095 -2.8534 -0.4515 -0.1621
13038TIP3    H260530   5.574   0.144   1.001  0.4560 -1.6824  1.6724
13039TIP3   OH260531   0.690   0.478   5.694 -0.3400 -0.0901 -1.1492
13039TIP3    H160532   0.643   0.561   5.684 -0.8756 -0.1945  0.2883
13039TIP3    H260533   0.646   0.419   5.633 -2.2695 -0.2303  0.2682
13040TIP3   OH260534   4.161   6.373   5.753  0.2365 -0.1596 -0.3457
13040TIP3    H160535   4.237   6.348   5.805  0.4861  1.2360  0.0119
13040TIP3    H260536   4.093   6.392   5.818  0.6799  2.0150 -0.4541
13041TIP3   OH260537   5.421   5.763  11.103  0.4935  0.0552  0.0663
13041TIP3    H160538   5.371   5.836  11.066 -0.6640  0.2093  1.8109
13041TIP3    H260539   5.511   5.780  11.076 -0.0234  1.1179 -1.1110
13042TIP3   OH260540   2.035   0.807   5.732  0.0300  0.3435  0.0409
13042TIP3    H160541   1.976   0.737   5.759  0.0887  0.6515  1.0114
13042TIP3    H260542   2.056   0.853   5.813 -0.6603  2.0066 -0.6917
13043TIP3   OH260543   5.039   0.074  15.154 -0.2661  0.2268 -0.2584
13043TIP3    H160544   4.989   0.141  15.107  2.2596  2.0699 -0.5471
13043TIP3    H260545   5.063   0.010  15.087 -1.9305 -0.5623 -0.1571
13044TIP3   OH260546   5.461   2.652   6.516  0.5036  0.0032 -0.4323
13044TIP3    H160547   5.522   2.702   6.571  0.2400 -0.2282  0.0712
13044TIP3    H260548   5.430   2.582   6.572 -0.0173 -0.0462 -0.7777
13045TIP3   OH260549   0.218   6.353   3.184  0.1116  0.4682 -0.1209
13045TIP3    H160550   0.260   6.434   3.210 -0.7250  1.6733 -2.2318
13045TIP3    H260551   0.129   6.359   3.221  0.3000  0.1148  0.4015
13046TIP3   OH260552   2.468   4.726  15.455  0.6090  0.6229 -1.0546
13046TIP3    H160553   2.522   4.773  15.391 -0.5936  1.1051 -1.7519
13046TIP3    H260554   2.500   4.636  15.451  2.0991  1.1060 -0.6254
13047TIP3   OH260555   5.646   4.510   3.399  0.5421  0.2973  0.1831
13047TIP3    H160556   5.555   4.483   3.416  0.5296 -0.0771 -0.4465
13047TIP3    H260557   5.692   4.491   3.480 -0.2227  1.8049  1.0165
13048TIP3   OH260558   0.990   1.474  16.278  0.8889 -0.0195  0.2326
13048TIP3    H160559   0.933   1.551  16.278 -1.3466 -1.5669 -0.7313
13048TIP3    H260560   1.036   1.478  16.363  0.2708  1.9253  0.5277
13049TIP3   OH260561   6.403   2.415  16.674 -0.5399  0.3027 -0.0441
13049TIP3    H160562   6.403   2.413  16.770  0.9545  0.2559 -0.0221
13049TIP3    H260563   6.496   2.419  16.650 -0.7923 -1.4557 -1.5410
13050TIP3   OH260564   6.644   6.101  14.209 -0.6780 -0.4927  0.3256
13050TIP3    H160565   6.700   6.149  14.270  0.0009 -0.1086 -0.5705
13050TIP3    H260566   6.559   6.144  14.216 -0.3774  0.1018  0.3779
13051TIP3   OH260567   4.941   5.640  15.315 -0.0406  0.3333 -0.4059
13051TIP3    H160568   4.929   5.554  15.275  0.4159  1.1943 -2.5985
13051TIP3    H260569   4.913   5.702  15.247 -2.1040  1.9364  1.7403
13052TIP3   OH260570   3.897   4.532  10.671 -0.4409 -0.7811  0.1531
13052TIP3    H160571   3.815   4.580  10.675 -0.9016 -1.5790  0.6627
13052TIP3    H260572   3.904   4.491  10.758 -0.2420 -1.8954 -0.3783
13053TIP3   OH260573   5.593   1.211   3.219 -0.0621  0.0750 -0.0555
13053TIP3    H160574   5.606   1.177   3.308  0.5570  2.0513  0.6529
13053TIP3    H260575   5.525   1.278   3.229  0.3419  0.6313 -0.9809
13054TIP3   OH260576   5.907   6.655  16.119  0.6874  0.5467  0.0086
13054TIP3    H160577   5.983   6.627  16.068 -0.6277  0.9718 -2.3913
13054TIP3    H260578   5.936   6.734  16.165  1.6763  0.7601 -0.9427
13055TIP3   OH260579   2.980   0.493  14.616 -0.4304 -0.1497 -1.0186
13055TIP3    H160580   2.910   0.544  14.575  0.9187  0.9769 -2.0282
13055TIP3    H260581   2.990   0.534  14.703 -1.1566 -0.4760 -0.7697
13056TIP3   OH260582   0.940   6.066  12.258  0.5254 -0.0710 -0.1576
13056TIP3    H160583   0.938   5.994  12.322  2.0859 -0.2891 -0.3119
13056TIP3    H260584   0.864   6.051  12.203 -0.2441 -0.5026  0.9777
13057TIP3   OH260585   1.176   3.039  12.263 -0.6685 -0.4309  0.2132
13057TIP3    H160586   1.175   3.000  12.175 -0.6197  0.8219 -0.3626
13057TIP3    H260587   1.114   2.985  12.313 -0.8218 -1.0658 -0.6254
13058TIP3   OH260588   6.129   5.714   5.486 -0.1100 -0.2503 -0.2742
13058TIP3    H160589   6.127   5.634   5.434  1.9744  0.1872 -1.1185
13058TIP3    H260590   6.082   5.779   5.434  0.1030 -0.3678 -0.6127
13059TIP3   OH260591   0.090   5.754  11.088  0.0068 -0.0830  0.3322
13059TIP3    H160592   0.107   5.825  11.025  1.8248  0.1646  1.0220
13059TIP3    H260593   0.140   5.680  11.054 -0.7427 -0.6045  0.3634
13060TIP3   OH260594   1.221   0.063  14.868  0.6220  0.4377 -0.3180
13060TIP3    H160595   1.170   0.029  14.795  0.8094  0.1008 -0.2949
13060TIP3    H260596   1.312   0.046  14.844  0.6465 -0.4161  0.3567
13061TIP3   OH260597   6.026   3.333  14.545  0.0509 -0.1385 -0.0444
13061TIP3    H160598   5.957   3.290  14.495  0.3228 -0.5095 -0.1078
13061TIP3    H260599   6.066   3.262  14.597  2.4490 -0.6178 -2.3075
13062TIP3   OH260600   3.813   2.545  13.377 -0.1462 -0.3054  0.0721
13062TIP3    H160601   3.853   2.486  13.314  0.2860  1.1184 -1.0422
13062TIP3    H260602   3.883   2.606  13.400  0.0930 -1.4857  2.9150
13063TIP3   OH260603   5.736   0.631  13.348 -0.1154 -0.6524 -0.0757
13063TIP3    H160604   5.742   0.642  13.443  2.1642  0.3195 -0.2711
13063TIP3    H260605   5.666   0.691  13.322 -0.8113 -0.9710  0.9797
13064TIP3   OH260606   3.903   4.238   3.379  0.0898  0.3546  0.1590
13064TIP3    H160607   3.927   4.299   3.449  0.0564 -0.2859  0.7340
13064TIP3    H260608   3.914   4.289   3.298 -1.5331  1.6733  0.6899
13065TIP3   OH260609   4.472   3.910  14.652  0.1408  0.0256  0.1795
13065TIP3    H160610   4.513   3.842  14.705  2.1055  1.0226  0.0367
13065TIP3    H260611   4.510   3.899  14.565  2.6851  2.8396  0.7315
13066TIP3   OH260612   5.063   0.670   5.450  0.4404  0.8357  0.3906
13066TIP3    H160613   5.101   0.746   5.405 -1.2587  0.7474 -1.2828
13066TIP3    H260614   5.059   0.602   5.383 -0.7789  0.2188  1.0599
13067TIP3   OH260615   0.195   6.542  14.235 -0.1780 -0.0979 -0.8685
13067TIP3    H160616   0.177   6.455  14.199 -0.3204 -0.7232  0.6279
13067TIP3    H260617   0.290   6.547  14.239 -0.1731 -0.5834 -0.0926
13068TIP3   OH260618   0.535   0.562   1.299 -0.9056 -0.1359 -0.8367
13068TIP3    H160619   0.594   0.609   1.358 -1.9444  0.3759 -0.1750
13068TIP3    H260620   0.539   0.612   1.217 -0.6021  0.0343 -0.7207
13069TIP3   OH260621   5.284   2.757  12.193 -0.1477  0.4794 -0.4694
13069TIP3    H160622   5.370   2.788  12.220  0.4442 -0.9418 -0.6230
13069TIP3    H260623   5.260   2.691  12.259  0.0352 -0.9484 -1.7598
13070TIP3   OH260624   0.566   4.701   1.857 -0.2545  0.0182  0.2824
13070TIP3    H160625   0.637   4.645   1.889 -0.1896 -1.1174 -1.6560
13070TIP3    H260626   0.490   4.644   1.856 -1.0280  0.9779  1.4852
13071TIP3   OH260627   0.856   4.971  15.247  0.7588 -0.6793 -0.7463
13071TIP3    H160628   0.888   5.033  15.180  1.5317 -0.0113  0.2172
13071TIP3    H260629   0.933   4.952  15.301 -0.0536 -0.4579  0.5302
13072TIP3   OH260630   4.090   0.974  11.899  0.0055  0.1409 -0.2334
13072TIP3    H160631   3.994   0.970  11.903 -0.0585 -0.1157 -1.5782
13072TIP3    H260632   4.116   0.888  11.865  0.6792  0.3908 -0.3638
13073TIP3   OH260633   4.685   3.967  13.170  0.0731 -0.3506  0.9524
13073TIP3    H160634   4.770   3.926  13.156  0.3612  0.5629 -0.1300
13073TIP3    H260635   4.660   3.940  13.259  1.4673 -0.6517  1.2845
13074TIP3   OH260636   4.166   0.208   1.062 -0.3119  0.0128 -0.5596
13074TIP3    H160637   4.074   0.206   1.089 -0.4593 -0.7476 -1.0704
13074TIP3    H260638   4.201   0.287   1.102 -1.2419  0.4288 -0.5382
13075TIP3   OH260639   4.334   2.949  14.790 -0.4886 -0.1423  0.5848
13075TIP3    H160640   4.305   3.033  14.755  2.6295  0.5942 -0.5698
13075TIP3    H260641   4.352   2.895  14.713 -2.3030 -1.8980  1.3049
13076TIP3   OH260642   1.706   5.051   2.381  0.3155 -0.0330 -0.5963
13076TIP3    H160643   1.653   4.986   2.428  0.5395 -0.6857 -1.2345
13076TIP3    H260644   1.793   5.012   2.376  0.3461  0.1142 -1.3694
13077TIP3   OH260645   0.443   1.558   2.408  0.6756  0.2391  0.5576
13077TIP3    H160646   0.524   1.576   2.360  0.6592  0.1978  0.5150
13077TIP3    H260647   0.377   1.546   2.340  0.6102  0.3822  0.5945
13078TIP3   OH260648   4.638   1.362  16.646  0.4359  0.3465 -0.5778
13078TIP3    H160649   4.617   1.355  16.553 -1.5940 -0.8892 -0.0869
13078TIP3    H260650   4.642   1.272  16.677 -2.6537  0.6922  1.2203
13079TIP3   OH260651   0.207   1.143   3.226  0.3062 -0.1477 -0.0573
13079TIP3    H160652   0.159   1.098   3.157  0.1699  1.2111 -0.8913
13079TIP3    H260653   0.297   1.149   3.193  0.4941 -0.4786  0.3851
13080TIP3   OH260654   2.890   5.706   5.157 -0.5708 -0.0339 -0.4550
13080TIP3    H160655   2.919   5.632   5.102  0.2515  0.1799 -0.3201
13080TIP3    H260656   2.915   5.680   5.246  1.0156  0.9874 -0.5551
13081TIP3   OH260657   5.063   2.378   2.044  0.2631  0.0392 -0.1069
13081TIP3    H160658   5.055   2.444   1.976 -0.1960 -1.7980 -1.9182
13081TIP3    H260659   5.092   2.299   1.999 -0.2134 -1.3152  1.7899
13082TIP3   OH260660   1.273   4.340   1.464  0.8888  0.7623 -0.0887
13082TIP3    H160661   1.192   4.381   1.493  0.3326 -0.1808 -0.2474
13082TIP3    H260662   1.338   4.363   1.531 -0.1177 -0.5110  1.3952
13083TIP3   OH260663   3.709   3.844  14.687  0.3508 -0.1014  0.0983
13083TIP3    H160664   3.634   3.822  14.631  2.4323 -0.5171 -2.7475
13083TIP3    H260665   3.717   3.939  14.681  0.7971 -0.1763 -0.7215
13084TIP3   OH260666   5.425   2.205   2.456 -0.8498  0.2432 -0.4883
13084TIP3    H160667   5.342   2.249   2.438 -2.0310 -1.6543  0.0157
13084TIP3    H260668   5.419   2.181   2.549 -0.8902 -2.1470 -1.0568
13085TIP3   OH260669   5.584   5.172  13.666  0.1024  0.1825 -0.1334
13085TIP3    H160670   5.635   5.135  13.738 -1.5236 -0.3013  0.8215
13085TIP3    H260671   5.546   5.252  13.702 -0.3205  0.2095 -0.6294
13086TIP3   OH260672   5.109   0.428  15.491 -0.1610  0.8893 -0.2967
13086TIP3    H160673   5.067   0.382  15.563  2.0887 -0.6013  0.1461
13086TIP3    H260674   5.095   0.521  15.511 -0.8259  0.4874  1.2793
13087TIP3   OH260675   3.858   0.573  11.380  0.4471  0.3856 -0.2466
13087TIP3    H160676   3.890   0.549  11.293  2.0343  2.6808 -0.4000
13087TIP3    H260677   3.811   0.496  11.411  1.8573 -1.3601 -2.1715
13088TIP3   OH260678   3.515   1.136   4.782 -0.3458  0.3366  0.2210
13088TIP3    H160679   3.530   1.080   4.706  0.9250  1.2699 -0.2344
13088TIP3    H260680   3.423   1.120   4.805  0.2823 -2.9381  0.9417
13089TIP3   OH260681   3.784   2.725   3.140 -0.0907  0.1569 -0.2699
13089TIP3    H160682   3.716   2.752   3.202 -0.9166 -0.7080 -0.7694
13089TIP3    H260683   3.787   2.629   3.147 -0.8383 -0.0500 -2.1862
13090TIP3   OH260684   3.727   4.343  14.462  0.3183  0.3926  0.4291
13090TIP3    H160685   3.644   4.378  14.494 -0.9046 -1.7282 -0.2443
13090TIP3    H260686   3.722   4.355  14.367  1.0653  0.7717  0.4300
13091TIP3   OH260687   1.868   0.579  13.214  0.7437 -0.0579  0.4465
13091TIP3    H160688   1.948   0.606  13.259  2.1027 -0.8760 -1.3319
13091TIP3    H260689   1.881   0.485  13.197  0.5215  0.2967 -1.9511
13092TIP3   OH260690   5.444   1.066  14.220 -0.0019 -0.0195 -0.2107
13092TIP3    H160691   5.486   0.983  14.198  0.2112 -0.3546  1.3763
13092TIP3    H260692   5.495   1.131  14.171  0.5318 -0.7044 -0.5844
13093TIP3   OH260693   2.437   6.442   5.842  0.2985  0.5472 -0.0825
13093TIP3    H160694   2.371   6.443   5.912  1.1007  1.4104  0.7027
13093TIP3    H260695   2.494   6.368   5.863  0.6019  0.8703  0.2614
13094TIP3   OH260696   1.457   4.944  13.416  0.6630 -0.6419  0.2933
13094TIP3    H160697   1.427   4.879  13.353  0.1148 -1.4127  1.3206
13094TIP3    H260698   1.552   4.934  13.418  0.7982  0.0834 -1.1246
13095TIP3   OH260699   2.786   2.924  12.636 -0.0689 -0.1389  0.8170
13095TIP3    H160700   2.738   2.947  12.715 -0.2230 -0.8832  0.9502
13095TIP3    H260701   2.777   3.000  12.579 -2.1672 -0.5898  0.4662
13096TIP3   OH260702   3.368   3.666   6.043  0.0044  0.6494  0.2197
13096TIP3    H160703   3.335   3.746   6.003  0.2578  1.4293  1.4947
13096TIP3    H260704   3.340   3.672   6.134 -0.7975 -1.1839  0.1369
13097TIP3   OH260705   0.634   5.858  14.198 -0.4232  0.1144 -0.0703
13097TIP3    H160706   0.546   5.896  14.208  0.5882  2.4818  0.4513
13097TIP3    H260707   0.627   5.772  14.239 -2.0620  0.9324  1.5167
13098TIP3   OH260708   4.328   6.129   3.972 -0.9680  0.4056 -0.5912
13098TIP3    H160709   4.322   6.160   4.062 -1.7331 -0.4942 -0.3134
13098TIP3    H260710   4.249   6.163   3.930 -0.7938  0.5210 -0.8274
13099TIP3   OH260711   2.852   6.159   0.539  0.3875 -0.3603  0.1216
13099TIP3    H160712   2.914   6.122   0.476  1.0117  3.1134 -1.5390
13099TIP3    H260713   2.767   6.154   0.495  0.6818  1.2343 -0.6973
13100TIP3   OH260714   4.844   5.886   4.504  0.3821 -0.3437 -0.4266
13100TIP3    H160715   4.758   5.871   4.544  0.4904  0.7682  0.2829
13100TIP3    H260716   4.829   5.877   4.410 -0.6944  0.5944 -0.3626
13101TIP3   OH260717   3.271   6.565  16.713  0.5184  0.6596 -0.4615
13101TIP3    H160718   3.343   6.518  16.755  1.3925  2.0731 -0.3092
13101TIP3    H260719   3.202   6.568  16.779  2.1519  3.5549  1.3390
13102TIP3   OH260720   0.982   0.156  12.782  0.5918 -0.3951 -0.3705
13102TIP3    H160721   1.039   0.091  12.822  2.2298  0.6362 -0.8970
13102TIP3    H260722   0.971   0.127  12.692 -0.5632 -1.1060 -0.0195
13103TIP3   OH260723   0.586   2.723   6.547 -0.3133  0.5365  0.3487
13103TIP3    H160724   0.574   2.684   6.461  1.7095  1.9210 -0.6523
13103TIP3    H260725   0.639   2.660   6.595 -0.7286  0.1402  0.2956
13104TIP3   OH260726   2.456   0.029   1.494  0.2019 -0.6019  0.0323
13104TIP3    H160727   2.456  -0.035   1.565 -1.9612  0.0943  0.7426
13104TIP3    H260728   2.378   0.008   1.443 -0.1375  0.9928 -0.1444
13105TIP3   OH260729   3.392   2.761  15.353  0.0632  0.4513 -0.5971
13105TIP3    H160730   3.482   2.737  15.332 -0.1525  1.5199 -3.0891
13105TIP3    H260731   3.354   2.681  15.388  0.8439 -1.3997 -3.5864
13106TIP3   OH260732   1.952   1.613  17.169  0.0719  0.3976 -0.3855
13106TIP3    H160733   1.946   1.637  17.261  0.7792  1.7430 -0.6592
13106TIP3    H260734   2.033   1.562  17.162  0.3650  0.8434 -0.3468
13107TIP3   OH260735   0.257   3.620  16.192 -0.0052 -0.4630 -0.3947
13107TIP3    H160736   0.218   3.575  16.117 -1.5537 -0.5867  0.4224
13107TIP3    H260737   0.269   3.551  16.257  1.7026 -0.4328 -0.6429
13108TIP3   OH260738   1.289   5.166  16.705 -0.7471 -0.7229 -0.0386
13108TIP3    H160739   1.236   5.191  16.630 -1.9000 -2.9155 -0.0438
13108TIP3    H260740   1.263   5.075  16.724 -0.2867 -0.3748  2.8056
13109TIP3   OH260741   5.643   1.459  11.912 -0.0341 -0.1730  0.0458
13109TIP3    H160742   5.730   1.496  11.901  0.6550 -1.9306 -0.8793
13109TIP3    H260743   5.642   1.382  11.855 -2.5171  0.2987 -0.6866
13110TIP3   OH260744   5.259   2.349  14.468 -0.2032 -0.1078 -0.2896
13110TIP3    H160745   5.347   2.387  14.465 -0.6394  1.7288  3.9724
13110TIP3    H260746   5.274   2.254  14.463  2.0817  0.1343  0.6596
13111TIP3   OH260747   4.698   6.136  17.154  0.6271 -0.5618  0.2872
13111TIP3    H160748   4.693   6.207  17.218 -0.3742  0.1362 -0.5334
13111TIP3    H260749   4.792   6.120  17.143  0.9450  1.5011 -0.4132
13112TIP3   OH260750   4.758   5.015  10.865 -0.3732 -0.0170 -0.6104
13112TIP3    H160751   4.731   4.924  10.862 -1.3078  0.1655  0.8322
13112TIP3    H260752   4.676   5.065  10.868  0.0853  0.7385  0.5452
13113TIP3   OH260753   3.991   1.261  14.117 -0.3124 -0.0286  0.6714
13113TIP3    H160754   4.025   1.175  14.143  1.0331 -0.5591 -2.4247
13113TIP3    H260755   3.905   1.242  14.080  0.6341 -0.3941 -1.5002
13114TIP3   OH260756   3.234   5.130  14.422  0.4175 -0.2695 -0.9311
13114TIP3    H160757   3.317   5.094  14.454  0.5187  1.4657  1.0430
13114TIP3    H260758   3.176   5.055  14.415  1.4167 -1.2057  0.2508
13115TIP3   OH260759   2.620   3.245   1.787  0.6860  0.4372 -0.5055
13115TIP3    H160760   2.586   3.182   1.725  1.7221 -1.4351  0.7238
13115TIP3    H260761   2.567   3.231   1.866  0.3747  1.7274 -0.4638
13116TIP3   OH260762   0.273   0.741  10.598  0.2255  0.5241 -0.2375
13116TIP3    H160763   0.231   0.766  10.681  2.3569  0.9693  0.7708
13116TIP3    H260764   0.228   0.660  10.573  0.8146 -0.7626  2.4317
13117TIP3   OH260765   1.264   2.196  11.845 -0.4855  0.3682  0.3555
13117TIP3    H160766   1.184   2.164  11.805 -0.8841 -0.8684  2.0189
13117TIP3    H260767   1.334   2.143  11.806 -0.8402 -0.6696  1.1063
13118TIP3   OH260768   0.108   4.771  15.156  0.3860 -0.1068 -0.6119
13118TIP3    H160769   0.184   4.739  15.205 -1.0875 -0.1494  1.7556
13118TIP3    H260770   0.114   4.866  15.162  0.8580 -0.0625 -1.4856
13119TIP3   OH260771   6.123   0.888   2.638 -0.4661  0.1260 -0.1519
13119TIP3    H160772   6.196   0.947   2.656 -0.5384  0.0854  0.3016
13119TIP3    H260773   6.164   0.806   2.609 -0.3300  0.1100  0.0827
13120TIP3   OH260774   1.661   1.000   5.787 -0.2673  0.0175 -0.6811
13120TIP3    H160775   1.612   1.079   5.762  0.1137 -0.1154 -1.8865
13120TIP3    H260776   1.674   0.953   5.705  1.4897 -0.1669 -0.3233
13121TIP3   OH260777   1.301   0.499   0.752  0.2889  0.1196 -0.0801
13121TIP3    H160778   1.305   0.474   0.844  1.4476 -0.2356 -0.2194
13121TIP3    H260779   1.295   0.416   0.705  0.5963  0.2603 -0.3687
13122TIP3   OH260780   6.685   3.078   3.951 -0.2617  0.0638 -0.0020
13122TIP3    H160781   6.663   3.020   3.877 -2.0625 -1.2770  1.4801
13122TIP3    H260782   6.754   3.032   3.997 -0.7089 -0.2362  0.3822
13123TIP3   OH260783   5.976   0.631   0.537  0.2496 -0.0844  0.1397
13123TIP3    H160784   6.042   0.700   0.538  1.2694 -0.9837 -1.3871
13123TIP3    H260785   5.906   0.665   0.482  1.4139 -0.7781 -1.8715
13124TIP3   OH260786   5.426   1.538   2.495  0.3427  0.0640  0.3115
13124TIP3    H160787   5.342   1.528   2.540  0.2228 -0.3844 -0.0072
13124TIP3    H260788   5.410   1.505   2.407  1.4637 -2.3424  0.9253
13125TIP3   OH260789   1.829   4.408  13.473 -0.0007 -0.0457  0.3851
13125TIP3    H160790   1.803   4.494  13.504  0.1118  0.4254 -0.7791
13125TIP3    H260791   1.749   4.369  13.439  0.1746  0.0845 -0.1850
13126TIP3   OH260792   5.191   3.462  16.227 -0.0431 -0.0617  0.1633
13126TIP3    H160793   5.139   3.440  16.150  2.8669 -2.5717 -1.2841
13126TIP3    H260794   5.275   3.491  16.192  0.7503  0.6539  2.4256
13127TIP3   OH260795   3.244   5.565  15.969  0.1655 -0.1870  0.3863
13127TIP3    H160796   3.316   5.604  15.918  1.5451  0.0664  2.4046
13127TIP3    H260797   3.280   5.482  16.000 -0.9402 -0.7098  0.2790
13128TIP3   OH260798   5.218   1.590  12.962  0.0908 -0.4697  0.2381
13128TIP3    H160799   5.238   1.675  13.001 -2.5124 -0.6099  2.1838
13128TIP3    H260800   5.253   1.527  13.025  1.3561 -0.8834 -0.8358
13129TIP3   OH260801   2.469   2.559   0.214 -0.0992  0.0177 -0.5153
13129TIP3    H160802   2.480   2.648   0.179  2.3650  0.7326  1.6786
13129TIP3    H260803   2.421   2.571   0.296  2.9378 -0.0829  1.4390
13130TIP3   OH260804   4.584   0.166   4.771  0.2984  0.4097 -0.3772
13130TIP3    H160805   4.646   0.158   4.699  0.8204  0.4415  0.0650
13130TIP3    H260806   4.636   0.152   4.850 -0.5672 -1.2671 -0.0632
13131TIP3   OH260807   2.367   1.473   0.479 -0.0706 -0.3720  0.6499
13131TIP3    H160808   2.274   1.470   0.498 -0.4638  0.3998 -0.9740
13131TIP3    H260809   2.377   1.423   0.398  0.3889  2.0522 -0.8871
13132TIP3   OH260810   0.881   4.038   1.276  0.1771 -0.5851  0.4713
13132TIP3    H160811   0.893   4.047   1.371  0.8434 -0.2999  0.3660
13132TIP3    H260812   0.853   4.125   1.247  1.2835 -0.2915  0.2263
13133TIP3   OH260813   3.653   3.613   0.057  0.3457 -0.3799 -0.4543
13133TIP3    H160814   3.669   3.589   0.148  0.7740  1.6917  0.0737
13133TIP3    H260815   3.624   3.704   0.061 -2.2653 -1.0144 -2.1920
13134TIP3   OH260816   5.590   1.552  16.576 -0.5620  0.0453  0.6537
13134TIP3    H160817   5.533   1.499  16.631  0.0670 -1.6336 -0.2590
13134TIP3    H260818   5.672   1.560  16.626 -0.6694  0.2204  0.8056
13135TIP3   OH260819   6.420   2.224   2.191  0.2348 -0.3100  0.6574
13135TIP3    H160820   6.516   2.224   2.182  0.0644  0.5162 -1.6251
13135TIP3    H260821   6.402   2.144   2.241  2.0066 -1.4486 -0.4008
13136TIP3   OH260822   1.861   4.821   3.859 -0.6320 -0.0688  0.2483
13136TIP3    H160823   1.768   4.808   3.877 -0.6819 -0.6611 -0.4042
13136TIP3    H260824   1.865   4.841   3.766  0.0451 -1.8227 -0.1338
13137TIP3   OH260825   5.897   0.245   1.897  0.1257 -0.1295 -0.5715
13137TIP3    H160826   5.943   0.163   1.913  0.2677 -0.2771 -1.6798
13137TIP3    H260827   5.948   0.311   1.945  0.1593 -0.6414  0.1015
13138TIP3   OH260828   0.938   1.718  15.480 -0.4196  0.4181 -0.0892
13138TIP3    H160829   0.883   1.644  15.502 -1.8628  0.6532 -2.5492
13138TIP3    H260830   1.021   1.680  15.453 -0.6815 -0.2054 -0.0173
13139TIP3   OH260831   2.161   3.943  14.306  0.1633  0.4515 -0.2024
13139TIP3    H160832   2.138   3.930  14.213 -0.7813  2.2982 -0.2790
13139TIP3    H260833   2.248   3.905  14.315 -0.1514 -0.6919 -1.5909
13140TIP3   OH260834   5.340   5.905   3.502 -0.0007  0.3117 -0.1595
13140TIP3    H160835   5.419   5.880   3.456  0.1327  3.1372 -1.6975
13140TIP3    H260836   5.342   5.855   3.584  1.7621 -1.9275 -1.4917
13141TIP3   OH260837   0.004   3.581   4.780  0.1079  0.2352  0.5457
13141TIP3    H160838   0.096   3.597   4.799  0.0870  0.6764  0.2800
13141TIP3    H260839  -0.025   3.659   4.733 -0.0957 -0.4318 -0.4483
13142TIP3   OH260840   3.012   5.462  15.880  0.3786 -0.2329  0.2054
13142TIP3    H160841   3.082   5.522  15.906  0.0748  0.1752  0.0961
13142TIP3    H260842   3.057   5.383  15.850  0.7857  0.0131  0.1722
13143TIP3   OH260843   4.891   2.642  15.207 -0.0686  0.3657 -0.8607
13143TIP3    H160844   4.884   2.552  15.175 -0.3540  0.9352 -2.4789
13143TIP3    H260845   4.810   2.657  15.255  0.8721 -0.8851  1.2652
13144TIP3   OH260846   0.273   3.439   3.281 -0.0190  0.5779 -0.0627
13144TIP3    H160847   0.287   3.516   3.337 -0.7403  1.6322 -1.2780
13144TIP3    H260848   0.287   3.364   3.339 -1.5189  1.6215  1.7618
13145TIP3   OH260849   1.964   3.190  13.403 -0.4098 -0.1010 -0.6711
13145TIP3    H160850   1.994   3.240  13.327 -0.4851  1.2708  0.1786
13145TIP3    H260851   2.041   3.141  13.432  0.4268  1.6030  0.0888
13146TIP3   OH260852   5.594   5.797  17.398 -0.1562 -0.3936 -0.3185
13146TIP3    H160853   5.580   5.891  17.407 -0.2556 -0.3796 -0.6132
13146TIP3    H260854   5.574   5.762  17.484  1.2138  0.0094  0.1892
13147TIP3   OH260855   6.652   2.180  16.845 -0.0719 -0.5721  0.2785
13147TIP3    H160856   6.701   2.162  16.764 -1.2804 -0.2327 -0.5592
13147TIP3    H260857   6.588   2.247  16.819  1.0912  1.3806  2.1088
13148TIP3   OH260858   0.562   4.725   0.117  0.4240  0.2416  0.4012
13148TIP3    H160859   0.625   4.788   0.080  0.1995  1.2478  1.6815
13148TIP3    H260860   0.482   4.740   0.068  1.0866 -0.9495 -1.1478
13149TIP3   OH260861   3.138   3.114  15.739  0.2228 -0.6959  0.3749
13149TIP3    H160862   3.069   3.179  15.741 -0.3845 -1.3414  0.9010
13149TIP3    H260863   3.102   3.042  15.687  1.6018  0.1231 -1.8893
13150TIP3   OH260864   4.086   4.113  12.969 -0.1072  0.2067  0.0597
13150TIP3    H160865   4.072   4.040  13.030 -0.1667  0.6936  0.6303
13150TIP3    H260866   4.000   4.152  12.958 -0.2306 -0.2765 -0.8678
13151TIP3   OH260867   4.990   6.428   4.292  0.7186  0.2951 -0.5102
13151TIP3    H160868   4.938   6.426   4.372 -0.9462 -0.2480 -1.5418
13151TIP3    H260869   4.941   6.486   4.233  2.6916  1.8819 -0.6624
13152TIP3   OH260870   4.675   6.439  11.336  0.3098 -0.5446  0.5546
13152TIP3    H160871   4.721   6.454  11.253 -0.3920 -1.5172 -0.0347
13152TIP3    H260872   4.624   6.519  11.349  0.9204 -0.1231  0.3800
13153TIP3   OH260873   5.240   5.490   5.349  0.3093 -0.4278  0.2436
13153TIP3    H160874   5.170   5.459   5.406  1.8811 -0.8847  2.0572
13153TIP3    H260875   5.281   5.410   5.316  1.0079 -0.2123  0.5674
13154TIP3   OH260876   4.348   4.260  12.877 -0.2415 -0.5754 -0.1125
13154TIP3    H160877   4.342   4.216  12.793 -1.5284 -1.5662  0.4465
13154TIP3    H260878   4.383   4.194  12.937  2.8536  0.7847 -0.2574
13155TIP3   OH260879   5.670   4.219   2.777  0.1242  0.0172 -0.2202
13155TIP3    H160880   5.684   4.271   2.857  0.6465  0.8944 -0.8706
13155TIP3    H260881   5.655   4.284   2.709  3.1568 -0.5104 -1.5579
13156TIP3   OH260882   2.643   5.957  15.783 -0.9050 -0.3933  0.2525
13156TIP3    H160883   2.658   5.887  15.721 -0.2631 -0.5613  0.5858
13156TIP3    H260884   2.680   6.035  15.742  0.0908 -0.6283  0.6826
13157TIP3   OH260885   3.445   5.584  13.646  0.2241 -0.3933  0.8811
13157TIP3    H160886   3.380   5.521  13.678 -1.2779  0.9316  0.5725
13157TIP3    H260887   3.470   5.633  13.724 -0.7870  0.5014  0.6691
13158TIP3   OH260888   4.108   5.794  11.392  0.2643 -0.1822 -0.6225
13158TIP3    H160889   4.168   5.806  11.319  0.0373  2.5783 -0.4749
13158TIP3    H260890   4.145   5.847  11.462 -0.7155 -0.9452  0.5231
13159TIP3   OH260891   4.750   2.045   2.845 -0.3980 -0.7299  0.0511
13159TIP3    H160892   4.840   2.019   2.864  0.1856  0.7263 -0.6036
13159TIP3    H260893   4.751   2.140   2.848 -1.5497 -0.6314 -1.5258
13160TIP3   OH260894   6.533   1.204   5.498  0.6383 -0.6087 -0.1351
13160TIP3    H160895   6.459   1.264   5.509  2.2090  1.4298 -0.0860
13160TIP3    H260896   6.596   1.230   5.565  1.8465 -1.5640 -0.8474
13161TIP3   OH260897   5.909   6.096   3.771 -0.4339 -0.0419 -0.4743
13161TIP3    H160898   5.921   6.119   3.679 -2.1368 -2.0551 -1.2792
13161TIP3    H260899   5.863   6.171   3.809  2.1587  1.7818 -0.6075
13162TIP3   OH260900   3.293   4.549  15.671  0.0997  0.0452 -0.2011
13162TIP3    H160901   3.382   4.583  15.672 -0.3270  1.2969 -1.2919
13162TIP3    H260902   3.265   4.557  15.579 -0.7448 -1.3957 -0.1110
13163TIP3   OH260903   3.651   3.138   5.431 -0.6882 -0.1622 -0.3525
13163TIP3    H160904   3.738   3.171   5.457 -1.3800  0.5931  1.1262
13163TIP3    H260905   3.595   3.157   5.506 -2.2409 -0.2815 -1.4428
13164TIP3   OH260906   5.342   0.665   0.984  0.0475  0.8769  0.3324
13164TIP3    H160907   5.338   0.718   0.905  0.4875 -0.1639 -0.4074
13164TIP3    H260908   5.362   0.577   0.953  0.2120  0.4470  1.6042
13165TIP3   OH260909   0.258   5.470   0.254  0.3587 -0.3692  0.6944
13165TIP3    H160910   0.354   5.469   0.256  0.4934  1.1478 -1.3737
13165TIP3    H260911   0.235   5.420   0.176 -0.4438  0.2599  0.5067
13166TIP3   OH260912   4.530   1.447   2.766 -0.8008  0.2174  0.4073
13166TIP3    H160913   4.509   1.396   2.688 -0.5977 -0.3206  0.7044
13166TIP3    H260914   4.539   1.537   2.733  0.1755 -0.1382 -0.3424
13167TIP3   OH260915   3.107   5.802   1.575 -0.4860  0.7084  0.4748
13167TIP3    H160916   3.018   5.767   1.573  0.5078 -2.2367 -2.6236
13167TIP3    H260917   3.153   5.745   1.637 -0.6170  1.9662  1.7618
13168TIP3   OH260918   5.242   2.018   0.764 -0.0561 -0.0653  0.2240
13168TIP3    H160919   5.276   2.031   0.853  0.8231 -2.0881  0.2590
13168TIP3    H260920   5.162   1.967   0.776  0.7675 -1.5078 -0.1524
13169TIP3   OH260921   1.435   0.736  15.379  0.6354  0.3417  0.6504
13169TIP3    H160922   1.485   0.763  15.302  1.7168  0.6041  1.4233
13169TIP3    H260923   1.365   0.681  15.344  0.3273  1.5070 -0.6375
13170TIP3   OH260924   1.462   4.769   1.743  0.0379  1.2350 -0.0004
13170TIP3    H160925   1.387   4.807   1.697 -1.2318  0.4396  1.3346
13170TIP3    H260926   1.508   4.845   1.780 -0.6740  1.6717  0.0084
13171TIP3   OH260927   6.047   2.468   4.486  0.2457 -0.2116  0.7696
13171TIP3    H160928   6.082   2.535   4.427 -0.7861 -0.1255  0.2365
13171TIP3    H260929   6.125   2.429   4.526  0.8927  0.7780  0.5146
13172TIP3   OH260930   4.405   2.490   3.978  0.4079  0.3084  0.4245
13172TIP3    H160931   4.404   2.580   3.945  1.1871  0.5924  1.1422
13172TIP3    H260932   4.316   2.459   3.966  0.3402  0.8669 -0.6693
13173TIP3   OH260933   4.927   5.127  11.477 -0.0175  0.0642 -0.4123
13173TIP3    H160934   4.896   5.052  11.427 -2.3449  0.2466  0.6154
13173TIP3    H260935   4.954   5.191  11.411 -0.4694 -0.6947 -1.3548
13174TIP3   OH260936   3.981   6.283   4.369  0.0302  0.2013  0.3085
13174TIP3    H160937   3.962   6.286   4.276  0.8119  1.5201  0.1679
13174TIP3    H260938   3.898   6.259   4.411 -0.2216 -0.8260 -0.7376
13175TIP3   OH260939   4.404   6.307  16.894  0.4058 -0.0387  0.0168
13175TIP3    H160940   4.442   6.389  16.863  0.9838 -0.5188 -0.5528
13175TIP3    H260941   4.315   6.306  16.857  1.2475 -0.8536 -2.1520
13176TIP3   OH260942   0.862   5.902   2.736 -0.3827 -0.4040 -0.0393
13176TIP3    H160943   0.793   5.964   2.715 -0.4475 -0.5710 -0.3235
13176TIP3    H260944   0.833   5.819   2.697 -0.4504 -0.6930  0.6123
13177TIP3   OH260945   0.417   6.343  12.389  0.1532 -0.6053 -0.2605
13177TIP3    H160946   0.440   6.312  12.302 -0.0291 -0.6480 -0.2945
13177TIP3    H260947   0.329   6.381  12.379  0.6220  0.4905 -0.3520
13178TIP3   OH260948   4.226   0.167  13.463  0.1901  0.2406  0.1799
13178TIP3    H160949   4.310   0.187  13.505  0.0618  1.4725 -0.1187
13178TIP3    H260950   4.233   0.074  13.440  1.1430  0.1109  0.8870
13179TIP3   OH260951   3.554   3.687   1.386  0.2323 -0.1139 -0.0186
13179TIP3    H160952   3.586   3.641   1.463  0.0776  0.7366  0.5626
13179TIP3    H260953   3.531   3.617   1.324  2.9049 -0.7905 -0.3747
13180TIP3   OH260954   3.335   2.656   3.997 -0.1867  0.0381  0.4154
13180TIP3    H160955   3.311   2.747   4.018 -2.0830 -0.2244 -0.4450
13180TIP3    H260956   3.363   2.659   3.906  0.9051 -0.0702  0.7331
13181TIP3   OH260957   3.068   2.123  11.317 -0.1587 -0.0893  0.0126
13181TIP3    H160958   3.103   2.196  11.266  0.7410 -0.8617 -0.5230
13181TIP3    H260959   2.990   2.158  11.360  0.3575  1.2261 -0.0848
13182TIP3   OH260960   6.219   6.595   0.159  0.1855  0.2672 -0.3409
13182TIP3    H160961   6.289   6.537   0.187 -0.5457 -0.7826 -0.6410
13182TIP3    H260962   6.173   6.547   0.091 -1.3994  0.5333  0.4875
13183TIP3   OH260963   4.674   3.480  12.633  0.0101  0.6021  0.6281
13183TIP3    H160964   4.582   3.452  12.631 -0.6410  2.5338  1.0408
13183TIP3    H260965   4.669   3.575  12.646  2.0620  0.8420 -0.0511
13184TIP3   OH260966   2.176   6.391   1.536  0.7043  0.6471  0.3279
13184TIP3    H160967   2.172   6.476   1.492 -0.5969  1.4748  1.9153
13184TIP3    H260968   2.204   6.412   1.625  1.5566 -0.7587  0.4241
13185TIP3   OH260969   6.303   0.501   1.468 -0.1359 -0.3882  0.0164
13185TIP3    H160970   6.244   0.476   1.397  1.0994 -1.9829 -0.5198
13185TIP3    H260971   6.253   0.486   1.548 -0.9829 -0.1631 -0.4601
13186TIP3   OH260972   4.491   2.296   0.255 -0.0340 -0.2319  0.2207
13186TIP3    H160973   4.446   2.254   0.328  0.1156 -0.0871  0.3963
13186TIP3    H260974   4.431   2.286   0.181 -0.9802  1.1666  0.7581
13187TIP3   OH260975   0.202   5.265   1.304  0.0516 -0.2016 -0.1352
13187TIP3    H160976   0.125   5.253   1.359  0.3895  1.4446  0.7594
13187TIP3    H260977   0.258   5.189   1.325 -0.7186 -0.6796  0.2431
13188TIP3   OH260978   0.592   3.711  12.560 -0.0991 -0.0796  0.0771
13188TIP3    H160979   0.562   3.731  12.472  2.0232 -2.5498 -1.3555
13188TIP3    H260980   0.651   3.782  12.583 -1.3750  1.0623 -0.0306
13189TIP3   OH260981   3.983   4.655  11.638 -0.1825 -0.6249  0.2168
13189TIP3    H160982   3.961   4.715  11.566  2.0448  0.5358  0.4115
13189TIP3    H260983   4.019   4.578  11.594  0.4692 -0.2284  0.0352
13190TIP3   OH260984   0.179   5.874   6.160 -0.0226 -0.1524 -0.5741
13190TIP3    H160985   0.263   5.891   6.116 -0.6945 -0.1970 -1.9525
13190TIP3    H260986   0.179   5.780   6.176 -0.0798 -0.2658 -1.1953
13191TIP3   OH260987   3.531   0.046   5.014  0.0678  0.1034  0.1629
13191TIP3    H160988   3.576  -0.016   4.957 -0.5389  1.4786 -1.9102
13191TIP3    H260989   3.450   0.066   4.968 -0.4909  1.2146  1.5664
13192TIP3   OH260990   3.223   1.008  12.018  0.1663  0.4702 -0.1985
13192TIP3    H160991   3.166   1.063  12.072  1.9994  2.6862 -0.3998
13192TIP3    H260992   3.165   0.975  11.949 -1.4340  0.4472  1.1057
13193TIP3   OH260993   1.469   5.071  16.955 -0.0067  0.0811 -0.0254
13193TIP3    H160994   1.466   5.028  16.869 -0.4821  2.1371 -1.1093
13193TIP3    H260995   1.382   5.057  16.991 -1.0645  2.2368 -1.5338
13194TIP3   OH260996   4.457   5.750   3.197  0.0158  0.0991 -0.5077
13194TIP3    H160997   4.369   5.758   3.159  1.0839 -2.3897 -4.1105
13194TIP3    H260998   4.506   5.823   3.159 -0.1334  0.7465  0.4999
13195TIP3   OH260999   1.841   6.659  14.493  0.1600 -0.4731 -0.1499
13195TIP3    H161000   1.768   6.606  14.526 -0.3491 -1.4130 -2.5718
13195TIP3    H261001   1.915   6.599  14.490  0.9308  0.3042  1.6453
13196TIP3   OH261002   4.487   3.030  13.389 -0.0919 -0.3024  0.2597
13196TIP3    H161003   4.430   2.953  13.385 -1.8257  0.8093  1.8761
13196TIP3    H261004   4.427   3.104  13.391  1.5320  1.1494 -1.3361
13197TIP3   OH261005   5.129   5.223   1.511  0.3580 -0.5399 -0.9729
13197TIP3    H161006   5.156   5.313   1.531 -0.1732 -0.1832 -1.8036
13197TIP3    H261007   5.126   5.220   1.415 -3.7619 -0.1575 -1.0262
13198TIP3   OH261008   6.510   3.788   1.439  0.0200 -0.0043  0.2164
13198TIP3    H161009   6.460   3.732   1.498 -1.7878  0.0728 -1.1519
13198TIP3    H261010   6.578   3.730   1.404  0.9975 -0.0949  2.1604
13199TIP3   OH261011   6.203   5.334  14.929  0.3757  0.4599  0.0926
13199TIP3    H161012   6.287   5.370  14.902  0.1577  0.8975 -0.0095
13199TIP3    H261013   6.225   5.274  15.001  0.8025  0.3336 -0.1372
13200TIP3   OH261014   5.098   0.039  13.982  0.0526 -0.1799 -0.1277
13200TIP3    H161015   5.096   0.037  14.077 -0.4417 -0.7527 -0.1469
13200TIP3    H261016   5.011   0.070  13.956  0.0820 -0.3137 -0.3966
13201TIP3   OH261017   2.457   0.360   6.626 -0.1429 -0.6504 -0.6947
13201TIP3    H161018   2.397   0.285   6.630 -0.9940  0.0416 -0.1761
13201TIP3    H261019   2.490   0.369   6.715 -0.2989 -0.2024 -0.6827
13202TIP3   OH261020   0.868   1.947   2.304  0.2404 -0.6391 -0.3985
13202TIP3    H161021   0.954   1.972   2.271  0.2869 -0.2538  0.0087
13202TIP3    H261022   0.870   1.969   2.398 -0.2043 -0.8785 -0.3266
13203TIP3   OH261023   2.679   0.422   1.677 -0.2578 -0.3438  0.0836
13203TIP3    H161024   2.747   0.450   1.739 -0.2242 -2.3198  1.0102
13203TIP3    H261025   2.722   0.357   1.621 -0.3640  1.2059 -1.9130
13204TIP3   OH261026   5.300   4.983   4.318  0.1502 -0.0313 -0.0780
13204TIP3    H161027   5.279   4.892   4.297 -1.1245  0.1182  0.4847
13204TIP3    H261028   5.279   5.031   4.238 -3.7637  0.3986  0.9860
13205TIP3   OH261029   0.452   5.802   6.060 -0.7070 -0.1905  0.4207
13205TIP3    H161030   0.466   5.812   5.966 -0.8740  1.5594  0.5580
13205TIP3    H261031   0.495   5.877   6.100 -0.0734 -1.2427  1.8196
13206TIP3   OH261032   1.746   6.429  11.369  0.2059 -0.7703 -0.2142
13206TIP3    H161033   1.670   6.390  11.326 -1.0275  3.6705 -2.6715
13206TIP3    H261034   1.818   6.416  11.307  0.0738 -0.2098 -0.4902
13207TIP3   OH261035   2.697   3.033   0.378  0.0946 -0.0167  0.0216
13207TIP3    H161036   2.633   2.962   0.372  1.2469 -0.9134 -3.3604
13207TIP3    H261037   2.650   3.102   0.426 -2.7131 -1.3427 -0.5836
13208TIP3   OH261038   5.558   0.823  13.186  0.3424  0.1298  0.2761
13208TIP3    H161039   5.584   0.900  13.136  0.9096 -0.7338 -0.8042
13208TIP3    H261040   5.561   0.751  13.123 -1.1542 -0.6185  1.0154
13209TIP3   OH261041   4.220   1.064   2.916 -0.1081  0.2673 -0.0137
13209TIP3    H161042   4.273   1.023   2.984  0.2909  0.5484 -0.1466
13209TIP3    H261043   4.258   1.031   2.834 -2.2952 -2.2560 -0.1415
13210TIP3   OH261044   3.008   3.551   1.896 -0.3769 -0.5159 -0.5867
13210TIP3    H161045   3.074   3.550   1.965  0.1844 -0.1815 -1.1114
13210TIP3    H261046   2.937   3.497   1.930 -0.3976  0.1920  0.5350
13211TIP3   OH261047   6.413   6.245   4.787 -0.2235 -0.8879  0.3340
13211TIP3    H161048   6.395   6.308   4.858 -0.3079  0.1855 -0.6057
13211TIP3    H261049   6.485   6.285   4.738  0.1604 -1.8569  0.0874
13212TIP3   OH261050   1.040   5.291  13.241  0.3561 -0.1756  0.0684
13212TIP3    H161051   1.018   5.285  13.334 -1.1549 -0.1051 -0.2618
13212TIP3    H261052   1.120   5.239  13.232 -0.4566 -1.6715  1.1057
13213TIP3   OH261053   0.954   4.187   4.008 -0.0278  0.3480  0.4428
13213TIP3    H161054   0.872   4.234   4.026  0.4752  1.5498 -0.2290
13213TIP3    H261055   0.953   4.113   4.068 -0.7060  1.4134  1.8141
13214TIP3   OH261056   2.024   1.835  13.206  0.0888 -0.2641 -0.2464
13214TIP3    H161057   2.051   1.763  13.148 -0.5017  0.2820 -1.2273
13214TIP3    H261058   2.092   1.901  13.195 -0.6520  0.3441 -1.2799
13215TIP3   OH261059   0.235   1.421  12.266 -0.4789  0.2170 -0.1800
13215TIP3    H161060   0.297   1.419  12.193  1.5552 -0.4972  1.4366
13215TIP3    H261061   0.247   1.507  12.306  1.1286 -0.6224  1.3464
13216TIP3   OH261062   6.026   0.629  12.429  0.1983  0.3164 -0.1627
13216TIP3    H161063   5.986   0.564  12.372  1.3258  0.6713 -1.3945
13216TIP3    H261064   6.118   0.603  12.434 -0.2015 -0.9378  3.2277
13217TIP3   OH261065   6.233   4.480   5.988 -0.1447 -0.1982  0.8668
13217TIP3    H161066   6.246   4.574   6.000 -0.1369 -0.1766  0.6899
13217TIP3    H261067   6.283   4.459   5.909  0.1927 -0.4257  1.1355
13218TIP3   OH261068   1.459   3.442   1.145  0.1800  0.3385 -0.6768
13218TIP3    H161069   1.485   3.446   1.053  0.3024 -0.2455 -0.6725
13218TIP3    H261070   1.370   3.409   1.143  0.6601 -1.0238 -0.5286
13219TIP3   OH261071   2.553   5.932  13.610 -0.1220  0.2530 -0.4116
13219TIP3    H161072   2.538   5.842  13.580 -1.2042  1.1763 -2.9007
13219TIP3    H261073   2.647   5.946  13.599 -0.3715  0.3235 -2.9456
13220TIP3   OH261074   3.339   1.767   1.952  0.2728  0.2581 -0.1571
13220TIP3    H161075   3.328   1.724   2.037  0.3347 -1.6764 -1.0647
13220TIP3    H261076   3.261   1.822   1.942 -0.0510  0.0057  0.8579
13221TIP3   OH261077   6.138   1.236   4.600 -0.2689  0.0056  0.1164
13221TIP3    H161078   6.158   1.295   4.672  0.6565  1.1064 -1.0001
13221TIP3    H261079   6.204   1.167   4.606  0.2021  0.4381 -0.0453
13222TIP3   OH261080   6.566   3.275  16.278  0.0468 -0.8331 -0.2246
13222TIP3    H161081   6.648   3.291  16.325  0.0184 -0.4188 -0.3100
13222TIP3    H261082   6.592   3.273  16.186  0.1728 -2.0870 -0.1799
13223TIP3   OH261083   3.890   6.362   2.245  0.6412  0.8768  0.1066
13223TIP3    H161084   3.883   6.309   2.324 -1.6218 -0.4288 -0.8926
13223TIP3    H261085   3.881   6.452   2.276  0.7483  0.4554  1.4170
13224TIP3   OH261086   4.523   3.103  15.465  0.4320  0.2958 -0.5033
13224TIP3    H161087   4.476   3.155  15.400  0.9586  1.7266  0.2151
13224TIP3    H261088   4.455   3.072  15.525  0.0030 -0.6474 -1.4395
13225TIP3   OH261089   4.060   2.022   6.806  0.0464  0.4076 -0.6420
13225TIP3    H161090   3.967   2.036   6.824 -0.4472 -1.2534 -1.6429
13225TIP3    H261091   4.077   2.073   6.726 -0.5803 -0.9317 -1.6726
13226TIP3   OH261092   2.636   2.909  11.525  0.5721 -0.0177 -0.4250
13226TIP3    H161093   2.573   2.880  11.459  0.5493 -0.1741 -0.3327
13226TIP3    H261094   2.712   2.938  11.474  0.5865 -0.2161 -0.5179
13227TIP3   OH261095   6.087   3.294   2.846  0.2904  0.0285 -0.5307
13227TIP3    H161096   6.106   3.213   2.894 -0.5877  0.5752  0.7772
13227TIP3    H261097   6.107   3.272   2.755 -0.1311 -1.7332 -0.2455
13228TIP3   OH261098   1.486   0.955   1.061 -0.3598 -0.7057  0.0325
13228TIP3    H161099   1.563   0.901   1.078  0.0458 -0.6423 -1.4531
13228TIP3    H261100   1.452   0.924   0.977  0.7620  2.2168 -1.6619
13229TIP3   OH261101   6.186   5.832   3.493 -0.4238 -0.1319  0.0035
13229TIP3    H161102   6.105   5.879   3.473 -1.4893 -3.0199 -3.5320
13229TIP3    H261103   6.158   5.742   3.510  2.0011 -1.4914 -2.3877
13230TIP3   OH261104   3.099   4.176   3.328  0.0534 -0.4247  0.2633
13230TIP3    H161105   3.041   4.159   3.401  0.6357 -0.5307  0.7085
13230TIP3    H261106   3.176   4.218   3.367 -0.4243  1.2860 -0.5206
13231TIP3   OH261107   4.119   3.338  16.543  0.0618 -0.1066 -0.0476
13231TIP3    H161108   4.084   3.423  16.570  1.2144  0.2388  0.4288
13231TIP3    H261109   4.071   3.317  16.463 -0.3692  0.9121 -0.0810
13232TIP3   OH261110   2.379   3.334   0.247  0.2199  0.1327 -0.5406
13232TIP3    H161111   2.307   3.281   0.214 -0.1179 -0.7749  1.5223
13232TIP3    H261112   2.337   3.402   0.300  0.8348 -0.4498  0.7497
13233TIP3   OH261113   2.858   3.857  14.339  0.1488 -0.0905  0.2820
13233TIP3    H161114   2.940   3.904  14.351  0.5133 -0.6625  0.0999
13233TIP3    H261115   2.836   3.869  14.246 -0.4636  0.8298  0.5357
13234TIP3   OH261116   5.721   3.084   0.258  0.0277 -0.1181  0.6946
13234TIP3    H161117   5.792   3.022   0.272 -0.9613 -1.7982 -1.2461
13234TIP3    H261118   5.672   3.084   0.340 -0.6475 -2.9084  0.3694
13235TIP3   OH261119   6.188   5.011   2.753 -0.1595 -0.0567  0.3777
13235TIP3    H161120   6.249   5.081   2.727  0.9880 -1.0513  0.2716
13235TIP3    H261121   6.162   5.034   2.842  1.5860 -0.3530  1.0209
13236TIP3   OH261122   1.987   2.839  14.566  0.5283 -0.4858  0.5967
13236TIP3    H161123   1.955   2.929  14.557  1.7550 -0.0083  0.8093
13236TIP3    H261124   2.077   2.849  14.595  2.2912 -1.6353 -3.6970
13237TIP3   OH261125   4.475   5.383  11.407 -0.4967  0.4354  0.9940
13237TIP3    H161126   4.438   5.331  11.336  1.6430  0.4654 -0.2399
13237TIP3    H261127   4.506   5.463  11.364  1.3586  0.2003  1.8117
13238TIP3   OH261128   4.405   0.429   4.001 -0.0241  0.5466  0.1260
13238TIP3    H161129   4.500   0.437   4.015  0.5370 -1.7149 -1.7631
13238TIP3    H261130   4.397   0.403   3.909 -2.3893 -0.6145  0.5976
13239TIP3   OH261131   4.910   6.438  10.684  0.5102  0.1608 -0.2172
13239TIP3    H161132   4.983   6.476  10.731  0.6174 -0.3457  0.0264
13239TIP3    H261133   4.858   6.513  10.655 -1.6691  0.5647  3.9273
13240TIP3   OH261134   5.517   1.840   4.325 -0.0582 -0.4953 -0.0232
13240TIP3    H161135   5.558   1.803   4.403 -0.0115  0.6223  0.4959
13240TIP3    H261136   5.425   1.854   4.349 -0.4497 -1.7040 -0.7308
13241TIP3   OH261137   0.271   5.146   5.178  0.0126  0.2382 -0.2666
13241TIP3    H161138   0.179   5.165   5.199 -0.5930 -0.5068 -2.0813
13241TIP3    H261139   0.268   5.067   5.125  1.8506 -0.6032  0.7996
13242TIP3   OH261140   1.504   6.034   0.728  0.0517 -0.0865  0.7288
13242TIP3    H161141   1.528   6.103   0.667 -0.4176 -0.0888  0.5372
13242TIP3    H261142   1.410   6.020   0.713  0.5743 -2.4920 -1.0415
13243TIP3   OH261143   6.568   0.737  11.456 -0.5603 -0.2422  0.1596
13243TIP3    H161144   6.547   0.768  11.367 -1.5109 -1.4270 -0.0533
13243TIP3    H261145   6.490   0.759  11.507 -0.7649 -1.1991  0.2718
13244TIP3   OH261146   0.968   5.092  12.892  0.3441  0.0619 -0.2132
13244TIP3    H161147   1.012   5.007  12.890  0.0676 -0.0744 -1.0972
13244TIP3    H261148   0.915   5.090  12.971 -0.5312 -1.0515 -0.7978
13245TIP3   OH261149   3.686   5.951  11.340 -0.7254  0.1026 -0.4371
13245TIP3    H161150   3.592   5.942  11.323 -0.9411  1.6832 -0.1845
13245TIP3    H261151   3.702   6.045  11.338  0.7841 -0.1259 -0.0731
13246TIP3   OH261152   0.202   0.656  14.366  0.1573  0.3839 -0.5518
13246TIP3    H161153   0.153   0.683  14.289 -1.2117  0.2499  0.2394
13246TIP3    H261154   0.294   0.660  14.339 -0.2841  0.5155 -2.1136
13247TIP3   OH261155   5.756   1.304  16.400 -0.5646 -0.2319 -0.4938
13247TIP3    H161156   5.791   1.377  16.450 -1.4274 -1.9081  2.8444
13247TIP3    H261157   5.793   1.226  16.441 -1.4520 -1.7754 -2.4462
13248TIP3   OH261158   2.101   0.238  15.813  0.9172  0.3910 -1.0152
13248TIP3    H161159   2.075   0.277  15.730  1.6387  1.1409 -0.9086
13248TIP3    H261160   2.189   0.273  15.830  0.3109  1.2569  0.6583
13249TIP3   OH261161   6.565   6.019  16.732 -0.1824 -0.4804  0.7959
13249TIP3    H161162   6.607   5.934  16.724  0.9255  0.1799 -1.4067
13249TIP3    H261163   6.505   6.023  16.657  0.0518  0.7927  0.6557
13250TIP3   OH261164   3.082   6.666  13.849 -0.8160  0.2876 -0.1166
13250TIP3    H161165   3.051   6.688  13.761  0.2326  2.2106 -0.0596
13250TIP3    H261166   3.147   6.597  13.835  0.9735  2.0783 -1.1681
13251TIP3   OH261167   0.176   1.262   4.476  0.2806 -0.0518 -0.5468
13251TIP3    H161168   0.131   1.280   4.393  0.1381  0.7720 -0.3054
13251TIP3    H261169   0.105   1.252   4.540  0.4050 -0.1631 -0.4249
13252TIP3   OH261170   5.145   3.216   2.398  0.0897  0.7235 -0.1171
13252TIP3    H161171   5.167   3.251   2.485 -0.3457 -2.8867  1.6651
13252TIP3    H261172   5.049   3.223   2.393  0.1461  1.2880 -0.5190
13253TIP3   OH261173   0.558   3.685   4.353  0.4419  0.4941 -0.0139
13253TIP3    H161174   0.473   3.713   4.319 -1.1468 -1.2817  2.1869
13253TIP3    H261175   0.605   3.767   4.370  0.2378  1.4947 -3.4934
13254TIP3   OH261176   2.415   3.908   1.568  0.0925 -0.7521  0.2821
13254TIP3    H161177   2.495   3.863   1.542 -1.5626 -2.9655 -1.3130
13254TIP3    H261178   2.445   3.996   1.591  2.7866 -0.9402 -1.8507
13255TIP3   OH261179   3.303   1.847   3.919  0.4681  0.0061 -0.2508
13255TIP3    H161180   3.234   1.913   3.931 -1.0898 -1.8915  2.1924
13255TIP3    H261181   3.373   1.875   3.978  0.3391  0.1272 -0.1542
13256TIP3   OH261182   3.011   0.720  12.967  0.5865 -0.5754  0.2609
13256TIP3    H161183   3.058   0.780  13.025 -1.3400  3.0180 -1.5391
13256TIP3    H261184   3.068   0.712  12.890 -0.0951  0.9921 -0.4679
13257TIP3   OH261185   5.570   0.884   4.329  0.0223 -0.6873 -0.3598
13257TIP3    H161186   5.562   0.977   4.305  0.6404 -0.0713  1.6557
13257TIP3    H261187   5.633   0.883   4.401 -0.3586 -2.6301 -0.0101
13258TIP3   OH261188   1.739   0.861  11.287  0.3569 -0.3910  0.4069
13258TIP3    H161189   1.812   0.885  11.229  0.7386 -4.2613 -1.0235
13258TIP3    H261190   1.664   0.853  11.228 -0.3150 -0.2361  1.2234
13259TIP3   OH261191   2.484   3.987   4.264  0.5690  0.2527  0.2033
13259TIP3    H161192   2.494   4.063   4.321 -0.7272  1.1762 -0.7559
13259TIP3    H261193   2.568   3.981   4.217  0.2761  1.8531 -0.5940
13260TIP3   OH261194   1.588   0.358  16.028  0.4912 -0.1951 -0.1677
13260TIP3    H161195   1.532   0.433  16.012 -1.1518 -1.5968 -1.4084
13260TIP3    H261196   1.620   0.370  16.117 -1.8148  0.6906  0.6083
13261TIP3   OH261197   2.859   5.644  15.100 -0.0798 -0.2609  0.0450
13261TIP3    H161198   2.891   5.695  15.174 -0.6082 -0.8091  0.6705
13261TIP3    H261199   2.883   5.553  15.120 -0.7038 -0.4882 -0.1828
13262TIP3   OH261200   6.692   2.706  14.656 -0.3633  0.8363 -0.0030
13262TIP3    H161201   6.733   2.788  14.681  0.7787 -0.2667  2.0566
13262TIP3    H261202   6.765   2.647  14.639 -1.0473 -0.5302  1.4497
13263TIP3   OH261203   5.355   6.680   4.143  0.5898  0.4034 -0.1594
13263TIP3    H161204   5.290   6.706   4.209 -0.6009 -0.7647 -0.8297
13263TIP3    H261205   5.412   6.756   4.134 -1.4476  1.9637 -0.4719
13264TIP3   OH261206   3.650   1.201  16.331 -0.2757  0.0449  0.0895
13264TIP3    H161207   3.724   1.179  16.386  0.2285 -0.1565 -0.6463
13264TIP3    H261208   3.649   1.133  16.263 -1.4808 -0.2864  0.4089
13265TIP3   OH261209   0.008   1.231  14.411 -0.4668 -0.1801  0.0894
13265TIP3    H161210  -0.001   1.142  14.446 -1.6509 -0.1943 -0.1930
13265TIP3    H261211   0.094   1.260  14.441  0.1628 -1.6031 -0.2505
13266TIP3   OH261212   6.657   2.725  11.705 -0.4218 -0.1545  0.6287
13266TIP3    H161213   6.617   2.795  11.654  0.9669  2.0830  2.4529
13266TIP3    H261214   6.748   2.752  11.716 -0.5945 -0.5170  4.1553
13267TIP3   OH261215   6.077   5.639   1.199 -0.0661  0.2760 -0.2106
13267TIP3    H161216   6.123   5.666   1.120  0.8685  0.1276  0.2704
13267TIP3    H261217   6.139   5.582   1.244 -1.5680 -1.8817 -0.6999
13268TIP3   OH261218   6.016   6.698   3.167 -0.2281 -0.1746 -0.3391
13268TIP3    H161219   6.039   6.646   3.244 -0.0363  1.7267  0.9650
13268TIP3    H261220   5.949   6.647   3.122 -0.1080 -1.4909  0.9001
13269TIP3   OH261221   1.745   1.355   4.520  0.4831  0.7124  0.2370
13269TIP3    H161222   1.719   1.264   4.508  1.0400  0.6093 -0.2133
13269TIP3    H261223   1.684   1.388   4.586  0.1058  0.0918  0.2126
13270TIP3   OH261224   0.110   2.573  15.845  0.3158  0.1320  0.1453
13270TIP3    H161225   0.198   2.537  15.840  0.3958  0.1311  1.2898
13270TIP3    H261226   0.069   2.528  15.919 -0.8878 -0.3646 -0.8048
13271TIP3   OH261227   2.606   3.286   3.148  0.0476 -0.4486  0.6550
13271TIP3    H161228   2.640   3.228   3.216 -1.0712 -0.2753  1.3860
13271TIP3    H261229   2.605   3.232   3.069 -0.9666 -1.4447  1.3212
13272TIP3   OH261230   0.413   1.459   3.224 -0.1593 -0.1599 -0.0304
13272TIP3    H161231   0.443   1.547   3.245 -0.8185 -0.0656  0.5877
13272TIP3    H261232   0.324   1.472   3.191 -0.9222 -0.7093  1.6845
13273TIP3   OH261233   1.831   6.254   0.921 -0.2130 -0.5035 -0.6563
13273TIP3    H161234   1.915   6.254   0.875 -0.4349 -1.8382 -1.0847
13273TIP3    H261235   1.835   6.332   0.976  0.5750  0.4557 -1.9985
13274TIP3   OH261236   1.761   5.368   0.073 -0.1651 -0.3055 -0.3770
13274TIP3    H161237   1.791   5.299   0.132  0.8318 -0.1655 -0.7024
13274TIP3    H261238   1.840   5.416   0.050 -0.7103  0.3564 -0.9121
13275TIP3   OH261239   1.104   4.920  14.376  0.3466  0.4418  0.3776
13275TIP3    H161240   1.197   4.915  14.398  0.6047  1.5536 -0.3819
13275TIP3    H261241   1.067   4.980  14.441  0.0136 -0.4905  1.0716
13276TIP3   OH261242   1.004   4.495   1.827 -0.6174 -0.8094  0.0719
13276TIP3    H161243   0.973   4.586   1.824 -0.3952 -0.7474 -0.9798
13276TIP3    H261244   1.098   4.502   1.843 -0.4357 -0.7910 -0.9058
13277TIP3   OH261245   5.122   1.939   2.382 -0.1404  0.3008 -0.4862
13277TIP3    H161246   5.209   1.935   2.420  0.5220  0.3724 -1.9224
13277TIP3    H261247   5.120   2.021   2.333 -1.1889  0.5254 -0.1085
13278TIP3   OH261248   2.932   1.484  12.130  0.0609  0.4482  0.3451
13278TIP3    H161249   2.890   1.528  12.056  2.1057  1.4132 -0.3250
13278TIP3    H261250   2.937   1.392  12.105 -2.1053  0.1950  0.7065
13279TIP3   OH261251   0.602   4.004  12.157  0.5176 -0.3212  0.0502
13279TIP3    H161252   0.655   3.937  12.114  1.3407 -0.1561  0.7661
13279TIP3    H261253   0.660   4.040  12.225 -0.2668  0.3850  0.3642
13280TIP3   OH261254   4.736   2.058   5.465  0.2656  0.3948 -0.2423
13280TIP3    H161255   4.649   2.035   5.497 -0.4095  1.4174 -1.2451
13280TIP3    H261256   4.729   2.053   5.369  1.7176 -0.8811 -0.3228
13281TIP3   OH261257   5.055   1.278  14.327  1.0663 -0.0714 -0.0410
13281TIP3    H161258   5.071   1.236  14.411 -1.1382  0.0748  0.5097
13281TIP3    H261259   5.105   1.360  14.331  1.0719 -0.1165  1.0844
13282TIP3   OH261260   2.402   0.171  13.519  0.1355 -0.0637  0.3964
13282TIP3    H161261   2.325   0.116  13.513 -0.5586  1.0557 -2.0122
13282TIP3    H261262   2.371   0.252  13.559  0.4188 -0.1280  0.7630
13283TIP3   OH261263   5.368   6.475   3.683 -0.1389  0.3200  0.5917
13283TIP3    H161264   5.354   6.557   3.731 -0.4840  0.4198  0.3210
13283TIP3    H261265   5.365   6.407   3.751  2.2647  0.6731  1.1618
13284TIP3   OH261266   4.045   4.502   5.442 -0.4493  0.0944 -0.3235
13284TIP3    H161267   3.959   4.465   5.423  0.2016 -1.1962 -0.8365
13284TIP3    H261268   4.044   4.588   5.400 -1.8742  0.5683  0.6254
13285TIP3   OH261269   2.387   0.258  16.560  0.0682  0.0504  0.1120
13285TIP3    H161270   2.446   0.192  16.524  1.3466  1.8673 -1.3171
13285TIP3    H261271   2.299   0.230  16.533  0.7049 -0.3964 -1.5954
13286TIP3   OH261272   1.016   6.492  16.624  0.0935  0.0065 -0.3516
13286TIP3    H161273   1.043   6.444  16.545  0.5257 -0.1371 -0.1202
13286TIP3    H261274   1.081   6.468  16.690  0.5381  1.2004 -0.3304
13287TIP3   OH261275   0.152   2.415   0.799 -0.3673 -0.3857 -0.1125
13287TIP3    H161276   0.226   2.362   0.828  0.3553  0.3121 -0.6245
13287TIP3    H261277   0.105   2.359   0.737  0.5338 -0.3621 -0.8483
13288TIP3   OH261278   3.326   5.422   6.099  0.3355  0.1909  0.0658
13288TIP3    H161279   3.397   5.445   6.159  0.6654 -1.5184  0.4002
13288TIP3    H261280   3.262   5.492   6.108  0.5127  0.1226  2.1986
13289TIP3   OH261281   3.776   4.467   4.718 -0.1325  0.3058  0.2541
13289TIP3    H161282   3.871   4.474   4.712 -0.2589  1.7959 -0.3418
13289TIP3    H261283   3.744   4.491   4.631 -1.0518 -0.7400  0.2701
13290TIP3   OH261284   6.158   3.527   1.012  0.3813  0.1701  0.7711
13290TIP3    H161285   6.157   3.582   0.934 -0.7760 -0.8754  0.0100
13290TIP3    H261286   6.214   3.574   1.074  2.0157  0.6300 -0.9514
13291TIP3   OH261287   5.365   1.593   0.376  0.1434  0.0716 -0.5952
13291TIP3    H161288   5.339   1.568   0.465 -1.0110 -0.0763 -0.9581
13291TIP3    H261289   5.450   1.636   0.387  1.1073 -1.9290  0.3231
13292TIP3   OH261290   6.592   0.506  12.183 -0.0599 -0.0476 -0.3556
13292TIP3    H161291   6.570   0.583  12.130  1.7259  0.0639 -0.9978
13292TIP3    H261292   6.644   0.541  12.256 -0.3468 -0.4940  0.0669
13293TIP3   OH261293   1.000   1.417   5.086 -0.0157  0.4011 -0.3210
13293TIP3    H161294   1.005   1.323   5.101 -0.3990  0.4063 -0.1539
13293TIP3    H261295   1.091   1.448   5.092  0.0415  0.1339  0.1864
13294TIP3   OH261296   3.511   0.547  17.100  0.5881 -0.3326 -0.7471
13294TIP3    H161297   3.454   0.515  17.031  1.0178 -0.0363 -1.2472
13294TIP3    H261298   3.503   0.642  17.096  0.2856 -0.3264 -0.1048
13295TIP3   OH261299   1.378   1.873   2.980  0.6355 -0.0974  0.3398
13295TIP3    H161300   1.292   1.863   3.021  0.1800  0.1924 -0.5023
13295TIP3    H261301   1.421   1.789   2.994 -1.1275 -1.5799 -2.1606
13296TIP3   OH261302   3.719   2.604   1.992  0.6383  0.6430  0.3080
13296TIP3    H161303   3.660   2.622   2.065  1.4299  0.8116  0.9204
13296TIP3    H261304   3.752   2.516   2.009 -1.8154 -0.8046 -1.7055
13297TIP3   OH261305   1.335   2.292  13.275  0.0896  0.4804 -0.6154
13297TIP3    H161306   1.357   2.385  13.268  0.0135  0.6597  1.0509
13297TIP3    H261307   1.293   2.271  13.192 -2.6960  2.7242  0.0499
13298TIP3   OH261308   0.660   2.220  11.662 -0.2250  0.4009  0.7808
13298TIP3    H161309   0.588   2.275  11.631 -0.3546  1.5844  2.9575
13298TIP3    H261310   0.732   2.238  11.601 -1.2701  0.4093 -0.4896
13299TIP3   OH261311   0.699   1.263   0.620 -0.0503 -0.2562  0.6401
13299TIP3    H161312   0.748   1.192   0.660 -1.7660 -0.6451  2.1788
13299TIP3    H261313   0.617   1.223   0.591  0.1188  0.5399 -1.1071
13300TIP3   OH261314   4.103   1.155   4.089  0.9647  0.1871 -0.3942
13300TIP3    H161315   4.044   1.132   4.017 -3.2032  2.3462  1.9314
13300TIP3    H261316   4.115   1.073   4.137 -1.4220 -0.1129 -0.2014
13301TIP3   OH261317   2.818   0.436   1.941  0.0915 -0.3777 -0.1015
13301TIP3    H161318   2.887   0.502   1.936 -1.7342  1.5769 -1.2533
13301TIP3    H261319   2.855   0.359   1.898  1.6916  0.4850 -0.3224
13302TIP3   OH261320   2.714   5.385  14.219  0.0255  0.2464 -0.1180
13302TIP3    H161321   2.765   5.304  14.217 -0.5392 -0.1137 -0.5300
13302TIP3    H261322   2.779   5.455  14.221  0.5266 -0.2090 -0.3091
13303TIP3   OH261323   2.105   6.465  11.417  0.6931 -0.2850  0.2285
13303TIP3    H161324   2.104   6.458  11.322  1.9888  1.2548  0.0634
13303TIP3    H261325   2.031   6.411  11.446 -0.3550  0.0304 -1.7024
13304TIP3   OH261326   5.409   0.670   6.291 -0.1403 -0.0247 -1.0192
13304TIP3    H161327   5.467   0.594   6.300  0.8145  0.9338  2.3313
13304TIP3    H261328   5.321   0.632   6.284  0.4117 -1.4398 -0.6976
13305TIP3   OH261329   6.003   4.945   4.669 -0.1872 -0.6999  0.7308
13305TIP3    H161330   6.042   4.992   4.743  0.0494 -0.7034  0.6082
13305TIP3    H261331   5.945   4.881   4.710 -0.4195 -0.3840  0.9018
13306TIP3   OH261332   0.575   2.435   2.172 -0.2780  0.0446 -0.7928
13306TIP3    H161333   0.529   2.375   2.232  2.0504 -0.6824  0.3717
13306TIP3    H261334   0.604   2.379   2.101  2.9586 -0.6273  0.8834
13307TIP3   OH261335   4.641   1.734   5.549  0.0875 -0.2085  0.3198
13307TIP3    H161336   4.683   1.703   5.629  1.2599 -0.7145 -0.4555
13307TIP3    H261337   4.551   1.755   5.575  1.4960  4.1862  2.9101
13308TIP3   OH261338   4.861   5.156   6.703 -0.1713  0.0797 -0.4276
13308TIP3    H161339   4.812   5.095   6.757 -0.2414  0.0242 -0.5538
13308TIP3    H261340   4.934   5.105   6.669 -0.6737 -0.1525 -1.1810
13309TIP3   OH261341   3.266   5.246   6.384 -0.0585  0.0493  0.1554
13309TIP3    H161342   3.290   5.325   6.337 -0.1671  0.3884  0.6624
13309TIP3    H261343   3.171   5.241   6.378 -0.1804  0.6752  1.2252
13310TIP3   OH261344   0.636   2.676  11.145  0.0772 -0.1770 -0.3626
13310TIP3    H161345   0.697   2.676  11.071  1.4439 -0.4494  0.7225
13310TIP3    H261346   0.633   2.767  11.174  0.5877 -0.2953  0.0688
13311TIP3   OH261347   4.718   2.342  15.689 -0.0718 -0.6205 -0.0544
13311TIP3    H161348   4.773   2.418  15.671  0.9842 -1.6762 -1.5819
13311TIP3    H261349   4.629   2.372  15.675  0.3478  0.2880 -0.8718
13312TIP3   OH261350   6.485   5.937  16.155 -0.0521 -0.4935  0.5433
13312TIP3    H161351   6.492   5.951  16.060 -1.8041 -0.4433  0.3784
13312TIP3    H261352   6.518   6.018  16.194  0.2790 -0.3452 -0.0322
13313TIP3   OH261353   0.133   4.135  14.882 -0.1878 -0.6368  0.7203
13313TIP3    H161354   0.180   4.134  14.798 -1.3526  0.4245  0.0209
13313TIP3    H261355   0.145   4.224  14.915 -0.7174 -0.7005  1.1028
13314TIP3   OH261356   2.600   4.762   4.543 -0.1011 -0.6698 -0.4366
13314TIP3    H161357   2.634   4.693   4.600  0.0811 -0.6397 -0.5098
13314TIP3    H261358   2.515   4.729   4.514 -1.0983  0.1495  1.3982
13315TIP3   OH261359   1.308   5.110  11.646  0.3587 -0.4563  0.1038
13315TIP3    H161360   1.332   5.021  11.672  0.3466 -0.8084 -1.0424
13315TIP3    H261361   1.367   5.167  11.697  1.1594 -1.1642 -0.0157
13316TIP3   OH261362   3.434   5.345   0.004 -0.5449  0.2722  0.2382
13316TIP3    H161363   3.433   5.327  -0.090 -0.3407  1.2641  0.0317
13316TIP3    H261364   3.508   5.294   0.038 -0.3395  0.2658 -0.2172
13317TIP3   OH261365   6.629   4.350  10.887  0.3362  0.7242 -0.4371
13317TIP3    H161366   6.546   4.328  10.928  1.2312  0.2054  1.1986
13317TIP3    H261367   6.632   4.295  10.808 -0.5574  0.2384 -0.1454
13318TIP3   OH261368   3.597   4.515  11.910  0.0242 -0.5970  0.5710
13318TIP3    H161369   3.653   4.524  11.833 -0.2548 -0.8077  0.3428
13318TIP3    H261370   3.623   4.587  11.967 -0.9184  0.5835 -0.4400
13319TIP3   OH261371   3.636   2.374  16.640 -0.5279 -0.0193  0.7109
13319TIP3    H161372   3.709   2.434  16.655 -0.7035 -0.0563  1.7373
13319TIP3    H261373   3.659   2.329  16.558  0.8093 -0.3421  1.2332
13320TIP3   OH261374   0.008   4.896   3.770  0.3211  0.0592 -0.0648
13320TIP3    H161375   0.017   4.874   3.677  1.0316 -0.5489  0.1347
13320TIP3    H261376  -0.017   4.814   3.812  0.9523  0.0983  0.4064
13321TIP3   OH261377   0.505   6.651   3.771 -0.0523  0.8599 -0.1982
13321TIP3    H161378   0.483   6.614   3.857 -0.4243 -0.0926 -0.6844
13321TIP3    H261379   0.435   6.715   3.754 -1.3001 -0.6017 -0.7841
13322TIP3   OH261380   1.092   3.218  16.865 -0.5484  0.1488 -0.5788
13322TIP3    H161381   1.098   3.130  16.828 -2.2850 -0.1834 -0.1819
13322TIP3    H261382   1.181   3.254  16.858 -0.0608 -1.2073 -1.7709
13323TIP3   OH261383   3.612   4.057   4.848  0.2234 -0.0959  0.3514
13323TIP3    H161384   3.549   4.010   4.903 -0.9424  0.6020 -0.3475
13323TIP3    H261385   3.698   4.034   4.885 -0.5273  1.6800  3.5538
13324TIP3   OH261386   6.401   5.413  12.596 -0.0663  0.0929 -0.1368
13324TIP3    H161387   6.336   5.464  12.646  0.3429 -0.5996  1.1591
13324TIP3    H261388   6.479   5.469  12.595 -0.3398  0.4706 -0.7588
13325TIP3   OH261389   2.642   2.971   1.216 -0.0025  0.2132  0.6727
13325TIP3    H161390   2.668   3.027   1.290 -0.4971  1.0981  0.1973
13325TIP3    H261391   2.564   2.926   1.248  0.8132 -0.7839  1.3189
13326TIP3   OH261392   3.755   4.079   5.645 -0.5043  0.3538 -0.0429
13326TIP3    H161393   3.751   4.167   5.683 -1.9275  0.0681  0.5021
13326TIP3    H261394   3.665   4.048   5.645 -0.0437 -1.0665 -0.3533
13327TIP3   OH261395   3.617   6.188  15.017 -0.2077 -0.0989  0.4084
13327TIP3    H161396   3.602   6.256  15.082  1.9333 -1.1642  2.1572
13327TIP3    H261397   3.671   6.229  14.950  0.6642  0.0983  1.2076
13328TIP3   OH261398   5.613   4.127   3.776  0.4496  0.8800  0.0361
13328TIP3    H161399   5.694   4.116   3.825 -0.1772 -0.9681  0.7555
13328TIP3    H261400   5.629   4.085   3.692  0.0422 -0.0722  0.4265
13329TIP3   OH261401   2.024   2.883  14.111  0.1230 -0.1684 -0.5068
13329TIP3    H161402   2.116   2.871  14.088  0.4766  1.3651 -0.0233
13329TIP3    H261403   2.015   2.840  14.196  0.9814  1.4939  0.4901
13330TIP3   OH261404   1.185   0.370   5.498  0.5553 -0.1034 -0.0474
13330TIP3    H161405   1.155   0.382   5.408  0.8872 -0.4814 -0.2052
13330TIP3    H261406   1.109   0.395   5.551  0.2692 -0.1397 -0.4338
13331TIP3   OH261407   2.056   0.336   4.423 -0.6285  0.0314 -0.3053
13331TIP3    H161408   2.054   0.364   4.332 -0.8796 -0.3806 -0.4290
13331TIP3    H261409   1.977   0.283   4.434 -0.4219 -0.2066  0.0610
13332TIP3   OH261410   1.345   1.295  11.626  0.4456  0.0365 -0.4075
13332TIP3    H161411   1.318   1.290  11.718  0.2657  0.1077 -0.4563
13332TIP3    H261412   1.355   1.203  11.599  0.5204  0.0163 -0.3104
13333TIP3   OH261413   3.892   0.626   5.949 -0.7877  0.3030  0.1741
13333TIP3    H161414   3.926   0.712   5.977  0.4502 -0.6499  1.8144
13333TIP3    H261415   3.953   0.563   5.989 -2.6346 -1.3987  0.4297
13334TIP3   OH261416   6.332   0.477  14.187 -0.2715 -0.8150  0.0968
13334TIP3    H161417   6.364   0.486  14.097  0.4261 -0.3404  0.3853
13334TIP3    H261418   6.268   0.547  14.196  3.0239  2.3216  1.4009
13335TIP3   OH261419   3.942   1.217   6.143 -0.5437  0.3224 -0.0679
13335TIP3    H161420   4.005   1.257   6.203  1.1693 -0.0622 -1.5261
13335TIP3    H261421   3.901   1.146   6.194 -0.0845  0.8322  1.0278
13336TIP3   OH261422   3.546   3.201  13.819 -0.2548  0.3244  0.2478
13336TIP3    H161423   3.507   3.229  13.902  0.2036  0.6020  0.3793
13336TIP3    H261424   3.566   3.283  13.774  3.4648  0.4589  1.7325
13337TIP3   OH261425   6.077   5.412   4.756  0.2196 -0.0192 -0.2730
13337TIP3    H161426   5.987   5.402   4.724  1.0858 -1.3157 -2.5692
13337TIP3    H261427   6.096   5.328   4.799  1.1359 -0.8299 -2.1552
13338TIP3   OH261428   3.752   1.232  13.929  0.1767  0.1611 -0.3691
13338TIP3    H161429   3.681   1.271  13.878  0.1648  1.3402  0.5120
13338TIP3    H261430   3.758   1.142  13.896 -0.9585  0.3770 -1.2446
13339TIP3   OH261431   3.799   3.252  11.125 -0.5227  0.2466  0.0784
13339TIP3    H161432   3.872   3.281  11.180 -1.4175 -0.3303  1.6385
13339TIP3    H261433   3.840   3.207  11.052  0.7451  1.7602 -0.2103
13340TIP3   OH261434   0.053   0.218   5.528  0.5701 -0.1509  0.7650
13340TIP3    H161435   0.139   0.210   5.569  0.9749 -0.0442 -0.0375
13340TIP3    H261436  -0.007   0.236   5.601  1.4716  1.4915  1.1618
13341TIP3   OH261437   3.957   1.983   3.133  0.9696  0.0835  0.3919
13341TIP3    H161438   3.978   2.013   3.045 -0.1848 -2.0998 -0.7054
13341TIP3    H261439   3.917   2.060   3.175 -0.6026  0.5633 -1.7876
13342TIP3   OH261440   0.694   1.010   2.051  1.1158  0.3259  0.0588
13342TIP3    H161441   0.776   1.050   2.077  1.8079  0.8740 -2.6422
13342TIP3    H261442   0.627   1.075   2.073  1.8748  1.6119 -1.2579
13343TIP3   OH261443   0.859   3.944  15.491  0.6532 -0.3143 -0.5668
13343TIP3    H161444   0.933   3.948  15.431  1.1215 -2.1312 -0.1537
13343TIP3    H261445   0.808   3.869  15.461 -1.2566  1.0871 -1.0521
13344TIP3   OH261446   1.320   6.174  13.086 -0.0603 -0.3794  0.4520
13344TIP3    H161447   1.284   6.244  13.031  1.4809  0.3230  0.2998
13344TIP3    H261448   1.277   6.094  13.054 -0.0938  0.1737 -0.9563
13345TIP3   OH261449   5.084   4.604  17.079 -0.3222  0.4178 -0.4989
13345TIP3    H161450   5.175   4.579  17.063 -0.6184 -0.5707 -0.7416
13345TIP3    H261451   5.051   4.629  16.992 -1.3816 -3.0915 -1.2653
13346TIP3   OH261452   4.589   1.498   4.840 -0.3377  0.4316  0.2764
13346TIP3    H161453   4.662   1.530   4.893 -0.6072 -0.2656  1.1066
13346TIP3    H261454   4.511   1.520   4.891 -0.5920 -0.3993  0.2766
13347TIP3   OH261455   2.412   4.153  11.825 -0.1362  0.4283 -0.3761
13347TIP3    H161456   2.483   4.139  11.762 -1.5628 -1.1272 -1.7015
13347TIP3    H261457   2.364   4.228  11.790 -0.6601 -0.1497 -0.9096
13348TIP3   OH261458   3.585   1.306  15.527 -0.6663 -0.4079 -0.1739
13348TIP3    H161459   3.648   1.378  15.524 -1.6543  0.4949  0.2654
13348TIP3    H261460   3.531   1.323  15.604 -1.4418 -1.1659 -0.5224
13349TIP3   OH261461   6.535   4.843  14.537 -0.1048  0.1031 -0.2825
13349TIP3    H161462   6.444   4.873  14.528 -1.1481 -2.3653  0.9382
13349TIP3    H261463   6.546   4.831  14.632  1.0202 -0.9107 -0.5184
13350TIP3   OH261464   3.435   0.742  14.143  0.6808 -0.7138  0.7659
13350TIP3    H161465   3.419   0.648  14.135 -2.0231 -0.4126  1.7979
13350TIP3    H261466   3.406   0.763  14.232 -0.7188  1.4447 -0.1513
13351TIP3   OH261467   2.424   0.752   1.389  0.4805 -0.1441  0.0408
13351TIP3    H161468   2.467   0.782   1.470 -1.8559 -1.3430  1.8481
13351TIP3    H261469   2.477   0.677   1.361  2.3523  1.3450 -0.6324
13352TIP3   OH261470   4.508   2.808   1.694  0.4797 -0.5638  0.0022
13352TIP3    H161471   4.500   2.897   1.660 -0.1407 -0.3465  0.6798
13352TIP3    H261472   4.417   2.778   1.703  0.5098 -0.0969  2.7101
13353TIP3   OH261473   2.410   1.315   1.285  0.1852  0.1188 -0.4098
13353TIP3    H161474   2.376   1.295   1.197 -1.9377  0.3836  0.3014
13353TIP3    H261475   2.485   1.257   1.295 -0.4405 -0.9981 -1.8290
13354TIP3   OH261476   3.247   0.634   0.764  0.0233  0.3802 -0.3082
13354TIP3    H161477   3.269   0.721   0.732  1.1365  0.6422  1.0858
13354TIP3    H261478   3.316   0.613   0.827 -1.4437 -0.5575  1.0731
13355TIP3   OH261479   4.594   3.216   1.262 -0.0459  0.3418  0.0432
13355TIP3    H161480   4.508   3.178   1.245  0.2129 -0.7433  1.0181
13355TIP3    H261481   4.593   3.300   1.217 -1.3483  0.0169 -0.5654
13356TIP3   OH261482   3.654   1.736   2.574  0.5668  0.1489  0.2774
13356TIP3    H161483   3.700   1.733   2.491  0.5546  0.3102  0.2646
13356TIP3    H261484   3.710   1.686   2.634  1.2832  1.1843  0.5154
13357TIP3   OH261485   1.147   6.589   2.203  0.1498 -0.1101  0.7038
13357TIP3    H161486   1.144   6.519   2.137  1.4242  1.8269 -1.5564
13357TIP3    H261487   1.241   6.605   2.217 -0.1162  0.4078  2.0641
13358TIP3   OH261488   1.092   6.345  12.981 -0.1601  0.7385  0.4223
13358TIP3    H161489   1.161   6.410  12.967  1.7137 -0.5638  2.8526
13358TIP3    H261490   1.013   6.397  12.994  0.7099  2.3904 -0.5094
13359TIP3   OH261491   6.744   1.099   3.483 -0.5904  0.0423 -0.0340
13359TIP3    H161492   6.736   1.137   3.395 -0.1078 -0.3727 -0.2588
13359TIP3    H261493   6.791   1.166   3.533 -0.5461  0.1271 -0.1863
13360TIP3   OH261494   5.899   1.012   2.218 -0.4696 -0.4310  0.0440
13360TIP3    H161495   5.966   0.955   2.255 -1.0680 -0.4061  1.1879
13360TIP3    H261496   5.816   0.977   2.251 -0.9087  0.5470  0.0100
13361TIP3   OH261497   6.072   3.145   4.879 -0.7935 -0.5661 -0.1863
13361TIP3    H161498   6.025   3.082   4.825  1.2889 -3.0129  0.6626
13361TIP3    H261499   6.128   3.193   4.818 -1.6548 -0.1924 -0.7058
13362TIP3   OH261500   1.842   6.407   3.554  0.1403 -0.4480  0.6364
13362TIP3    H161501   1.767   6.415   3.613 -0.1698 -1.8021  0.4567
13362TIP3    H261502   1.804   6.410   3.466  0.4436  0.1029  0.5176
13363TIP3   OH261503   0.340   4.415   2.078  0.0990 -0.2491  0.0693
13363TIP3    H161504   0.408   4.385   2.018 -0.0826 -1.3958  0.4133
13363TIP3    H261505   0.344   4.510   2.074  1.9374 -0.2867  0.3248
13364TIP3   OH261506   0.435   0.912  15.834  0.3847 -0.3812 -0.0087
13364TIP3    H161507   0.488   0.991  15.848 -0.7122  0.1959  1.1317
13364TIP3    H261508   0.394   0.926  15.748 -0.2407  0.5894  0.4238
13365TIP3   OH261509   0.198   1.048   2.166  0.4031 -0.1102  0.3690
13365TIP3    H161510   0.233   1.105   2.097 -0.5648  0.0666  0.0108
13365TIP3    H261511   0.254   1.067   2.242  1.7437 -0.6031 -0.4527
13366TIP3   OH261512   3.855   5.669   0.460 -0.0038  0.0694 -0.0872
13366TIP3    H161513   3.933   5.724   0.455 -0.3163  0.5471  0.2596
13366TIP3    H261514   3.797   5.714   0.521 -0.2912 -0.6078  0.1564
13367TIP3   OH261515   6.224   3.458  11.469  0.4788  0.2154 -0.4354
13367TIP3    H161516   6.129   3.466  11.456  0.4269  0.4409  0.0767
13367TIP3    H261517   6.254   3.407  11.394 -0.0219  0.3078 -0.7000
13368TIP3   OH261518   6.708   2.442   0.981 -0.4782  0.1398  0.8598
13368TIP3    H161519   6.774   2.429   0.913 -0.7756 -0.4843  0.6809
13368TIP3    H261520   6.625   2.418   0.939 -0.6400 -0.4430  1.4875
13369TIP3   OH261521   2.006   4.290   0.509  0.0948  0.0251  0.2893
13369TIP3    H161522   2.003   4.309   0.602 -0.8182  0.4575  0.1861
13369TIP3    H261523   1.980   4.372   0.466 -1.0786 -0.6078 -0.2701
13370TIP3   OH261524   1.360   6.028   4.633  0.1917 -0.1068  0.4342
13370TIP3    H161525   1.398   5.992   4.714  0.8613 -1.6081 -0.5072
13370TIP3    H261526   1.422   6.003   4.564 -1.4476 -0.8020 -0.8580
13371TIP3   OH261527   5.550   5.369   3.514  0.3763  0.2514  0.5763
13371TIP3    H161528   5.577   5.294   3.460  0.2182  0.2850  0.4519
13371TIP3    H261529   5.455   5.369   3.509  0.3655  0.3056  0.7882
13372TIP3   OH261530   2.115   2.737   0.536  0.3410 -0.8297 -0.0086
13372TIP3    H161531   2.041   2.732   0.475  0.3517  1.3290 -0.2927
13372TIP3    H261532   2.108   2.825   0.574  2.8624 -0.4753 -0.2051
13373TIP3   OH261533   4.552   6.214  15.849  0.0415  0.8541  0.1184
13373TIP3    H161534   4.514   6.220  15.761  2.1447 -0.7036 -0.9950
13373TIP3    H261535   4.634   6.167  15.836  1.0453  1.7180  2.7660
13374TIP3   OH261536   5.004   4.060   2.336  0.1903 -0.1689 -0.0207
13374TIP3    H161537   4.915   4.095   2.342 -0.1951 -1.3193  1.5037
13374TIP3    H261538   5.008   3.991   2.402  1.8498 -0.9817 -0.8991
13375TIP3   OH261539   6.080   1.011   1.997  0.1467  0.0917  0.2837
13375TIP3    H161540   6.174   1.008   2.013  0.5911  2.6774 -1.1536
13375TIP3    H261541   6.044   1.057   2.072  0.1843 -0.0049  0.3603
13376TIP3   OH261542   0.682   3.706  16.986  0.3327  0.4420 -0.0414
13376TIP3    H161543   0.671   3.767  16.913 -0.6337  1.1270  0.6488
13376TIP3    H261544   0.773   3.719  17.014 -0.0299  2.0353  0.4864
13377TIP3   OH261545   5.716   5.899  15.865  0.4945 -0.2734  0.2631
13377TIP3    H161546   5.696   5.883  15.957  1.2171  0.8759  0.6330
13377TIP3    H261547   5.743   5.990  15.861  1.6744 -0.6355 -0.8888
13378TIP3   OH261548   1.425   2.401  14.004  0.6702 -0.4158 -0.3756
13378TIP3    H161549   1.512   2.432  14.030  0.7092  0.9091 -1.8917
13378TIP3    H261550   1.367   2.429  14.075  1.1771  0.5216 -0.3185
13379TIP3   OH261551   5.428   5.106   6.054  0.2679  0.5965  0.0932
13379TIP3    H161552   5.504   5.049   6.053  0.7210  1.1253  1.6157
13379TIP3    H261553   5.426   5.143   6.143 -2.0368  0.2220  0.2773
13380TIP3   OH261554   3.631   4.369  15.888 -0.1637  0.0866  0.2108
13380TIP3    H161555   3.717   4.349  15.851 -0.2400  1.4443 -0.7569
13380TIP3    H261556   3.632   4.326  15.974  1.2024 -0.5114 -0.0771
13381TIP3   OH261557   0.064   3.190   1.161 -0.1561 -0.2952 -0.2787
13381TIP3    H161558   0.045   3.242   1.083  4.9198  0.1077 -1.6173
13381TIP3    H261559   0.072   3.100   1.128  0.3440 -0.3947  0.1040
13382TIP3   OH261560   5.050   0.737   2.619 -0.0342  0.5407 -0.3779
13382TIP3    H161561   4.995   0.670   2.660  1.7860  0.9969  3.1744
13382TIP3    H261562   5.131   0.690   2.597  0.7904  1.2588  1.0162
13383TIP3   OH261563   5.261   2.262   5.186 -0.0414  0.3644 -0.0412
13383TIP3    H161564   5.194   2.330   5.188 -0.3388  0.1171 -0.8355
13383TIP3    H261565   5.335   2.299   5.234 -0.7032  0.6818  0.7599
13384TIP3   OH261566   0.086   6.449  13.721  0.2366  0.3580 -0.3728
13384TIP3    H161567   0.063   6.521  13.779  1.6652 -0.2106  0.9812
13384TIP3    H261568   0.029   6.377  13.748  0.5882  0.2299  0.0468
13385TIP3   OH261569   1.597   3.617   3.203  0.2091 -0.3525 -0.9103
13385TIP3    H161570   1.684   3.643   3.172  0.7353 -0.6374  0.2472
13385TIP3    H261571   1.552   3.699   3.220  0.1320 -0.2015 -1.8219
13386TIP3   OH261572   3.955   3.464  16.759 -0.9468  0.4554 -0.0920
13386TIP3    H161573   4.003   3.544  16.782 -0.0355 -0.6480  2.1429
13386TIP3    H261574   3.980   3.401  16.827 -2.1969 -1.5226 -1.3783
13387TIP3   OH261575   4.585   5.742   2.354  0.2616  0.1358 -0.5019
13387TIP3    H161576   4.578   5.650   2.376 -1.7511  0.4360  0.3138
13387TIP3    H261577   4.672   5.767   2.383  0.1616 -1.0883  0.9838
13388TIP3   OH261578   3.148   0.685  12.717 -0.3035  0.5574  0.5580
13388TIP3    H161579   3.174   0.593  12.721 -0.4499  0.5203  0.6689
13388TIP3    H261580   3.221   0.729  12.673 -1.2025  0.0458 -1.5406
13389TIP3   OH261581   2.096   5.541  16.301 -0.3659 -0.2404  0.0059
13389TIP3    H161582   2.162   5.478  16.273  1.2228  0.7241  1.4080
13389TIP3    H261583   2.086   5.525  16.395 -0.8871  0.7523  0.1300
13390TIP3   OH261584   4.525   2.681   2.662 -0.2486  0.3873 -0.1196
13390TIP3    H161585   4.600   2.733   2.690  0.2305  0.5456 -1.6508
13390TIP3    H261586   4.525   2.605   2.721 -0.0605  1.3319  1.1504
13391TIP3   OH261587   3.372   5.304  12.048 -0.4192 -0.1474 -0.0917
13391TIP3    H161588   3.363   5.334  12.138 -1.6624  0.8299 -0.5181
13391TIP3    H261589   3.357   5.382  11.994  3.7712  0.1431 -1.1717
13392TIP3   OH261590   1.012   6.383   0.015  0.4054 -0.3509 -0.0884
13392TIP3    H161591   0.917   6.375   0.018  0.1428  2.1071  0.1581
13392TIP3    H261592   1.043   6.330   0.088 -0.9546  0.5052  1.1758
13393TIP3   OH261593   1.012   2.848  11.276  0.5294  0.3798 -0.0432
13393TIP3    H161594   0.937   2.800  11.310  1.6853 -1.8458 -0.4742
13393TIP3    H261595   0.976   2.902  11.205 -0.9996  1.1574  1.2484
13394TIP3   OH261596   0.877   2.823   0.232  0.2031 -0.0175 -0.4580
13394TIP3    H161597   0.962   2.780   0.219  0.8410  1.4514 -1.4782
13394TIP3    H261598   0.823   2.792   0.160  0.1593 -0.3117 -0.2962
13395TIP3   OH261599   3.051   4.110   2.265 -0.2214 -0.1459  0.2148
13395TIP3    H161600   3.024   4.193   2.224  1.4259  0.5786  0.5000
13395TIP3    H261601   3.012   4.113   2.352 -0.4359  0.1756  0.1135
13396TIP3   OH261602   1.141   3.524  11.254  0.2417  0.1828 -0.5497
13396TIP3    H161603   1.157   3.616  11.273  0.3065  0.1274 -0.3297
13396TIP3    H261604   1.122   3.521  11.160 -1.4487  0.6524 -0.2604
13397TIP3   OH261605   5.334   1.864  12.561 -1.0724 -0.1821  0.4814
13397TIP3    H161606   5.280   1.943  12.557 -0.6200  0.1233  0.3314
13397TIP3    H261607   5.289   1.807  12.624 -0.2808  1.0845  2.2864
13398TIP3   OH261608   4.915   5.498   6.180 -0.0935  0.4910  0.1683
13398TIP3    H161609   4.880   5.549   6.253  0.6708  1.7889 -0.3190
13398TIP3    H261610   5.010   5.512   6.184 -0.1667  2.6016 -2.4074
13399TIP3   OH261611   4.080   1.339  15.306  0.1523  0.1832  0.2070
13399TIP3    H161612   4.044   1.362  15.221 -0.8265  2.8389  1.2075
13399TIP3    H261613   4.171   1.316  15.289 -0.4086 -0.8130 -1.6877
13400TIP3   OH261614   6.058   5.592   0.397  0.1556 -0.1231 -0.5304
13400TIP3    H161615   6.045   5.669   0.453 -0.9004  0.8743 -2.0743
13400TIP3    H261616   6.111   5.624   0.325  0.6902 -1.1543 -0.6044
13401TIP3   OH261617   1.775   6.745   1.532  0.8499  0.3027 -0.3968
13401TIP3    H161618   1.749   6.757   1.624 -0.8548  0.4201 -0.8551
13401TIP3    H261619   1.733   6.819   1.487  2.0622  0.5084 -1.2100
13402TIP3   OH261620   5.702   6.461   2.216 -0.0254 -0.2542  0.4510
13402TIP3    H161621   5.669   6.537   2.167  0.4384 -0.0051  0.5099
13402TIP3    H261622   5.795   6.482   2.231 -0.0060 -0.6306  0.8608
13403TIP3   OH261623   4.454   3.271   0.084 -0.3462  0.3345  0.1672
13403TIP3    H161624   4.494   3.238   0.003 -1.1694 -1.1794  0.3397
13403TIP3    H261625   4.361   3.279   0.063 -0.6845 -0.7318  1.1352
13404TIP3   OH261626   0.416   4.666   0.342  0.6219  0.0855  0.1684
13404TIP3    H161627   0.337   4.673   0.289 -0.1291 -1.5494  1.0029
13404TIP3    H261628   0.487   4.656   0.278  0.1044  0.8955 -0.5623
13405TIP3   OH261629   4.217   3.627  14.717  0.0843  0.3979  0.4846
13405TIP3    H161630   4.140   3.626  14.660  1.1335 -1.5835 -1.0055
13405TIP3    H261631   4.285   3.581  14.667  1.9860  1.2767  2.1167
13406TIP3   OH261632   0.277   1.415   6.434  0.3191 -0.5573  0.4208
13406TIP3    H161633   0.219   1.458   6.370  0.3782 -0.1138  0.6684
13406TIP3    H261634   0.217   1.370   6.494  0.2435 -0.4163  0.4507
13407TIP3   OH261635   2.266   0.653  13.209 -0.7635 -0.1829  0.4376
13407TIP3    H161636   2.198   0.715  13.235 -0.6975  0.5585 -1.0858
13407TIP3    H261637   2.253   0.640  13.115  1.8928  0.9121 -0.1859
13408TIP3   OH261638   3.220   4.257  15.491  0.5888 -0.4276  0.2109
13408TIP3    H161639   3.312   4.283  15.492  1.3843 -2.7805  2.9270
13408TIP3    H261640   3.200   4.237  15.582 -3.6051  2.7577  0.2643
13409TIP3   OH261641   3.744   4.938   3.896  0.0315  0.2383 -0.0852
13409TIP3    H161642   3.712   5.014   3.944 -0.5055  0.2854 -0.4971
13409TIP3    H261643   3.726   4.959   3.804  2.5802  0.8949 -0.4960
13410TIP3   OH261644   4.590   6.304   1.124  0.0079 -0.0354 -0.4579
13410TIP3    H161645   4.581   6.398   1.113 -0.8120 -0.1943 -1.2344
13410TIP3    H261646   4.663   6.294   1.186 -0.0540  1.1031 -0.1805
13411TIP3   OH261647   4.319   6.446   5.014 -0.4163  0.3908  0.5662
13411TIP3    H161648   4.249   6.512   5.007 -1.1400 -0.3949  0.1162
13411TIP3    H261649   4.278   6.373   5.060  0.0849 -0.1142  0.2272
13412TIP3   OH261650   3.889   2.573   3.956 -0.3746  0.2764 -0.8388
13412TIP3    H161651   3.954   2.573   4.025  0.5659  2.3485 -1.6376
13412TIP3    H261652   3.938   2.556   3.876 -0.6052  2.4958 -1.5379
13413TIP3   OH261653   3.481   1.830   5.598 -0.7448 -0.0359 -0.7604
13413TIP3    H161654   3.414   1.895   5.574  0.4010  2.0553  1.2540
13413TIP3    H261655   3.559   1.856   5.548  0.0150  0.8697  0.8021
13414TIP3   OH261656   2.123   1.667  16.806  0.0967  0.2316  0.1730
13414TIP3    H161657   2.042   1.647  16.758 -0.1601  0.2666  0.5855
13414TIP3    H261658   2.112   1.757  16.837  0.0343  0.0388  0.7327
13415TIP3   OH261659   4.436   1.334  10.893  0.5530 -0.0442 -0.6000
13415TIP3    H161660   4.357   1.288  10.864  0.3073  0.5561 -0.9074
13415TIP3    H261661   4.495   1.265  10.923 -0.2010 -0.4781 -0.0973
13416TIP3   OH261662   2.179   0.005   4.470  0.1492  0.4936 -0.2190
13416TIP3    H161663   2.241  -0.034   4.408  0.9037 -1.6805  1.7832
13416TIP3    H261664   2.098  -0.045   4.458 -0.6768  2.0211 -1.4288
13417TIP3   OH261665   3.396   0.252   1.739 -0.0109 -0.1261 -0.1231
13417TIP3    H161666   3.432   0.176   1.785  1.1966  0.8946  0.6856
13417TIP3    H261667   3.338   0.294   1.803  2.8741  2.1882  1.1984
13418TIP3   OH261668   3.858   6.014   3.027 -0.0244  0.4612 -0.4156
13418TIP3    H161669   3.848   6.087   3.089 -1.3750 -0.4842  0.5447
13418TIP3    H261670   3.774   6.009   2.982  0.0308 -0.5259 -0.4317
13419TIP3   OH261671   5.551   6.092   3.677 -0.4978  0.3878 -0.0241
13419TIP3    H161672   5.532   6.171   3.727 -1.3867 -0.0120  0.2922
13419TIP3    H261673   5.494   6.025   3.715  1.3012 -0.8078  0.7111
13420TIP3   OH261674   1.137   0.344   4.206  0.4669  0.1681  0.2065
13420TIP3    H161675   1.140   0.271   4.144  3.1485  0.8343 -0.6130
13420TIP3    H261676   1.104   0.417   4.154  1.1872  0.3390 -0.0352
13421TIP3   OH261677   4.713   2.883  16.405 -0.1730 -0.1500  0.0100
13421TIP3    H161678   4.802   2.918  16.397  0.1318 -0.7223  0.7614
13421TIP3    H261679   4.682   2.914  16.490 -1.1158  0.9391 -0.7040
13422TIP3   OH261680   5.946   2.309   5.168  0.2825 -0.0622 -0.6752
13422TIP3    H161681   5.975   2.226   5.207  0.1516  0.2745  0.1534
13422TIP3    H261682   5.880   2.283   5.103 -0.3651 -0.5565  0.1570
13423TIP3   OH261683   5.929   4.972  16.710 -0.1236 -0.1530 -0.5155
13423TIP3    H161684   5.987   4.916  16.761  0.0216  0.9099  0.5210
13423TIP3    H261685   5.842   4.933  16.720  0.2606 -1.3421 -1.4937
13424TIP3   OH261686   1.951   4.518  11.975 -0.1074  0.3348 -0.1612
13424TIP3    H161687   1.990   4.456  11.914 -0.3929  1.1726 -1.2426
13424TIP3    H261688   1.985   4.493  12.060 -0.7486 -1.7152 -0.4535
13425TIP3   OH261689   6.421   1.676  12.441 -0.1025  0.4392 -0.5942
13425TIP3    H161690   6.397   1.633  12.359  0.5415  2.2567 -1.7994
13425TIP3    H261691   6.511   1.649  12.457 -0.6050 -0.8592  0.1944
13426TIP3   OH261692   1.878   6.671  15.513  0.6078  0.3558 -0.5160
13426TIP3    H161693   1.844   6.748  15.557 -1.4998 -0.9861  0.3734
13426TIP3    H261694   1.845   6.678  15.423 -2.1086 -0.8079  0.2705
13427TIP3   OH261695   3.065   0.377   5.561  0.2246 -0.6395  0.8401
13427TIP3    H161696   3.064   0.447   5.496  2.4401 -2.0364 -0.8633
13427TIP3    H261697   2.995   0.399   5.622 -0.7822  1.7058 -1.0182
13428TIP3   OH261698   6.552   2.901  13.237 -0.5403 -0.1414 -0.5612
13428TIP3    H161699   6.631   2.848  13.229  1.1255  2.4265 -3.0538
13428TIP3    H261700   6.502   2.882  13.158 -2.9137 -2.2297  1.2866
13429TIP3   OH261701   4.218   4.696   4.737 -0.1417 -0.3767  0.1276
13429TIP3    H161702   4.275   4.773   4.739 -1.5383  0.7144  0.2766
13429TIP3    H261703   4.151   4.718   4.672 -0.6569 -1.3970  0.2941
13430TIP3   OH261704   2.974   2.768  12.111 -0.4210 -0.4402  0.2407
13430TIP3    H161705   2.917   2.753  12.186 -1.1523  0.3362 -0.1383
13430TIP3    H261706   2.959   2.694  12.053  0.0378 -0.9684  0.7862
13431TIP3   OH261707   5.666   6.559   6.888 -0.7674 -0.8232 -0.2099
13431TIP3    H161708   5.680   6.651   6.911 -1.1670 -0.7214 -0.3564
13431TIP3    H261709   5.600   6.529   6.950 -1.8738 -0.5374 -1.1987
13432TIP3   OH261710   1.782   3.007   5.349  0.2612 -0.2097  0.3538
13432TIP3    H161711   1.686   3.009   5.350  0.2476 -0.7638  0.2730
13432TIP3    H261712   1.805   3.032   5.260  0.1968 -0.0124  0.3909
13433TIP3   OH261713   2.627   2.812   0.681 -0.1658 -0.1403  0.2815
13433TIP3    H161714   2.557   2.869   0.648  0.8572  0.9206 -0.1269
13433TIP3    H261715   2.707   2.855   0.652  0.6382 -1.8455 -0.0812
13434TIP3   OH261716   0.664   0.129  12.697  0.7017 -0.4110 -0.2567
13434TIP3    H161717   0.731   0.062  12.703  0.2750 -0.7998  0.2653
13434TIP3    H261718   0.585   0.088  12.731  0.5820  0.5428  0.6753
13435TIP3   OH261719   6.186   1.842  17.114  0.6901  0.1420  0.2865
13435TIP3    H161720   6.215   1.796  17.035  0.5333  1.5374 -0.6064
13435TIP3    H261721   6.143   1.921  17.082  1.1366  1.0390  1.7874
13436TIP3   OH261722   1.145   6.391   4.573  0.5526 -0.0550 -0.6938
13436TIP3    H161723   1.146   6.482   4.545  1.0257  0.1833  0.0832
13436TIP3    H261724   1.111   6.393   4.663 -2.5810 -0.9616 -1.7240
13437TIP3   OH261725   2.510   3.251  14.335 -0.4248 -0.1868  0.1543
13437TIP3    H161726   2.593   3.258  14.289 -1.1778 -2.7565 -1.8418
13437TIP3    H261727   2.462   3.183  14.288 -3.7460  1.2644  1.1306
13438TIP3   OH261728   0.252   4.313   0.195 -0.1926 -0.4579  0.5626
13438TIP3    H161729   0.208   4.334   0.113 -0.7696  0.6286  1.1144
13438TIP3    H261730   0.331   4.266   0.169 -1.6831 -2.5413 -0.4602
13439TIP3   OH261731   0.160   3.347  11.739  0.4142 -0.0620  0.3068
13439TIP3    H161732   0.243   3.328  11.784  0.4369  0.4338  0.4816
13439TIP3    H261733   0.156   3.282  11.669  0.1127 -1.2276  1.3519
13440TIP3   OH261734   6.503   3.775   4.604 -0.1878 -0.2350 -0.0878
13440TIP3    H161735   6.455   3.721   4.541  0.5731  0.5700 -1.4196
13440TIP3    H261736   6.450   3.774   4.683 -0.8618 -1.8157 -0.5269
13441TIP3   OH261737   3.359   4.868   3.002  0.0849  0.8455 -0.1054
13441TIP3    H161738   3.390   4.907   3.084 -0.4941 -1.0328  1.0743
13441TIP3    H261739   3.305   4.936   2.962 -1.5337  1.0854  2.2469
13442TIP3   OH261740   4.981   0.892  16.373 -0.0606  0.2621 -0.4054
13442TIP3    H161741   5.073   0.916  16.360  0.0507 -0.6051 -1.3641
13442TIP3    H261742   4.984   0.806  16.415 -0.4535  0.9694  1.1519
13443TIP3   OH261743   2.869   5.600   3.200 -0.3579 -0.5662 -1.0871
13443TIP3    H161744   2.791   5.609   3.255 -1.8867  1.1664 -3.3215
13443TIP3    H261745   2.926   5.672   3.227  0.5624 -1.8503  0.5694
13444TIP3   OH261746   0.443   5.549   1.904  0.1967  0.2001 -0.4933
13444TIP3    H161747   0.473   5.494   1.977 -0.8557  1.1065  0.6766
13444TIP3    H261748   0.523   5.574   1.857  1.5147  3.0201  2.8178
13445TIP3   OH261749   5.609   3.626  14.168  0.2097  0.2682 -0.3830
13445TIP3    H161750   5.559   3.569  14.108  1.9187 -0.8206 -0.8622
13445TIP3    H261751   5.567   3.711  14.161 -1.0781 -0.4088 -1.3609
13446TIP3   OH261752   0.353   5.682   1.337  0.2588 -0.1894  0.3362
13446TIP3    H161753   0.335   5.714   1.249  0.4156 -0.0471  0.3559
13446TIP3    H261754   0.280   5.624   1.357  0.0845 -0.0091  0.2175
13447TIP3   OH261755   0.350   1.531  16.858 -0.2707 -0.0492  0.4055
13447TIP3    H161756   0.367   1.439  16.879  2.0647 -0.5287 -2.7268
13447TIP3    H261757   0.420   1.579  16.902 -0.4576  0.0277  0.6230
13448TIP3   OH261758   6.683   5.308   2.177 -0.2556 -0.1579  0.0308
13448TIP3    H161759   6.656   5.384   2.126  0.3486 -0.0776 -0.1763
13448TIP3    H261760   6.627   5.237   2.146 -1.3883  0.3766  0.8005
13449TIP3   OH261761   5.343   3.988  14.779  0.0067 -0.1959 -0.0686
13449TIP3    H161762   5.411   4.049  14.752 -0.0565 -0.2589 -0.3747
13449TIP3    H261763   5.278   3.990  14.708 -0.0399 -0.5487 -0.0407
13450TIP3   OH261764   3.311   4.657   2.163 -0.0374 -0.1645 -0.4204
13450TIP3    H161765   3.333   4.564   2.155 -0.6948 -0.2867 -0.8649
13450TIP3    H261766   3.322   4.692   2.075  1.5581  0.4947  0.0118
13451TIP3   OH261767   3.874   3.583  14.917 -0.0124 -0.0642 -0.3554
13451TIP3    H161768   3.901   3.578  14.825 -0.5143  1.7671 -0.6402
13451TIP3    H261769   3.794   3.530  14.921 -0.2915  0.2789 -1.1197
13452TIP3   OH261770   0.555   5.551   5.401  0.2148 -0.0940 -0.5202
13452TIP3    H161771   0.462   5.536   5.380  0.1415 -1.9224  0.8242
13452TIP3    H261772   0.556   5.565   5.496  1.3557 -0.5368 -0.4576
13453TIP3   OH261773   1.839   5.530  12.060  0.5573 -0.3785 -0.0063
13453TIP3    H161774   1.889   5.611  12.074  1.9340 -1.2489  0.3316
13453TIP3    H261775   1.854   5.479  12.140 -0.6428 -0.7976 -0.0305
13454TIP3   OH261776   5.776   2.256  16.721  0.1333 -0.0858 -0.1526
13454TIP3    H161777   5.742   2.323  16.663  1.0429 -0.5255 -1.2353
13454TIP3    H261778   5.730   2.176  16.696 -3.0343  0.4971  2.9725
13455TIP3   OH261779   1.057   0.532   2.887 -0.3227  0.1647  0.2812
13455TIP3    H161780   1.094   0.481   2.815 -0.6459  2.0219 -1.2661
13455TIP3    H261781   0.964   0.541   2.866 -0.8428 -0.7978  1.9203
13456TIP3   OH261782   4.214   3.680  12.897  0.1396 -0.1513  0.0328
13456TIP3    H161783   4.169   3.601  12.866  1.7116 -0.7268 -0.8874
13456TIP3    H261784   4.277   3.648  12.961  0.1093  0.4894  0.3912
13457TIP3   OH261785   1.173   2.718   0.812 -0.2451 -0.0529 -0.0295
13457TIP3    H161786   1.257   2.765   0.814 -0.0458 -0.4152  0.0998
13457TIP3    H261787   1.151   2.715   0.719 -0.4507  0.6343 -0.0096
13458TIP3   OH261788   0.322   5.994  13.859  0.7313 -0.3541  0.1745
13458TIP3    H161789   0.337   6.018  13.950 -2.4517  2.1703  0.2377
13458TIP3    H261790   0.382   6.050  13.809  2.2506 -1.5091  0.6573
13459TIP3   OH261791   6.697   1.254  17.233  0.4180  0.1056  0.1127
13459TIP3    H161792   6.702   1.162  17.259 -1.6486 -0.0636  0.0616
13459TIP3    H261793   6.649   1.297  17.304  1.0804  1.0870 -0.0118
13460TIP3   OH261794   2.867   5.756   0.194  0.6590  0.4126 -0.1933
13460TIP3    H161795   2.916   5.729   0.117 -0.3748 -0.0560 -0.7049
13460TIP3    H261796   2.776   5.736   0.173  0.3605  0.2195  1.1746
13461TIP3   OH261797   4.768   0.969   2.182 -0.1899  0.0131 -0.4585
13461TIP3    H161798   4.791   1.014   2.100 -0.5684 -0.4607 -0.8336
13461TIP3    H261799   4.843   0.982   2.239  0.2466  0.0095 -1.0272
13462TIP3   OH261800   5.317   4.036   0.414 -0.1177 -0.4783  0.0558
13462TIP3    H161801   5.374   4.111   0.397  0.6434 -1.3003 -1.1775
13462TIP3    H261802   5.269   4.059   0.493  0.7237  0.9429  0.1723
13463TIP3   OH261803   1.113   3.096   1.819 -0.7370  0.1060  0.1873
13463TIP3    H161804   1.094   3.096   1.725  0.9179  1.6321 -0.1994
13463TIP3    H261805   1.205   3.120   1.825 -1.3921  2.4855  2.2663
13464TIP3   OH261806   0.568   0.822  13.716  0.1381  0.0685 -0.4366
13464TIP3    H161807   0.644   0.814  13.657 -0.2619  2.0115 -1.2931
13464TIP3    H261808   0.606   0.843  13.801  0.6023  0.1575 -0.6593
13465TIP3   OH261809   5.288   5.413   4.461 -0.5936  0.8222  0.2769
13465TIP3    H161810   5.373   5.376   4.434 -0.1718  1.8785  0.1254
13465TIP3    H261811   5.248   5.443   4.380 -1.4001 -0.2122  0.2709
13466TIP3   OH261812   3.200   4.449  14.308 -0.4375 -0.4578 -0.2461
13466TIP3    H161813   3.107   4.431  14.319 -0.2100 -0.6843  1.6545
13466TIP3    H261814   3.209   4.477  14.217 -2.3817 -0.2698 -0.4097
13467TIP3   OH261815   2.507   0.786   1.076  0.0526 -0.0648 -0.6355
13467TIP3    H161816   2.525   0.714   1.136  0.4038 -1.2158 -2.0660
13467TIP3    H261817   2.412   0.792   1.073 -0.0070 -1.0209 -1.0974
13468TIP3   OH261818   1.710   2.968  17.047 -0.0782  0.3915  0.3026
13468TIP3    H161819   1.674   3.020  17.119 -1.4968  0.1532 -0.1942
13468TIP3    H261820   1.728   2.883  17.087  0.7850  0.7772  0.7595
13469TIP3   OH261821   6.426   6.522  17.196 -0.3425  0.4116 -0.2473
13469TIP3    H161822   6.470   6.443  17.228 -0.1722  1.3063  1.9089
13469TIP3    H261823   6.494   6.568  17.147  0.6931  0.8950  1.5166
13470TIP3   OH261824   4.372   5.369  11.666  0.3452  0.2422 -0.0331
13470TIP3    H161825   4.280   5.373  11.639 -0.6077 -0.7870  2.6853
13470TIP3    H261826   4.421   5.367  11.584 -1.8659  3.1448 -1.6378
13471TIP3   OH261827   3.920   5.503   1.128 -0.1342  0.0175  0.2791
13471TIP3    H161828   3.848   5.509   1.065  0.2688 -1.8947 -0.4253
13471TIP3    H261829   3.992   5.551   1.086 -0.6697  1.0851  0.5419
13472TIP3   OH261830   2.213   2.305  13.314 -0.4144 -0.1422  0.2370
13472TIP3    H161831   2.307   2.289  13.313 -0.3167  0.4050  0.5845
13472TIP3    H261832   2.183   2.268  13.397 -0.5248 -0.3899  0.0900
13473TIP3   OH261833   4.505   2.205  12.778  0.4152  0.0116  0.6088
13473TIP3    H161834   4.467   2.279  12.732  2.5473  1.0196  0.3354
13473TIP3    H261835   4.585   2.185  12.729  1.1864 -0.8288  2.1324
13474TIP3   OH261836   2.126   2.799   6.410 -0.0203  0.0648 -0.3871
13474TIP3    H161837   2.053   2.741   6.434 -0.1602  0.3875 -0.0440
13474TIP3    H261838   2.202   2.760   6.453 -0.1373  0.2105 -0.0479
13475TIP3   OH261839   2.209   0.711   5.527  0.0932 -0.0249  0.1558
13475TIP3    H161840   2.168   0.627   5.508  0.8433 -0.3843  0.0966
13475TIP3    H261841   2.147   0.755   5.586  0.0031 -0.8803  0.7162
13476TIP3   OH261842   1.131   3.420   5.011  0.4502  0.4467  0.3036
13476TIP3    H161843   1.137   3.383   4.923  1.5887  1.2113  0.0279
13476TIP3    H261844   1.192   3.494   5.009 -0.9611  1.6808  1.1409
13477TIP3   OH261845   5.400   1.435  15.966  0.2955 -0.5601  0.2654
13477TIP3    H161846   5.360   1.506  15.916  1.0019 -0.2724  0.0936
13477TIP3    H261847   5.494   1.447  15.953  0.5022 -0.4420  1.7007
13478TIP3   OH261848   5.423   4.398  14.485 -0.7675  0.0668 -0.4781
13478TIP3    H161849   5.513   4.425  14.467 -0.6164  0.2786  0.5257
13478TIP3    H261850   5.369   4.468  14.448 -0.4217  1.0965  0.8861
13479TIP3   OH261851   1.768   5.207   2.089 -0.3379 -0.4378  0.9173
13479TIP3    H161852   1.864   5.205   2.080 -0.3251 -0.4472  1.0566
13479TIP3    H261853   1.752   5.178   2.179 -0.4554 -0.0655  1.0171
13480TIP3   OH261854   4.682   0.837   6.281 -0.0756  0.0764  0.0982
13480TIP3    H161855   4.674   0.843   6.186 -0.4071 -1.2151  0.0164
13480TIP3    H261856   4.758   0.780   6.295 -2.0604 -2.6921  0.4700
13481TIP3   OH261857   2.684   1.294  13.319  0.4454 -0.1754  0.7260
13481TIP3    H161858   2.731   1.356  13.374  0.4014 -0.5508  1.1983
13481TIP3    H261859   2.625   1.347  13.266  2.4025  0.4582 -0.9185
13482TIP3   OH261860   5.565   0.223  13.514 -0.1389 -0.8849  0.1488
13482TIP3    H161861   5.599   0.281  13.446  0.0811 -0.7590  0.3629
13482TIP3    H261862   5.531   0.147  13.466 -0.8451 -0.3794 -0.1642
13483TIP3   OH261863   1.963   5.491   7.097  0.0047  0.0390 -0.7403
13483TIP3    H161864   1.976   5.449   7.013  2.3960  1.1308 -0.9955
13483TIP3    H261865   2.015   5.440   7.159 -0.0621  0.4572 -0.3287
13484TIP3   OH261866   3.363   6.562   6.039  0.8962  0.2311 -1.2347
13484TIP3    H161867   3.296   6.513   5.991 -1.1533  2.6869 -1.1339
13484TIP3    H261868   3.356   6.651   6.004  1.8346  1.3037  1.1106
13485TIP3   OH261869   0.891   6.500   5.037 -0.1269 -0.0488  0.2902
13485TIP3    H161870   0.850   6.585   5.050 -1.7832 -0.6019 -1.0642
13485TIP3    H261871   0.830   6.437   5.075  0.5728 -0.7390  0.3189
13486TIP3   OH261872   6.715   6.275  11.666  0.2884  0.0518 -0.0333
13486TIP3    H161873   6.670   6.289  11.583  1.2757 -0.7865 -0.7364
13486TIP3    H261874   6.656   6.219  11.717 -0.4230  0.7573 -0.0670
13487TIP3   OH261875   5.599   1.212  15.058 -0.1190  0.5643  1.0136
13487TIP3    H161876   5.643   1.225  14.974  2.9270  1.0685  2.5344
13487TIP3    H261877   5.508   1.192  15.035  1.1559 -2.2364 -2.4917
13488TIP3   OH261878   1.492   4.982  12.946  0.3217 -0.0999  0.2083
13488TIP3    H161879   1.538   5.066  12.955  0.9652 -0.1483 -1.9267
13488TIP3    H261880   1.403   5.006  12.920  0.4754 -0.0448 -0.2916
13489TIP3   OH261881   3.055   4.218  12.012  0.0374 -0.2675 -0.4942
13489TIP3    H161882   3.060   4.202  12.107  1.0415 -1.0284 -0.6619
13489TIP3    H261883   3.129   4.275  11.994  0.4700 -0.9648 -0.9750
13490TIP3   OH261884   0.144   2.466  10.824  0.5560 -0.1832 -0.2181
13490TIP3    H161885   0.164   2.503  10.738  1.0236 -0.9044 -0.4281
13490TIP3    H261886   0.177   2.376  10.820  2.3753  0.3354  1.3529
13491TIP3   OH261887   4.969   5.039   1.211 -0.0477  0.0662  0.1206
13491TIP3    H161888   4.898   5.089   1.173  0.5284  1.0310  0.2686
13491TIP3    H261889   5.047   5.093   1.195  0.8124 -1.4029 -0.9025
13492TIP3   OH261890   4.685   5.359  12.859 -0.0180  0.0569  0.3897
13492TIP3    H161891   4.602   5.398  12.832 -0.8777 -1.7581  0.2531
13492TIP3    H261892   4.739   5.433  12.886 -1.7493  1.2675  0.6852
13493TIP3   OH261893   1.756   1.968  15.353  0.3813 -0.2671 -0.1897
13493TIP3    H161894   1.709   1.945  15.273  0.6255  1.4554 -0.8607
13493TIP3    H261895   1.823   1.899  15.363 -0.5598 -1.2831 -0.6458
13494TIP3   OH261896   6.552   0.868   4.188  0.3517 -0.2034  0.0041
13494TIP3    H161897   6.566   0.774   4.201 -0.0714 -0.3247 -0.4227
13494TIP3    H261898   6.458   0.881   4.205 -0.0967 -0.2492 -2.2032
13495TIP3   OH261899   3.263   1.674   5.256 -0.2698 -0.1167 -0.2563
13495TIP3    H161900   3.266   1.630   5.172 -0.9358  0.9059 -0.8461
13495TIP3    H261901   3.354   1.676   5.286 -0.1059 -0.9920 -0.6731
13496TIP3   OH261902   4.787   5.148  14.443  0.2259  0.0391  0.3703
13496TIP3    H161903   4.729   5.158  14.367 -2.2643  0.7519  2.2122
13496TIP3    H261904   4.797   5.053  14.453  0.0074 -0.0766 -0.4277
13497TIP3   OH261905   0.158   3.948   4.358  0.2054  0.0844 -0.3445
13497TIP3    H161906   0.142   3.930   4.451 -0.0551  0.8889 -0.2254
13497TIP3    H261907   0.081   3.996   4.329  0.7786  0.8150 -0.6890
13498TIP3   OH261908   4.945   5.808   1.956  0.2146 -0.4261 -0.4931
13498TIP3    H161909   4.961   5.874   2.024  0.2492  0.0356 -0.9447
13498TIP3    H261910   4.923   5.729   2.005  1.3442 -0.4042  0.0809
13499TIP3   OH261911   2.021   6.199  16.849  0.6629 -0.2085  0.0244
13499TIP3    H161912   2.064   6.235  16.927  1.9080 -0.9099 -0.3133
13499TIP3    H261913   2.063   6.244  16.776  0.0642 -0.1477 -0.2890
13500TIP3   OH261914   3.116   2.509  16.090  0.3864  0.2237 -0.1153
13500TIP3    H161915   3.101   2.602  16.105  0.6552  0.2539 -0.0308
13500TIP3    H261916   3.155   2.477  16.171 -0.1231 -0.0604  0.0214
13501TIP3   OH261917   5.494   5.740  15.622  0.3185 -0.0478  0.5546
13501TIP3    H161918   5.490   5.676  15.552 -0.0347 -1.4516  1.8077
13501TIP3    H261919   5.582   5.777  15.616 -0.0270  0.5882 -1.2107
13502TIP3   OH261920   0.311   6.654   5.573 -0.1320 -0.3540  0.4540
13502TIP3    H161921   0.399   6.670   5.608  0.2204 -2.9088  0.9036
13502TIP3    H261922   0.252   6.694   5.637  0.6485  1.8865 -0.1318
13503TIP3   OH261923   0.208   6.045  17.243  0.5013 -0.0491 -0.7333
13503TIP3    H161924   0.280   6.096  17.280 -0.6872  0.2665  1.3315
13503TIP3    H261925   0.242   5.956  17.238  0.9343  0.0156  0.6055
13504TIP3   OH261926   2.780   0.577   0.184 -0.7423  0.3512  0.0915
13504TIP3    H161927   2.854   0.558   0.126 -1.5275 -3.0070  0.0024
13504TIP3    H261928   2.811   0.650   0.238  1.2361  1.4454 -2.3075
13505TIP3   OH261929   0.911   1.998  16.504  0.2136  0.5698  0.6046
13505TIP3    H161930   0.896   1.905  16.520 -1.7387  0.7814  0.1457
13505TIP3    H261931   0.957   2.001  16.420 -1.0005  0.0573 -0.1016
13506TIP3   OH261932   0.844   6.290  13.395  0.1476 -0.1956 -0.5604
13506TIP3    H161933   0.833   6.255  13.307 -0.7101  0.0192 -0.5463
13506TIP3    H261934   0.910   6.358  13.386  1.0175 -1.0522 -0.7937
13507TIP3   OH261935   6.439   6.269   2.484  0.9629  0.0109 -0.3333
13507TIP3    H161936   6.416   6.240   2.396  0.5863  0.1071 -0.2705
13507TIP3    H261937   6.373   6.336   2.505  0.2931 -0.8855  0.5044
13508TIP3   OH261938   4.545   6.097  14.285  0.4114 -0.5204 -0.6691
13508TIP3    H161939   4.627   6.052  14.261  1.4064  1.0565 -0.3654
13508TIP3    H261940   4.497   6.105  14.202  1.5563  0.4479 -1.2645
13509TIP3   OH261941   3.873   4.200  13.442 -0.1916  0.2758  0.0063
13509TIP3    H161942   3.866   4.263  13.515  2.1895  0.2529  0.3513
13509TIP3    H261943   3.874   4.255  13.364 -3.9033  0.2451 -0.2289
13510TIP3   OH261944   5.049   0.408   1.769 -0.2871  0.0349 -0.3162
13510TIP3    H161945   4.989   0.479   1.791 -1.7869 -1.0586 -0.7853
13510TIP3    H261946   4.995   0.329   1.768  1.3847 -1.1837  0.4395
13511TIP3   OH261947   3.480   4.574   1.473  0.5507  0.4433  0.3937
13511TIP3    H161948   3.445   4.492   1.506 -0.2782 -0.0741 -1.6049
13511TIP3    H261949   3.406   4.615   1.428  1.4782  1.2847 -0.4211
13512TIP3   OH261950   3.890   0.208  12.898  0.1987 -0.0942 -0.3999
13512TIP3    H161951   3.853   0.161  12.972 -0.8537 -0.2965 -1.0203
13512TIP3    H261952   3.903   0.297  12.930 -3.8902  0.9054 -0.9567
13513TIP3   OH261953   4.193   4.216   4.053  0.4394  0.3659 -0.4405
13513TIP3    H161954   4.263   4.272   4.018  0.5068  1.4522  1.3025
13513TIP3    H261955   4.121   4.276   4.070  0.5898  0.0111  1.6964
13514TIP3   OH261956   4.146   4.453  15.825 -0.3966  0.0242  0.2357
13514TIP3    H161957   4.079   4.518  15.847 -0.3420  0.2184 -0.1593
13514TIP3    H261958   4.148   4.394  15.901 -1.5474 -0.4320 -0.0588
13515TIP3   OH261959   0.259   2.616   5.424  0.0138 -0.5358 -0.1359
13515TIP3    H161960   0.316   2.540   5.410  1.4452  0.2565  1.0710
13515TIP3    H261961   0.218   2.600   5.509 -0.3341 -0.3514 -0.2696
13516TIP3   OH261962   1.015   2.520   3.254 -0.0209 -0.0621 -0.0475
13516TIP3    H161963   0.982   2.470   3.179 -0.1556 -0.4960  0.3015
13516TIP3    H261964   1.017   2.610   3.223 -1.4493 -0.0266 -0.1091
13517TIP3   OH261965   1.827   0.669  16.470 -0.1702  0.5750 -0.3871
13517TIP3    H161966   1.883   0.596  16.443 -2.5751 -1.4718 -0.2182
13517TIP3    H261967   1.812   0.718  16.389 -0.9400 -0.9009 -1.1837
13518TIP3   OH261968   4.940   3.294  15.205 -0.0237  0.0207 -0.0099
13518TIP3    H161969   5.029   3.328  15.201 -0.8570  2.3279 -0.8567
13518TIP3    H261970   4.889   3.355  15.152 -1.7384 -2.5435 -1.5600
13519TIP3   OH261971   0.247   6.491  16.201  0.2160  0.0245  0.3244
13519TIP3    H161972   0.204   6.447  16.275  1.8696 -1.5023  0.4464
13519TIP3    H261973   0.305   6.555  16.242  2.2457 -1.8263  0.5288
13520TIP3   OH261974   4.422   6.036   6.040  0.0081  0.2671  0.1058
13520TIP3    H161975   4.332   6.066   6.047  0.4544  1.5701  0.5112
13520TIP3    H261976   4.431   5.970   6.109 -0.3051  0.9762  0.8305
13521TIP3   OH261977   4.614   1.311  11.561 -0.6093  0.2997  0.3883
13521TIP3    H161978   4.557   1.240  11.531 -0.4667  1.0192 -1.7473
13521TIP3    H261979   4.691   1.267  11.596  0.1137 -0.6639 -2.1977
13522TIP3   OH261980   3.477   5.062   1.673 -0.6098 -0.7105  0.2790
13522TIP3    H161981   3.502   5.046   1.764 -0.6456  1.2673  0.6877
13522TIP3    H261982   3.547   5.116   1.637 -0.8355 -1.0566 -0.7267
13523TIP3   OH261983   2.048   5.274   2.133 -0.4399 -0.8526 -0.2048
13523TIP3    H161984   2.141   5.260   2.149  0.3151  0.0348 -3.1974
13523TIP3    H261985   2.031   5.363   2.164  0.7906  0.5429 -3.1673
13524TIP3   OH261986   4.088   2.378  14.147  0.5708  0.7622  0.4011
13524TIP3    H161987   4.009   2.397  14.198  1.0912  0.9925  1.1421
13524TIP3    H261988   4.092   2.282  14.143  1.4826  0.6714  2.3837
13525TIP3   OH261989   0.488   4.873   3.662  0.5631 -0.0481 -0.3214
13525TIP3    H161990   0.440   4.911   3.736  0.7593 -1.6197  0.6735
13525TIP3    H261991   0.422   4.821   3.615  0.9103 -0.8606  0.0741
13526TIP3   OH261992   0.750   6.390  16.357  0.5228  0.2017 -0.4437
13526TIP3    H161993   0.678   6.426  16.408  0.7077  0.0153 -0.0471
13526TIP3    H261994   0.708   6.339  16.288  0.2660 -0.7498  0.3823
13527TIP3   OH261995   2.297   4.421   1.793  0.1485 -0.1891  0.5445
13527TIP3    H161996   2.257   4.437   1.878  0.6805 -2.9703  1.4118
13527TIP3    H261997   2.245   4.351   1.755  1.0636 -0.2745 -0.6182
13528TIP3   OH261998   2.386   5.496   5.062  0.3846  0.4599  0.0290
13528TIP3    H161999   2.430   5.575   5.029  2.1247 -0.4149  0.1334
13528TIP3    H262000   2.428   5.479   5.146 -0.9450  0.1799  0.6555
13529TIP3   OH262001   1.918   5.286   0.976 -0.2352  0.1581 -0.1131
13529TIP3    H162002   1.998   5.254   0.933  0.2124  0.2826  0.6078
13529TIP3    H262003   1.889   5.212   1.030 -0.0736  0.4249  0.3475
13530TIP3   OH262004   6.507   6.741   6.310  0.6229  0.2046 -0.3648
13530TIP3    H162005   6.587   6.747   6.258  0.9024  0.1710  0.0560
13530TIP3    H262006   6.527   6.789   6.391  0.4751 -0.4456  0.0638
13531TIP3   OH262007   2.712   6.592   4.784 -0.2148 -0.4379  0.0332
13531TIP3    H162008   2.669   6.674   4.810  1.5531 -0.1261  2.2126
13531TIP3    H262009   2.751   6.559   4.864  0.0054 -2.9179 -1.0290
13532TIP3   OH262010   2.367   2.887  11.409 -0.1184  0.1909  0.5234
13532TIP3    H162011   2.387   2.909  11.318  1.6583 -0.3704  0.7370
13532TIP3    H262012   2.273   2.866  11.409  0.2539 -1.9418 -1.6315
13533TIP3   OH262013   5.082   6.278   1.222  0.5395 -0.0764 -0.4663
13533TIP3    H162014   5.017   6.346   1.241 -0.3331 -0.7711 -0.8710
13533TIP3    H262015   5.103   6.290   1.129 -0.0025 -0.6533 -0.6760
13534TIP3   OH262016   6.015   2.555   1.395 -0.1773  0.1370 -0.2397
13534TIP3    H162017   5.937   2.533   1.446 -0.2559  1.5795  0.3122
13534TIP3    H262018   6.071   2.477   1.401 -0.9379 -0.3577  0.5986
13535TIP3   OH262019   6.600   1.054  12.599 -0.2047 -0.9714  0.0069
13535TIP3    H162020   6.653   1.056  12.520 -0.0324  0.8893  0.1338
13535TIP3    H262021   6.561   0.966  12.600  0.4472 -1.3059 -1.6822
13536TIP3   OH262022   2.800   4.703  14.714  0.3810 -0.2386 -0.4494
13536TIP3    H162023   2.717   4.659  14.729  0.2504 -0.1249 -0.8300
13536TIP3    H262024   2.807   4.767  14.786 -0.6754  0.9438 -1.3560
13537TIP3   OH262025   4.102   1.409   3.537 -0.2081  0.4509  0.1919
13537TIP3    H162026   4.066   1.431   3.623  0.4642 -0.0143  0.6007
13537TIP3    H262027   4.081   1.485   3.482 -2.5867 -0.1457  0.1618
13538TIP3   OH262028   3.051   1.414   2.668  0.3137 -0.3273 -0.1451
13538TIP3    H162029   2.970   1.436   2.623  0.6878 -0.4018 -0.8727
13538TIP3    H262030   3.118   1.415   2.600  0.9884  0.0718  0.4952
13539TIP3   OH262031   2.330   5.295  15.884  0.3314  0.2233 -0.6508
13539TIP3    H162032   2.355   5.387  15.891  0.5447  0.0516  1.2297
13539TIP3    H262033   2.305   5.284  15.792  0.1223  2.1900 -0.8643
13540TIP3   OH262034   6.445   4.669  13.444 -0.0762  0.3083  0.2424
13540TIP3    H162035   6.410   4.613  13.513  0.2832  1.3005  1.2642
13540TIP3    H262036   6.528   4.702  13.480 -1.1469  2.9690  0.5016
13541TIP3   OH262037   1.882   0.285  13.218  0.4072 -0.0202  0.2337
13541TIP3    H162038   1.881   0.268  13.124 -0.1152  2.1430 -0.2081
13541TIP3    H262039   1.791   0.279  13.245  0.5998 -1.0473  0.7217
13542TIP3   OH262040   3.634   2.313   5.054 -0.2387 -0.3577 -0.2566
13542TIP3    H162041   3.687   2.310   5.133  0.6008  0.1232 -0.7802
13542TIP3    H262042   3.558   2.367   5.077 -0.1344 -0.4451  0.2930
13543TIP3   OH262043   4.983   1.740  15.033  0.9668  0.1317 -0.2400
13543TIP3    H162044   5.020   1.816  14.987  1.5109  0.5511  0.8548
13543TIP3    H262045   4.902   1.773  15.072  0.4614 -0.2472 -0.9445
13544TIP3   OH262046   3.388   0.358  14.680  0.2367 -0.0090  0.3410
13544TIP3    H162047   3.472   0.354  14.635  0.6691 -0.0873  1.1307
13544TIP3    H262048   3.399   0.427  14.745  0.3844 -1.3288  1.7806
13545TIP3   OH262049   3.537   5.939  13.139 -0.3981  0.1140 -0.2831
13545TIP3    H162050   3.516   5.990  13.061 -4.1006  0.2887  0.6277
13545TIP3    H262051   3.454   5.899  13.164  1.1129 -1.6540  2.3827
13546TIP3   OH262052   5.005   2.752  14.474  0.1138 -0.1090 -0.0018
13546TIP3    H162053   4.966   2.817  14.415  1.3044 -0.0160 -0.7145
13546TIP3    H262054   5.023   2.676  14.419 -3.0635 -1.9242  1.1860
13547TIP3   OH262055   1.652   4.622   1.886 -0.4415  0.3166 -0.2389
13547TIP3    H162056   1.593   4.666   1.824  0.4143  0.4260 -1.0044
13547TIP3    H262057   1.609   4.538   1.905 -0.7449  0.3052 -0.9473
13548TIP3   OH262058   4.434   6.726   2.736  0.3043 -0.5780  0.1226
13548TIP3    H162059   4.344   6.745   2.760  0.2264 -1.3291  0.4828
13548TIP3    H262060   4.485   6.795   2.777 -0.0818 -0.3335  0.1910
13549TIP3   OH262061   0.906   3.303   5.972  0.0717 -0.4424 -0.1452
13549TIP3    H162062   0.919   3.214   5.938  0.4731 -0.7375  0.7371
13549TIP3    H262063   0.889   3.289   6.066 -1.2987  0.3099 -0.2529
13550TIP3   OH262064   5.722   6.697   3.725 -0.3056 -0.5278 -0.3698
13550TIP3    H162065   5.695   6.758   3.655  0.4978 -1.2876 -1.3785
13550TIP3    H262066   5.694   6.740   3.806 -0.5930  0.7458 -1.1078
13551TIP3   OH262067   6.072   3.416   0.684  0.5642 -0.0073 -0.8397
13551TIP3    H162068   6.045   3.393   0.772  2.8282  1.6888  0.4262
13551TIP3    H262069   5.994   3.403   0.630 -0.9412 -0.9271  1.4219
13552TIP3   OH262070   2.077   5.030   5.381 -0.7185  0.4132 -0.3027
13552TIP3    H162071   2.155   5.082   5.400 -0.2403 -0.6316  0.7655
13552TIP3    H262072   2.104   4.939   5.400 -1.9441 -0.0535 -0.7219
13553TIP3   OH262073   6.385   6.402  15.854 -0.7261 -0.6150 -0.4345
13553TIP3    H162074   6.445   6.356  15.913 -2.0636 -1.0733  0.6006
13553TIP3    H262075   6.403   6.364  15.768 -1.1526 -2.4676  0.2536
13554TIP3   OH262076   1.737   0.985  13.056 -0.1858  0.4691  0.0872
13554TIP3    H162077   1.657   0.989  13.003 -0.0883 -0.5934 -0.1624
13554TIP3    H262078   1.724   0.908  13.111  1.1577 -0.4245 -0.7875
13555TIP3   OH262079   1.540   6.280   0.574 -0.1586  0.4379 -0.2720
13555TIP3    H162080   1.467   6.339   0.555  1.1874  1.5829 -2.3178
13555TIP3    H262081   1.553   6.232   0.493  2.0808  1.1297 -0.3797
13556TIP3   OH262082   2.634   0.930   1.527 -0.7527 -0.0364 -0.1445
13556TIP3    H162083   2.682   0.850   1.550  1.3399  0.8868 -1.0706
13556TIP3    H262084   2.567   0.938   1.595  1.4834 -0.4792  2.2335
13557TIP3   OH262085   4.823   5.817  15.146  0.0099 -0.1387 -0.1364
13557TIP3    H162086   4.754   5.812  15.080 -0.9422  1.1121  0.7335
13557TIP3    H262087   4.804   5.896  15.196  2.5898  0.7762 -0.4100
13558TIP3   OH262088   1.816   6.253   4.859  0.1916  0.2841  0.3312
13558TIP3    H162089   1.890   6.310   4.837  0.2389  0.1274  0.0841
13558TIP3    H262090   1.818   6.184   4.793 -1.4511  1.4262 -1.0071
13559TIP3   OH262091   5.410   0.038  13.291  0.1887 -0.5307  0.5988
13559TIP3    H162092   5.386   0.127  13.266  1.0603 -0.3543  0.3413
13559TIP3    H262093   5.418  -0.009  13.208  0.8547 -0.5387  0.6551
13560TIP3   OH262094   0.009   4.992   0.807  0.0179  0.0902  0.5515
13560TIP3    H162095   0.083   4.932   0.805 -0.2810 -0.2864 -0.5061
13560TIP3    H262096   0.045   5.077   0.781  0.5211  0.5020  2.4589
13561TIP3   OH262097   0.390   4.835  12.174 -0.1308  0.2566 -0.4072
13561TIP3    H162098   0.400   4.883  12.092 -2.7186 -0.7032 -1.4307
13561TIP3    H262099   0.407   4.744  12.150 -1.6853 -0.1431 -0.1509
13562TIP3   OH262100   0.376   4.573  11.250 -0.3530 -0.1960  0.0374
13562TIP3    H162101   0.391   4.482  11.224 -0.6991 -0.4017  0.5400
13562TIP3    H262102   0.450   4.594  11.308 -0.7814 -0.4790  0.7018
13563TIP3   OH262103   2.498   0.620   6.218  0.3963  0.3743 -0.5096
13563TIP3    H162104   2.458   0.707   6.208 -2.6609 -0.8938 -0.4104
13563TIP3    H262105   2.495   0.603   6.312  0.5945 -0.0226 -0.5749
13564TIP3   OH262106   0.428   3.816  17.017  0.3353  0.0488 -0.5277
13564TIP3    H162107   0.396   3.829  16.928  1.4489 -0.7463 -1.0824
13564TIP3    H262108   0.505   3.759  17.006  0.5476  0.0163  0.9322
13565TIP3   OH262109   6.157   5.627  15.032  0.3925 -0.5632 -0.6025
13565TIP3    H162110   6.081   5.680  15.009 -0.1790 -1.0193  0.1728
13565TIP3    H262111   6.146   5.546  14.984 -0.4630 -1.2581  0.6960
13566TIP3   OH262112   5.328   0.405   1.937 -0.4782  0.7150 -0.0182
13566TIP3    H162113   5.241   0.390   1.900 -0.5244  3.1860 -1.0740
13566TIP3    H262114   5.316   0.476   2.000  0.7240  0.8574  0.0662
13567TIP3   OH262115   0.610   6.695  15.681  0.2055 -0.2254  0.1313
13567TIP3    H162116   0.680   6.731  15.626  0.3952 -2.2762 -1.0571
13567TIP3    H262117   0.584   6.768  15.737  0.2986  1.8609 -2.3617
13568TIP3   OH262118   6.556   5.387  14.143 -0.1251 -0.2358 -0.1910
13568TIP3    H162119   6.474   5.338  14.150  0.2631 -0.8359  0.1698
13568TIP3    H262120   6.553   5.449  14.216 -0.2439 -0.2658 -0.1696
13569TIP3   OH262121   2.180   3.352  15.657 -0.1115 -0.0443  0.3076
13569TIP3    H162122   2.264   3.397  15.661 -1.4391  3.1136 -2.6664
13569TIP3    H262123   2.152   3.345  15.748  1.3700  2.9402  1.1037
13570TIP3   OH262124   4.280   4.861   1.888  0.6147 -0.0689  0.2857
13570TIP3    H162125   4.214   4.805   1.846  1.2098  0.2012 -1.0612
13570TIP3    H262126   4.266   4.947   1.849  0.6178  0.4071  1.3111
13571TIP3   OH262127   1.023   1.093   5.733 -0.6019  0.6408 -0.3093
13571TIP3    H162128   1.117   1.111   5.742 -0.4969 -0.3164  0.7190
13571TIP3    H262129   0.985   1.126   5.814 -1.2759  1.6666 -1.0239
13572TIP3   OH262130   3.515   2.972   4.904 -0.2011  0.2627  0.0862
13572TIP3    H162131   3.589   2.987   4.845  0.2682 -0.4674  0.4716
13572TIP3    H262132   3.495   2.879   4.893 -0.6185  0.3019  0.4937
13573TIP3   OH262133   5.837   0.226   2.567 -0.3985  0.5670 -0.5269
13573TIP3    H162134   5.817   0.252   2.657 -1.0521  2.5366 -1.1804
13573TIP3    H262135   5.874   0.138   2.575 -0.1379  0.8151  1.6820
13574TIP3   OH262136   5.004   1.204  16.127  0.1676  0.5456  1.0012
13574TIP3    H162137   5.000   1.296  16.151  0.8703  0.7181  0.4736
13574TIP3    H262138   4.944   1.161  16.188 -0.0615  1.3286  1.3392
13575TIP3   OH262139   1.577   5.821  12.043 -0.4451  0.0491  0.3160
13575TIP3    H162140   1.578   5.735  12.086 -0.2616  0.7016  1.6783
13575TIP3    H262141   1.668   5.848  12.040 -0.4654  0.0291 -0.4555
13576TIP3   OH262142   0.772   3.301  12.079 -0.7480 -0.4531  0.3066
13576TIP3    H162143   0.830   3.230  12.105  2.0427  1.1290 -1.1924
13576TIP3    H262144   0.752   3.347  12.160  2.6210  0.6913  0.6090
13577TIP3   OH262145   4.779   2.637   2.921 -0.0458 -0.2424  0.0779
13577TIP3    H162146   4.744   2.721   2.891 -1.1214 -0.9698 -0.7801
13577TIP3    H262147   4.853   2.620   2.862 -0.2446 -0.2135 -0.1830
13578TIP3   OH262148   3.506   2.289   5.560  0.2702  0.2799 -0.5988
13578TIP3    H162149   3.595   2.267   5.587 -0.3285  0.1846  1.4803
13578TIP3    H262150   3.474   2.349   5.628 -1.0984  0.6772 -1.5375
13579TIP3   OH262151   1.249   4.992   6.951 -0.1224  0.5059 -0.0644
13579TIP3    H162152   1.177   4.972   7.011 -0.2818 -0.2709 -0.5040
13579TIP3    H262153   1.221   4.958   6.867  0.1721  1.4485 -0.5570
13580TIP3   OH262154   0.216   4.563   5.044 -0.3362  0.3039  0.9278
13580TIP3    H162155   0.261   4.641   5.077 -2.7378  1.7272  1.0865
13580TIP3    H262156   0.243   4.493   5.104 -0.9242  1.8079  3.0944
13581TIP3   OH262157   0.444   6.338   4.359 -0.0932 -0.3243 -0.2278
13581TIP3    H162158   0.438   6.246   4.382  0.4356 -0.1011  0.8506
13581TIP3    H262159   0.459   6.338   4.264  0.9738 -1.3906 -0.0796
13582TIP3   OH262160   1.610   5.903   4.021 -0.3759  1.0603  0.1270
13582TIP3    H162161   1.675   5.863   4.079  0.3048  2.8783  0.6858
13582TIP3    H262162   1.628   5.865   3.935  0.2182  0.1789  0.6235
13583TIP3   OH262163   3.820   2.112  17.109 -0.2139  0.5429  0.0467
13583TIP3    H162164   3.744   2.053  17.100 -0.9093  1.2395  1.1167
13583TIP3    H262165   3.892   2.054  17.136 -0.8044  0.1210  0.7544
13584TIP3   OH262166   4.182   2.782   4.063  0.3167 -0.0627  0.8179
13584TIP3    H162167   4.164   2.863   4.112 -0.4561 -1.5922  3.2494
13584TIP3    H262168   4.128   2.716   4.106  0.0382 -1.6821 -1.8405
13585TIP3   OH262169   6.143   1.272   1.016  0.5773 -0.2552 -0.4027
13585TIP3    H162170   6.050   1.251   1.003  0.2530  1.0236 -0.2613
13585TIP3    H262171   6.173   1.206   1.078  0.8038 -3.1094 -3.2925
13586TIP3   OH262172   5.063   1.561   3.680 -0.3608 -0.2361  0.7456
13586TIP3    H162173   4.969   1.578   3.671  0.0140  0.9019 -1.9190
13586TIP3    H262174   5.090   1.532   3.593  1.6500 -1.2622  1.6640
13587TIP3   OH262175   2.624   3.987   5.706 -0.0196  0.0987  0.2763
13587TIP3    H162176   2.569   4.009   5.630 -1.1639 -2.0575  0.3939
13587TIP3    H262177   2.597   3.898   5.730  3.3830 -1.0099  0.5329
13588TIP3   OH262178   1.676   0.767   1.110  0.4374  0.8619 -0.2045
13588TIP3    H162179   1.697   0.679   1.143  0.6517  1.2958  0.8770
13588TIP3    H262180   1.751   0.790   1.056 -0.1343 -0.0573 -1.4329
13589TIP3   OH262181   2.547   4.862  12.816  0.0855  0.1812 -0.0052
13589TIP3    H162182   2.615   4.869  12.883 -0.3805 -0.9783  0.6112
13589TIP3    H262183   2.548   4.770  12.791 -1.6465  0.0201  0.4299
13590TIP3   OH262184   4.353   3.896   3.088  0.1133  0.2568  0.2198
13590TIP3    H162185   4.342   3.844   3.168 -1.4032  0.5143  0.2071
13590TIP3    H262186   4.446   3.920   3.088  0.1244  0.3551  1.9550
13591TIP3   OH262187   6.227   2.108  15.827 -0.7825  1.0429 -0.1597
13591TIP3    H162188   6.280   2.186  15.810 -1.9175  1.5160 -1.7633
13591TIP3    H262189   6.138   2.135  15.803 -1.2652 -0.6283 -0.3186
13592TIP3   OH262190   5.025   5.229   0.017 -0.2253 -0.2549 -0.4233
13592TIP3    H162191   5.001   5.136   0.018  0.4090 -0.4335 -0.6367
13592TIP3    H262192   4.944   5.275   0.000 -0.5848 -0.7623 -0.1105
13593TIP3   OH262193   5.569   6.283   6.841 -0.0381 -0.3855 -0.1073
13593TIP3    H162194   5.600   6.324   6.921 -0.7659 -1.6379  0.8624
13593TIP3    H262195   5.636   6.219   6.818 -0.0626 -0.3767 -0.2063
13594TIP3   OH262196   2.258   3.068   3.334 -0.1415 -0.3708 -0.2598
13594TIP3    H162197   2.343   3.077   3.292 -0.8746 -1.7642 -2.2018
13594TIP3    H262198   2.277   3.028   3.419  1.0392 -2.2775 -1.3647
13595TIP3   OH262199   2.204   0.220   4.632  0.3266  0.2560 -0.1522
13595TIP3    H162200   2.163   0.280   4.569  0.3365  0.2010 -0.2112
13595TIP3    H262201   2.212   0.137   4.585 -0.8670 -0.1670  0.3598
13596TIP3   OH262202   5.402   6.658  15.396  0.4420  0.2715 -0.2535
13596TIP3    H162203   5.332   6.612  15.350  0.2586  0.3461 -0.0502
13596TIP3    H262204   5.415   6.608  15.476 -0.0499  0.8049  0.1674
13597TIP3   OH262205   3.728   2.000   5.488  0.1004 -0.0011  0.0117
13597TIP3    H162206   3.823   1.995   5.482  0.0663 -0.5523 -0.1415
13597TIP3    H262207   3.696   1.940   5.420 -0.3591  0.4976 -0.2234
13598TIP3   OH262208   5.817   6.052   3.032 -0.1273  0.1349 -0.1177
13598TIP3    H162209   5.874   6.122   3.065  2.0454 -0.9858 -1.2977
13598TIP3    H262210   5.820   5.985   3.101 -1.7682  0.9001  0.7609
13599TIP3   OH262211   2.647   4.811   1.765 -0.5471 -0.0883  0.3107
13599TIP3    H162212   2.715   4.785   1.702 -1.1228 -1.2873  0.1698
13599TIP3    H262213   2.696   4.835   1.844  0.0186 -2.1878  0.6492
13600TIP3   OH262214   0.199   5.333  13.966 -0.2271 -0.2249  0.2491
13600TIP3    H162215   0.242   5.280  14.034  0.7920  0.7563  0.4036
13600TIP3    H262216   0.161   5.407  14.014 -0.1598  0.0709 -0.1452
13601TIP3   OH262217   3.111   4.300   2.537  0.2892  0.7410  0.2361
13601TIP3    H162218   3.119   4.236   2.608  0.7081  0.1558 -0.3250
13601TIP3    H262219   3.018   4.318   2.530 -0.0177 -1.0159 -0.6307
13602TIP3   OH262220   6.709   5.106  16.042  0.2796 -0.6758 -0.5255
13602TIP3    H162221   6.665   5.165  16.104  0.2905 -0.5385 -0.6475
13602TIP3    H262222   6.773   5.162  15.998  0.9618 -0.9995  0.0412
13603TIP3   OH262223   3.761   2.980   4.781 -0.7631 -0.1479 -0.5682
13603TIP3    H162224   3.794   2.937   4.703 -1.9493 -2.1916 -0.0103
13603TIP3    H262225   3.788   2.924   4.854  0.5767  1.8590  0.5770
13604TIP3   OH262226   2.855   3.813  12.185  0.3283  0.0533  0.3009
13604TIP3    H162227   2.823   3.877  12.121  2.1301  0.4187 -0.2862
13604TIP3    H262228   2.917   3.861  12.239  0.0174 -0.6574  1.3148
13605TIP3   OH262229   3.310   3.433   5.376 -0.3575  0.2742 -0.3253
13605TIP3    H162230   3.361   3.400   5.302  0.4946 -0.0665  0.3968
13605TIP3    H262231   3.280   3.355   5.422  1.0736  0.4473  0.9880
13606TIP3   OH262232   0.877   3.520   2.748  0.5347 -0.1059  0.0178
13606TIP3    H162233   0.949   3.539   2.688  0.0597 -0.2025 -0.6020
13606TIP3    H262234   0.809   3.482   2.692 -1.0951  2.4972  0.0257
13607TIP3   OH262235   5.074   4.450   6.300 -0.1193  0.2098  0.0365
13607TIP3    H162236   5.014   4.377   6.317 -0.7622  0.9048  0.8369
13607TIP3    H262237   5.067   4.464   6.205 -2.1069  0.9892  0.2465
13608TIP3   OH262238   0.704   0.323   5.918  0.4794  0.5933  0.4808
13608TIP3    H162239   0.675   0.395   5.862  0.6251  0.3263  0.0495
13608TIP3    H262240   0.796   0.341   5.936  1.3533 -0.8948 -1.9697
13609TIP3   OH262241   0.944   4.047  11.198 -0.3558  0.3138 -0.7663
13609TIP3    H162242   1.001   4.106  11.149 -2.2871  1.6956 -1.5117
13609TIP3    H262243   0.918   4.097  11.275 -1.1453  0.0327 -0.8346
13610TIP3   OH262244   4.021   0.742   6.845 -0.7664 -0.3286  0.3677
13610TIP3    H162245   4.090   0.745   6.779 -0.4556 -3.5652  0.3986
13610TIP3    H262246   3.971   0.664   6.824 -4.8373  2.0453  0.1083
13611TIP3   OH262247   0.981   6.081  15.846  0.1875 -0.2334  0.0248
13611TIP3    H162248   0.931   6.057  15.768  0.6035 -2.7956  0.4393
13611TIP3    H262249   0.920   6.066  15.919  0.6081 -0.4845  0.3322
13612TIP3   OH262250   2.635   3.473  14.436  0.2642  0.2037  0.3409
13612TIP3    H162251   2.574   3.402  14.415  2.8439 -1.4582 -2.1464
13612TIP3    H262252   2.642   3.523  14.355  4.0323 -1.2527 -0.4424
13613TIP3   OH262253   5.143   0.572   3.484 -0.2288 -0.0466  0.2001
13613TIP3    H162254   5.176   0.584   3.395  0.8546  0.7877  0.6828
13613TIP3    H262255   5.048   0.573   3.475 -0.1375 -0.5032 -1.0056
13614TIP3   OH262256   0.810   4.000  16.822 -0.0571 -0.5259 -0.3269
13614TIP3    H162257   0.843   3.910  16.814  0.3101 -0.2623 -2.3563
13614TIP3    H262258   0.866   4.051  16.764  0.0285  1.1407  1.1246
13615TIP3   OH262259   4.741   1.936  12.856  0.2085  0.2130  0.1263
13615TIP3    H162260   4.692   1.982  12.924  1.0592  0.8769  0.3153
13615TIP3    H262261   4.824   1.913  12.898  0.8588  0.8739 -0.7429
13616TIP3   OH262262   0.272   4.934   3.375 -0.9560  0.2495 -0.1416
13616TIP3    H162263   0.260   5.023   3.342 -2.1155 -0.6108 -2.2666
13616TIP3    H262264   0.367   4.920   3.372 -0.8527  1.0051 -1.0701
13617TIP3   OH262265   3.689   0.689  14.449  0.4555 -0.0930 -0.4802
13617TIP3    H162266   3.606   0.721  14.413 -0.0025 -1.1447 -0.4062
13617TIP3    H262267   3.686   0.714  14.541  1.6792  2.7056 -1.0921
13618TIP3   OH262268   3.645   5.550   2.477  1.1261 -0.2148  0.1573
13618TIP3    H162269   3.706   5.561   2.403  2.0249 -2.2301  0.5466
13618TIP3    H262270   3.625   5.640   2.504  3.5543  0.5399 -0.3055
13619TIP3   OH262271   3.176   4.429   4.207  0.1460 -0.2974  0.4502
13619TIP3    H162272   3.132   4.413   4.290 -0.7883 -2.6773 -0.4173
13619TIP3    H262273   3.246   4.364   4.204  0.6196  0.2248 -0.3350
13620TIP3   OH262274   4.179   6.273  15.448 -0.2428 -0.3592  0.3741
13620TIP3    H162275   4.210   6.220  15.522 -0.0346 -1.1849 -0.2807
13620TIP3    H262276   4.250   6.335  15.432 -0.9309  0.8788  1.8262
13621TIP3   OH262277   1.103   6.537  14.913  0.4453 -0.4155  0.0064
13621TIP3    H162278   1.092   6.599  14.841 -0.3602 -1.4019 -0.7473
13621TIP3    H262279   1.122   6.592  14.989  1.8499  0.6247 -1.0352
13622TIP3   OH262280   2.187   2.176   2.182  0.1625  0.1904 -0.0148
13622TIP3    H162281   2.119   2.114   2.154 -0.4414  1.1826 -0.8423
13622TIP3    H262282   2.227   2.135   2.258  0.1076 -1.4273 -0.8145
13623TIP3   OH262283   1.960   4.335   2.499 -1.0552  0.1900  0.2799
13623TIP3    H162284   1.954   4.242   2.522  0.9388 -0.2978 -0.9826
13623TIP3    H262285   1.876   4.355   2.457 -1.1356 -1.3012 -0.3100
13624TIP3   OH262286   3.146   2.867   3.530  0.2714 -0.1348  0.6614
13624TIP3    H162287   3.128   2.815   3.452  1.5059 -1.3545  1.1647
13624TIP3    H262288   3.067   2.857   3.584 -0.3113  0.1773 -0.1113
13625TIP3   OH262289   2.372   5.017  15.931 -0.6789  0.6053  0.5670
13625TIP3    H162290   2.375   4.984  15.841  1.5061  0.5104  0.6149
13625TIP3    H262291   2.347   5.109  15.923  0.8280  0.9698 -0.2910
13626TIP3   OH262292   2.972   3.085   3.744  0.5350 -0.3917  0.4980
13626TIP3    H162293   3.050   3.049   3.700  0.9399  0.8757  0.1300
13626TIP3    H262294   2.982   3.058   3.835  2.3622  1.2335  0.8385
13627TIP3   OH262295   5.128   5.681  11.976 -0.1501 -0.5362 -0.7754
13627TIP3    H162296   5.217   5.670  11.942  0.1889  0.6754 -0.3127
13627TIP3    H262297   5.090   5.751  11.923 -0.4145 -0.2367 -0.2013
13628TIP3   OH262298   2.218   3.928  14.803 -0.3058 -0.1744 -0.1304
13628TIP3    H162299   2.130   3.916  14.838 -0.4566  0.2550 -0.3496
13628TIP3    H262300   2.251   4.006  14.847 -0.5658  0.4733 -1.0598
13629TIP3   OH262301   4.298   5.810   0.055 -0.2444 -0.0503 -0.3517
13629TIP3    H162302   4.264   5.721   0.042 -0.0304 -0.3277  0.8355
13629TIP3    H262303   4.392   5.798   0.071 -0.1394  0.4286 -0.5968
13630TIP3   OH262304   3.505   4.371  12.633  0.0055 -0.5010 -0.0323
13630TIP3    H162305   3.520   4.289  12.679  2.8496 -0.1614 -0.2132
13630TIP3    H262306   3.468   4.429  12.699 -1.4810 -1.6866  0.2495
13631TIP3   OH262307   3.461   2.487  15.276  0.2093  0.3608  0.6599
13631TIP3    H162308   3.505   2.432  15.211 -0.0294  0.3793  0.4784
13631TIP3    H262309   3.445   2.428  15.350 -2.1951 -0.5097 -0.4525
13632TIP3   OH262310   5.386   4.518  11.802 -0.1069 -0.1120  0.1146
13632TIP3    H162311   5.395   4.608  11.772 -2.1130 -0.3585 -1.4439
13632TIP3    H262312   5.458   4.506  11.864  1.9940  1.6376 -1.8024
13633TIP3   OH262313   3.755   6.610  12.310 -0.0735  0.1923 -0.4597
13633TIP3    H162314   3.769   6.674  12.241  0.5607 -0.2352 -0.7369
13633TIP3    H262315   3.697   6.655  12.373  1.3916  1.5394  0.0131
13634TIP3   OH262316   0.829   5.153   4.616 -0.0869 -0.3119 -0.2069
13634TIP3    H162317   0.839   5.193   4.529 -1.1184  1.3032  0.3796
13634TIP3    H262318   0.751   5.098   4.609  2.0406 -3.5296 -1.3996
13635TIP3   OH262319   1.349   3.953  17.009 -0.0040  0.3570  0.1438
13635TIP3    H162320   1.414   4.020  16.990  0.2858 -0.4569 -2.0027
13635TIP3    H262321   1.384   3.874  16.968 -1.8792 -0.3281 -0.2372
13636TIP3   OH262322   6.190   6.566  16.049  0.2438 -0.0678  0.1272
13636TIP3    H162323   6.258   6.512  16.089  0.6500 -0.5361 -1.1509
13636TIP3    H262324   6.237   6.642  16.014  0.0960 -0.3136 -0.6195
13637TIP3   OH262325   5.366   2.737  16.286 -0.1550  0.3691 -0.2688
13637TIP3    H162326   5.275   2.767  16.281 -0.6720 -1.0241  0.2727
13637TIP3    H262327   5.359   2.642  16.287  1.2832  0.2540  0.4108
13638TIP3   OH262328   3.957   2.078   3.560 -0.5205 -0.6503  0.1796
13638TIP3    H162329   4.013   2.084   3.637  0.7011  0.5938 -0.7554
13638TIP3    H262330   3.904   1.999   3.574  0.6446 -1.2089  1.6333
13639TIP3   OH262331   0.493   3.889   1.531 -0.9076  0.3779 -0.2531
13639TIP3    H162332   0.436   3.905   1.456 -0.3137 -0.7318 -0.9676
13639TIP3    H262333   0.571   3.846   1.494  1.5695  3.9394  0.2860
13640TIP3   OH262334   0.324   1.636  13.322  0.1568  0.1130 -0.0131
13640TIP3    H162335   0.342   1.560  13.377  1.5094  1.5417  1.6518
13640TIP3    H262336   0.406   1.650  13.275 -0.4537 -0.1005 -1.1712
13641TIP3   OH262337   5.586   6.538   5.317 -0.9793 -0.1045 -0.3356
13641TIP3    H162338   5.623   6.465   5.368  1.2939  0.8443 -0.4885
13641TIP3    H262339   5.619   6.525   5.229  1.1050  2.0648  0.0282
13642TIP3   OH262340   3.689   2.833  10.419 -0.6576 -0.0123 -0.1507
13642TIP3    H162341   3.778   2.815  10.449 -0.7498  0.4146  0.4035
13642TIP3    H262342   3.684   2.929  10.416 -1.0166 -0.0382 -0.4330
13643TIP3   OH262343   2.216   1.467  12.315 -0.8204 -0.4863 -0.5112
13643TIP3    H162344   2.125   1.486  12.338 -0.9047 -0.0778 -1.1452
13643TIP3    H262345   2.262   1.549  12.334 -0.9009 -0.1227 -1.7804
13644TIP3   OH262346   4.388   4.872  16.134 -0.3430  0.0735 -0.0027
13644TIP3    H162347   4.434   4.938  16.186 -0.0740  0.2073 -0.4074
13644TIP3    H262348   4.440   4.862  16.055  0.0836 -1.2493  0.4166
13645TIP3   OH262349   6.131   3.730  16.242  0.0630  0.1270  0.3849
13645TIP3    H162350   6.140   3.751  16.149 -1.8622  3.4929  0.8162
13645TIP3    H262351   6.218   3.748  16.279  0.4117  0.2943 -0.4925
13646TIP3   OH262352   5.527   5.123  16.656  0.4314 -0.1192  0.1744
13646TIP3    H162353   5.523   5.054  16.723 -1.9481  0.6837  0.9784
13646TIP3    H262354   5.567   5.197  16.701  0.0800 -0.0051  0.3037
13647TIP3   OH262355   4.139   5.755   0.541  0.0238 -0.1551  0.1693
13647TIP3    H162356   4.177   5.780   0.625 -0.0224 -1.4983  0.6285
13647TIP3    H262357   4.210   5.766   0.478  0.7964 -1.3541  0.7919
13648TIP3   OH262358   2.264   2.609   4.970  0.0240  0.1009  0.1483
13648TIP3    H162359   2.279   2.546   4.899 -1.4230 -1.4913  1.1737
13648TIP3    H262360   2.286   2.562   5.050 -0.1380  1.2336  0.8828
13649TIP3   OH262361   6.612   5.695  11.256  0.1384 -0.2281  0.1611
13649TIP3    H162362   6.576   5.614  11.219  2.5310 -1.2598 -0.1376
13649TIP3    H262363   6.690   5.712  11.203 -1.5716  3.7830 -1.4846
13650TIP3   OH262364   5.149   3.375   3.469  0.0336 -0.2760 -0.2766
13650TIP3    H162365   5.210   3.313   3.511  0.2068  1.1321  1.6725
13650TIP3    H262366   5.074   3.321   3.445  0.3291 -1.3286  1.0205
13651TIP3   OH262367   6.486   5.597  12.927  0.4596  0.1502  0.9660
13651TIP3    H162368   6.427   5.548  12.870  0.8876  0.2901  0.3968
13651TIP3    H262369   6.574   5.572  12.898  0.7473  2.5522 -0.5366
13652TIP3   OH262370   0.149   2.815   3.970  0.0139 -0.1211  0.0299
13652TIP3    H162371   0.204   2.865   4.029  1.4599  1.1516 -2.2497
13652TIP3    H262372   0.153   2.725   4.004  0.3476  0.6153  2.0971
13653TIP3   OH262373   1.009   5.594   2.231  0.3847 -0.1280  0.6896
13653TIP3    H162374   1.010   5.639   2.316 -0.5099 -1.8186  1.6574
13653TIP3    H262375   0.949   5.521   2.244  0.1141 -0.3511 -1.4745
13654TIP3   OH262376   0.762   5.847   1.430 -1.1238  0.4491  0.1567
13654TIP3    H162377   0.677   5.808   1.449 -2.0250  1.4333 -1.6225
13654TIP3    H262378   0.741   5.932   1.392  0.6621  0.6597 -0.4282
13655TIP3   OH262379   3.234   5.510   0.633  0.4466  0.0567  0.1922
13655TIP3    H162380   3.255   5.603   0.623  0.4597 -0.0189 -0.5140
13655TIP3    H262381   3.273   5.485   0.717 -0.2652  0.8911  0.7887
13656TIP3   OH262382   6.514   0.517   5.477  0.6727 -0.1815 -0.1499
13656TIP3    H162383   6.546   0.527   5.567  1.8576  1.1052 -0.6661
13656TIP3    H262384   6.469   0.433   5.476  0.6905 -0.2393  1.6304
13657TIP3   OH262385   3.518   1.558   4.988 -0.1491  0.4346 -0.1104
13657TIP3    H162386   3.586   1.624   5.005 -0.1128  0.5089 -0.5261
13657TIP3    H262387   3.500   1.519   5.073 -0.2825  1.0915  0.1668
13658TIP3   OH262388   0.324   6.379  13.236  0.0671  0.5694  0.1392
13658TIP3    H162389   0.352   6.424  13.316  0.2655 -1.1143  1.0680
13658TIP3    H262390   0.375   6.298  13.235  0.0207  0.5272 -1.6813
13659TIP3   OH262391   4.252   2.805   2.284  0.0701  0.0795  0.0158
13659TIP3    H162392   4.271   2.725   2.236  0.3426 -0.1655  0.5234
13659TIP3    H262393   4.171   2.838   2.246 -0.3141 -0.7069  0.1456
13660TIP3   OH262394   5.162   5.840   6.292 -0.1541  0.4973  0.2768
13660TIP3    H162395   5.200   5.752   6.290  0.0516  0.5913 -0.0352
13660TIP3    H262396   5.157   5.861   6.385  0.7118  0.5382  0.3303
13661TIP3   OH262397   0.385   6.452   2.846 -0.1629  0.1311  0.2058
13661TIP3    H162398   0.353   6.382   2.901  0.8945  0.4289  1.2339
13661TIP3    H262399   0.322   6.457   2.774 -0.4738 -1.5725  0.3318
13662TIP3   OH262400   6.133   3.588   2.828 -0.1987  0.4437 -0.5784
13662TIP3    H162401   6.117   3.623   2.741  0.7392  0.1250 -0.8945
13662TIP3    H262402   6.123   3.493   2.818  0.7420  0.3287 -0.5483
13663TIP3   OH262403   0.884   0.806  14.830 -0.2865  0.4810  0.1383
13663TIP3    H162404   0.812   0.782  14.888 -0.3609  0.4289  0.0241
13663TIP3    H262405   0.963   0.786  14.881 -0.3517  1.2977  0.5786
13664TIP3   OH262406   6.392   0.320  15.240  0.1983  0.4718 -0.0227
13664TIP3    H162407   6.371   0.237  15.198  1.5399 -0.2309  0.6524
13664TIP3    H262408   6.472   0.304  15.288  0.8440  2.3317 -0.3695
13665TIP3   OH262409   2.745   1.393   3.059  0.1825  0.0263  0.2051
13665TIP3    H162410   2.672   1.334   3.045 -0.1112  0.9451 -2.6534
13665TIP3    H262411   2.715   1.454   3.127 -1.1327 -0.4707  0.0834
13666TIP3   OH262412   5.412   2.142   2.147  0.1767 -0.5505 -0.0616
13666TIP3    H162413   5.474   2.188   2.092  0.9697  1.6978  2.4795
13666TIP3    H262414   5.394   2.202   2.219 -3.6474 -1.7877  0.2722
13667TIP3   OH262415   2.569   6.653   1.089  0.3935  0.0703 -0.7465
13667TIP3    H162416   2.478   6.624   1.092  0.3188  0.3267 -0.5652
13667TIP3    H262417   2.610   6.609   1.163 -0.1688  1.9645  0.7483
13668TIP3   OH262418   2.250   2.797   1.766  0.0341 -1.0449 -0.4785
13668TIP3    H162419   2.197   2.719   1.782 -0.0400 -0.6802  1.1749
13668TIP3    H262420   2.340   2.769   1.784  0.2655 -1.2610 -1.8387
13669TIP3   OH262421   0.543   0.826  14.463 -0.2166  0.3013 -0.4658
13669TIP3    H162422   0.598   0.877  14.404 -0.7777 -0.6374 -1.8550
13669TIP3    H262423   0.518   0.749  14.412 -2.2711  0.3750  0.3502
13670TIP3   OH262424   2.040   2.688   4.806 -0.0714 -0.0950 -0.7089
13670TIP3    H162425   2.111   2.739   4.767  0.3567  0.0790  0.2627
13670TIP3    H262426   2.083   2.633   4.872 -0.6951 -0.8183 -0.8989
13671TIP3   OH262427   6.353   4.166   1.563 -0.4758  0.0082 -0.0573
13671TIP3    H162428   6.271   4.173   1.612 -0.4922 -0.4635 -0.0138
13671TIP3    H262429   6.354   4.244   1.507 -0.7301  0.2530  0.2777
13672TIP3   OH262430   0.667   6.564   0.134  0.1445 -0.3330  0.4537
13672TIP3    H162431   0.733   6.614   0.182  1.3263 -0.8347 -0.5928
13672TIP3    H262432   0.649   6.489   0.191 -0.1729  0.2539  1.1388
13673TIP3   OH262433   4.245   2.955  12.748 -0.0400  0.2636  0.6923
13673TIP3    H162434   4.169   3.011  12.732  0.8963  2.0962  2.2063
13673TIP3    H262435   4.214   2.891  12.813 -0.7720 -0.1784 -0.0782
13674TIP3   OH262436   0.466   2.154   0.447 -0.1445  0.7668 -0.1053
13674TIP3    H162437   0.398   2.214   0.419 -1.1042 -0.4474 -0.4721
13674TIP3    H262438   0.463   2.082   0.383  0.8894  0.2712  0.3719
13675TIP3   OH262439   0.391   4.147   3.323 -0.4324 -0.0813 -0.6702
13675TIP3    H162440   0.460   4.165   3.259 -0.8691  0.5960 -0.9582
13675TIP3    H262441   0.344   4.230   3.331  0.7258  0.4124  1.8979
13676TIP3   OH262442   6.234   6.348   3.959 -0.2900  0.0434 -0.2088
13676TIP3    H162443   6.175   6.410   4.002  0.7054  0.7076  0.2430
13676TIP3    H262444   6.313   6.399   3.940 -0.5442 -0.3153 -2.5303
13677TIP3   OH262445   5.495   1.035  11.366  0.1864 -0.0270 -0.1874
13677TIP3    H162446   5.425   1.088  11.328 -0.6124 -2.1330 -1.8449
13677TIP3    H262447   5.575   1.077  11.336 -0.3871  1.1318 -0.1507
13678TIP3   OH262448   1.760   0.890   0.696 -0.0592 -0.0628  0.3862
13678TIP3    H162449   1.797   0.921   0.613 -0.2813 -1.1922 -0.1479
13678TIP3    H262450   1.835   0.890   0.756  0.1294  0.6571  0.1582
13679TIP3   OH262451   4.771   3.822  11.476  0.4995 -0.3744  0.2834
13679TIP3    H162452   4.816   3.786  11.552 -0.0574 -0.0149  0.7944
13679TIP3    H262453   4.785   3.757  11.407  2.3390  0.0359  0.2290
13680TIP3   OH262454   6.645   5.567  12.569 -0.3457 -0.0536 -0.8470
13680TIP3    H162455   6.712   5.511  12.609 -0.1661  0.7671  0.0256
13680TIP3    H262456   6.658   5.556  12.475 -0.0201 -1.1262 -0.6918
13681TIP3   OH262457   3.287   5.457   1.508  0.3413 -0.0892 -0.3690
13681TIP3    H162458   3.257   5.516   1.577  0.4711 -0.5784  0.1062
13681TIP3    H262459   3.213   5.397   1.494  1.4036 -1.9574  1.5253
13682TIP3   OH262460   5.728   1.978   2.781 -0.2057  0.0394  0.1687
13682TIP3    H162461   5.788   1.911   2.813  1.8973  1.3410 -0.8232
13682TIP3    H262462   5.659   1.929   2.735  0.5479 -1.4806  0.5845
13683TIP3   OH262463   1.020   1.732   2.719 -0.5995  0.3677 -0.2107
13683TIP3    H162464   1.058   1.673   2.783 -0.6802  0.9162  0.3617
13683TIP3    H262465   1.082   1.733   2.646 -0.6868 -0.5463 -0.3067
13684TIP3   OH262466   3.975   5.011  15.926  0.2034 -0.0961  0.2244
13684TIP3    H162467   4.011   4.932  15.884 -0.8020 -0.1225 -0.6548
13684TIP3    H262468   4.047   5.047  15.977  0.5969 -1.7574  0.9032
13685TIP3   OH262469   0.689   4.358  14.905 -0.8039 -0.3053 -0.1755
13685TIP3    H162470   0.762   4.329  14.960 -1.0527  0.0918  0.3673
13685TIP3    H262471   0.675   4.286  14.844  0.0031 -0.4159 -0.2468
13686TIP3   OH262472   4.687   1.391   1.711 -0.3493  0.4638  0.2457
13686TIP3    H162473   4.705   1.323   1.776  0.9141  0.3837 -0.1638
13686TIP3    H262474   4.712   1.351   1.627 -0.1238  1.2309 -0.0627
13687TIP3   OH262475   0.780   0.989   4.969  0.3538  0.3357  0.1852
13687TIP3    H162476   0.706   1.032   4.928  0.1673 -0.7815 -0.7026
13687TIP3    H262477   0.759   0.989   5.062 -0.3706  0.7563  0.0277
13688TIP3   OH262478   6.686   5.452   0.158  0.0459 -0.4086  0.3306
13688TIP3    H162479   6.715   5.443   0.067  0.1824  0.0811  0.3260
13688TIP3    H262480   6.700   5.365   0.195 -1.0809 -0.9415 -0.4155
13689TIP3   OH262481   4.234   4.862  11.254 -0.7588 -0.5453 -0.1731
13689TIP3    H162482   4.252   4.955  11.262  2.5788 -1.1716  1.4508
13689TIP3    H262483   4.279   4.835  11.174  1.0103 -1.1995  0.9789
13690TIP3   OH262484   5.128   5.287   5.525  0.1738  0.0056  0.2759
13690TIP3    H162485   5.152   5.214   5.581  1.9307  0.8681  0.7296
13690TIP3    H262486   5.059   5.333   5.572  1.0246  0.2215  1.3558
13691TIP3   OH262487   6.140   0.698   5.492 -0.2749  0.2003  0.0720
13691TIP3    H162488   6.202   0.691   5.565  1.2646  0.0066 -1.2003
13691TIP3    H262489   6.064   0.649   5.521 -0.5185  1.7515  2.3271
13692TIP3   OH262490   3.617   1.032   1.090  0.2146 -0.2073  0.1503
13692TIP3    H162491   3.551   0.986   1.140 -0.6027 -0.6029 -1.2597
13692TIP3    H262492   3.636   0.975   1.016  1.9598  0.0155  0.3824
13693TIP3   OH262493   2.004   0.152   1.501  0.0830 -0.3665 -0.4375
13693TIP3    H162494   1.928   0.093   1.510 -0.5122  0.6150  1.5786
13693TIP3    H262495   2.072   0.098   1.461 -0.9913 -1.9101 -0.2633
13694TIP3   OH262496   0.916   5.176   3.565 -0.5450  0.5137  0.1060
13694TIP3    H162497   0.840   5.144   3.614  0.0990 -1.1256  0.0913
13694TIP3    H262498   0.969   5.222   3.631  0.2515 -1.5570  0.9931
13695TIP3   OH262499   0.571   6.244  16.235  0.1591 -0.4348 -0.2869
13695TIP3    H162500   0.571   6.160  16.189 -1.5561 -0.3322 -0.5331
13695TIP3    H262501   0.479   6.260  16.256  0.6463  0.5635  1.2844
13696TIP3   OH262502   1.087   4.490  15.973  0.5339 -0.2322 -0.2030
13696TIP3    H162503   1.159   4.428  15.965 -0.5846 -1.4587 -1.3567
13696TIP3    H262504   1.036   4.478  15.893 -0.4883  1.2067  0.1835
13697TIP3   OH262505   1.384   2.197   0.323  0.2771  0.0639 -0.2385
13697TIP3    H162506   1.368   2.134   0.253 -0.8557 -0.5440  0.5319
13697TIP3    H262507   1.372   2.283   0.281  3.2590 -0.0747 -1.6615
13698TIP3   OH262508   1.857   5.565  14.936  0.5371 -0.2958 -0.0689
13698TIP3    H162509   1.863   5.658  14.912  1.6909 -0.2974  0.1705
13698TIP3    H262510   1.846   5.520  14.852  1.5432 -0.0633 -0.3359
13699TIP3   OH262511   4.893   2.771   0.360  0.3961 -0.3161 -0.2165
13699TIP3    H162512   4.962   2.809   0.306 -0.0540 -0.7787 -1.1418
13699TIP3    H262513   4.859   2.845   0.411  2.3532 -0.3012  1.1535
13700TIP3   OH262514   0.695   4.345   0.221  0.4262 -0.4870  0.2838
13700TIP3    H162515   0.746   4.339   0.302 -0.3723 -0.8429  0.7768
13700TIP3    H262516   0.619   4.289   0.237 -0.9141  1.2158  0.1826
13701TIP3   OH262517   1.319   0.119  13.337  0.0484  0.3936  0.4358
13701TIP3    H162518   1.395   0.162  13.298 -0.3813 -0.9155 -2.0354
13701TIP3    H262519   1.324   0.029  13.305 -1.2159 -0.3754  2.2538
13702TIP3   OH262520   3.615   5.264   4.382 -0.2135 -0.1604  0.4946
13702TIP3    H162521   3.566   5.183   4.396  0.0349 -0.6172 -1.0758
13702TIP3    H262522   3.549   5.329   4.358 -0.2025 -0.4415 -0.3174
13703TIP3   OH262523   2.472   1.916  17.264 -0.1970  0.3625  0.3876
13703TIP3    H162524   2.563   1.919  17.232  0.1561 -1.5228  1.0569
13703TIP3    H262525   2.471   1.977  17.338  1.2742 -1.3626  1.9617
13704TIP3   OH262526   0.413   2.472   0.538 -0.0721  0.4136 -0.0144
13704TIP3    H162527   0.378   2.420   0.466  0.3391 -0.6641  0.5564
13704TIP3    H262528   0.413   2.562   0.504 -0.8299  0.0631 -0.9899
13705TIP3   OH262529   4.389   4.740  14.846 -0.6274 -0.4888 -0.0904
13705TIP3    H162530   4.349   4.705  14.766  0.6792 -0.0053 -0.9909
13705TIP3    H262531   4.426   4.663  14.889 -0.6747 -0.6549 -0.3428
13706TIP3   OH262532   6.658   4.632   1.544 -0.4174 -1.3179  0.3210
13706TIP3    H162533   6.625   4.563   1.487 -1.4478 -1.0296  0.5363
13706TIP3    H262534   6.583   4.691   1.555  0.0938 -0.7934  1.0747
13707TIP3   OH262535   4.878   0.508   4.688  0.1690 -0.8506  0.2363
13707TIP3    H162536   4.878   0.418   4.655 -0.6664 -1.7654  2.5014
13707TIP3    H262537   4.968   0.522   4.718  0.4721 -0.6586 -0.7235
13708TIP3   OH262538   5.748   0.246  11.869 -0.0482 -0.2019  0.4664
13708TIP3    H162539   5.794   0.232  11.951 -0.5483 -0.9049  0.6397
13708TIP3    H262540   5.756   0.340  11.852  1.9130 -0.3638  0.1957
13709TIP3   OH262541   0.557   4.714  13.998 -0.5297  0.5615 -0.1502
13709TIP3    H162542   0.539   4.624  13.971 -1.0517  1.1919 -2.0277
13709TIP3    H262543   0.600   4.705  14.084 -1.4077 -1.4134  0.1369
13710TIP3   OH262544   0.278   5.557  10.999 -0.6229  0.1224 -0.5466
13710TIP3    H162545   0.344   5.619  10.966  0.6550  0.4409  2.3090
13710TIP3    H262546   0.329   5.483  11.032 -1.9043 -0.8556 -0.6786
13711TIP3   OH262547   0.847   0.784   4.477 -1.2958 -0.5390  0.1154
13711TIP3    H162548   0.800   0.798   4.560 -3.1252 -1.6114 -0.6845
13711TIP3    H262549   0.793   0.826   4.411 -0.4168 -0.6393 -0.6954
13712TIP3   OH262550   0.197   6.371  15.681  0.0922  0.1046  0.1531
13712TIP3    H162551   0.150   6.454  15.687  1.5164  0.9104  0.7345
13712TIP3    H262552   0.196   6.336  15.770  1.3164  0.5733  0.3707
13713TIP3   OH262553   6.162   3.027  14.492 -0.1816 -0.6390  0.1684
13713TIP3    H162554   6.137   3.047  14.401  1.9816  1.5519 -0.0554
13713TIP3    H262555   6.248   2.984  14.484  1.1911  1.7353  1.1608
13714TIP3   OH262556   0.989   0.164  15.003 -0.2193 -0.4275 -0.0770
13714TIP3    H162557   1.076   0.133  14.975  0.1662  0.2052  0.4121
13714TIP3    H262558   0.954   0.092  15.055  0.2437 -0.4714  0.1816
13715TIP3   OH262559   5.173   1.533  13.328  0.2435 -0.5358 -0.2990
13715TIP3    H162560   5.133   1.620  13.319  0.2654 -0.4021  0.7943
13715TIP3    H262561   5.116   1.487  13.390  0.6145 -1.0635 -0.3492
13716TIP3   OH262562   1.395   2.118  13.995 -0.2794 -0.9823 -0.3275
13716TIP3    H162563   1.385   2.129  14.089 -1.2757 -0.3694 -0.4931
13716TIP3    H262564   1.427   2.202  13.963  0.3675 -1.2876 -0.4989
13717TIP3   OH262565   6.048   4.134  12.785 -0.6264 -0.1693  0.6108
13717TIP3    H162566   5.993   4.060  12.758 -1.0985  0.8467 -1.4266
13717TIP3    H262567   6.075   4.175  12.703  0.9091  1.0176  1.6498
13718TIP3   OH262568   5.644   6.731   2.990 -0.4612 -0.2050  0.1875
13718TIP3    H162569   5.606   6.719   3.077  1.6128  0.0241  1.2037
13718TIP3    H262570   5.725   6.680   2.993 -0.0206  0.3467 -1.3920
13719TIP3   OH262571   5.502   0.293  15.125  0.1145  0.0575 -0.0458
13719TIP3    H162572   5.537   0.354  15.190  1.7580 -0.2417 -0.6173
13719TIP3    H262573   5.485   0.213  15.175 -1.7815  0.8405  0.6484
13720TIP3   OH262574   3.882   3.493  13.477  0.6709  0.2832  0.1504
13720TIP3    H162575   3.846   3.577  13.449  0.6906  0.2110 -0.0963
13720TIP3    H262576   3.975   3.510  13.492  0.6783  0.3013  0.0834
13721TIP3   OH262577   0.613   4.495   4.495 -0.2397 -0.1461  0.2378
13721TIP3    H162578   0.623   4.546   4.415 -0.3804  0.8485  0.8435
13721TIP3    H262579   0.561   4.419   4.468 -0.9604  0.5742 -0.4547
13722TIP3   OH262580   4.203   2.334   2.624  0.1337 -0.0737 -0.3209
13722TIP3    H162581   4.212   2.272   2.697  0.8375  1.0811  0.6228
13722TIP3    H262582   4.136   2.296   2.568 -0.7181 -0.8148  1.1435
13723TIP3   OH262583   0.617   1.001  16.132 -0.3464  0.1734  0.1867
13723TIP3    H162584   0.618   1.029  16.041  1.4446  1.1596  0.4562
13723TIP3    H262585   0.645   0.909  16.129 -1.0676 -0.0329 -0.3088
13724TIP3   OH262586   2.265   6.689   0.890 -0.0335 -0.0777 -0.6978
13724TIP3    H162587   2.321   6.744   0.944  0.5025 -1.9126  0.7316
13724TIP3    H262588   2.325   6.639   0.835 -0.4808  0.2264 -1.4978
13725TIP3   OH262589   1.264   5.570  16.121 -0.0514 -0.2009 -0.2477
13725TIP3    H162590   1.261   5.541  16.030 -0.2580  1.6358 -0.8690
13725TIP3    H262591   1.264   5.489  16.172  0.2041 -1.2759 -1.8698
13726TIP3   OH262592   3.639   4.969  13.179  0.2238 -0.1221 -0.3728
13726TIP3    H162593   3.629   5.045  13.236 -0.0585 -0.2314 -0.2728
13726TIP3    H262594   3.679   4.903  13.235 -0.5262 -0.3974 -0.1513
13727TIP3   OH262595   3.164   6.464   3.922  0.0954  0.2762  0.0294
13727TIP3    H162596   3.113   6.407   3.979 -0.9651  1.3763  0.2225
13727TIP3    H262597   3.195   6.407   3.852  1.8791 -1.2329  1.9172
13728TIP3   OH262598   6.709   2.975   4.251 -0.4386 -0.2008  0.0200
13728TIP3    H162599   6.722   2.880   4.253 -1.8311 -0.4411 -0.7125
13728TIP3    H262600   6.749   3.006   4.332  2.4951 -1.0330 -0.9863
13729TIP3   OH262601   0.365   5.159  15.012  0.0627 -0.1700 -0.3310
13729TIP3    H162602   0.454   5.138  15.041  1.1254  2.1267 -1.6409
13729TIP3    H262603   0.350   5.101  14.938  0.5659 -0.4350 -0.2308
13730TIP3   OH262604   4.998   6.475   1.047 -0.0064  0.4174 -0.0608
13730TIP3    H162605   5.054   6.427   0.987 -0.1383  1.1587 -0.7991
13730TIP3    H262606   5.022   6.567   1.035  1.0907  0.4835  2.2003
13731TIP3   OH262607   1.709   4.854  10.770  0.8968  0.1283  0.3954
13731TIP3    H162608   1.757   4.933  10.744  0.0160  0.8825  1.0225
13731TIP3    H262609   1.760   4.783  10.732  1.2031  1.0320 -0.9859
13732TIP3   OH262610   3.631   2.405   2.748 -0.1547  0.2194  0.2329
13732TIP3    H162611   3.618   2.314   2.773  1.3683  0.4005  1.8872
13732TIP3    H262612   3.553   2.450   2.778 -1.0789 -0.5619 -0.9197
13733TIP3   OH262613   1.430   5.878  12.896 -0.4253  0.1024 -0.0720
13733TIP3    H162614   1.378   5.840  12.966 -0.2936 -1.4999 -0.8006
13733TIP3    H262615   1.375   5.872  12.818 -0.1120  0.7341 -0.3512
13734TIP3   OH262616   3.222   4.032  12.162 -1.0070  0.4546  0.3562
13734TIP3    H162617   3.187   4.108  12.207 -0.2026  0.1926  1.4807
13734TIP3    H262618   3.201   3.958  12.219 -0.3182  0.0598  0.1121
13735TIP3   OH262619   2.758   2.227   2.672 -0.0487  0.1988  0.3798
13735TIP3    H162620   2.832   2.245   2.614 -0.3957 -1.6605 -0.7127
13735TIP3    H262621   2.793   2.242   2.760  0.8646  1.7944 -0.1997
13736TIP3   OH262622   6.371   5.358   2.325  0.5155 -0.3231  0.3088
13736TIP3    H162623   6.434   5.407   2.378  0.6740 -0.1223 -0.0592
13736TIP3    H262624   6.299   5.338   2.384  0.8268 -0.3641  0.6767
13737TIP3   OH262625   6.207   5.053   0.905  0.6262 -0.4399 -0.2291
13737TIP3    H162626   6.253   5.083   0.827 -0.0929  0.4436 -0.3279
13737TIP3    H262627   6.125   5.015   0.872 -0.3027  1.1312  0.1357
13738TIP3   OH262628   0.537   5.863   0.322 -0.2637 -0.3991 -0.2671
13738TIP3    H162629   0.460   5.920   0.322  0.2280  0.3280  1.3423
13738TIP3    H262630   0.596   5.904   0.259 -0.7239 -0.2987 -0.6449
13739TIP3   OH262631   3.781   3.999   2.781 -0.3761  0.3532  0.5549
13739TIP3    H162632   3.729   4.044   2.848 -0.0268  1.9410 -0.1873
13739TIP3    H262633   3.767   4.050   2.702  1.5568  0.2764  0.1158
13740TIP3   OH262634   4.490   5.546  13.253 -0.1884 -0.8020 -0.5911
13740TIP3    H162635   4.571   5.557  13.303  0.5827  1.8650 -2.2357
13740TIP3    H262636   4.490   5.619  13.191 -4.1547 -0.2888 -0.2554
13741TIP3   OH262637   0.603   5.332   4.462  0.4490  0.4235 -0.3482
13741TIP3    H162638   0.694   5.347   4.434  0.2127  3.3539  0.1864
13741TIP3    H262639   0.557   5.412   4.439 -1.6804 -0.3963  0.7774
13742TIP3   OH262640   5.407   6.251   3.868 -0.5028 -0.2787  0.0248
13742TIP3    H162641   5.411   6.269   3.962 -2.4552  0.2055  0.0488
13742TIP3    H262642   5.314   6.237   3.850 -0.3488  1.0221 -2.0736
13743TIP3   OH262643   5.345   0.071   4.823  0.3737 -0.1831  0.4934
13743TIP3    H162644   5.251   0.053   4.829  0.3280  0.2065  1.0903
13743TIP3    H262645   5.364   0.068   4.730 -0.5414  1.1847  0.2298
13744TIP3   OH262646   0.198   6.247   4.754 -0.4995 -0.0025 -0.0564
13744TIP3    H162647   0.202   6.342   4.768 -0.7620 -0.0415  0.2758
13744TIP3    H262648   0.177   6.211   4.839 -2.5076 -0.2191 -0.6033
13745TIP3   OH262649   4.955   3.770  13.439 -0.2174 -0.1402  0.1898
13745TIP3    H162650   4.975   3.778  13.346 -1.8568  0.2243 -0.1675
13745TIP3    H262651   5.030   3.724  13.476  2.3261  2.9761 -0.5863
13746TIP3   OH262652   5.935   3.290  13.916  0.1508 -0.4231 -0.1293
13746TIP3    H162653   5.863   3.331  13.964  0.1830 -2.5833  1.9482
13746TIP3    H262654   5.892   3.248  13.841 -0.1595  1.4553 -1.0575
13747TIP3   OH262655   3.271   2.865   4.716  0.0681  0.2145 -0.4896
13747TIP3    H162656   3.219   2.904   4.786  0.2656 -1.3173  0.5472
13747TIP3    H262657   3.296   2.940   4.661 -1.1138  1.2930  0.3655
13748TIP3   OH262658   4.067   3.053  16.576 -0.2728 -0.0039  0.0478
13748TIP3    H162659   4.114   3.032  16.657  1.5330 -1.2505 -1.2595
13748TIP3    H262660   4.061   3.148  16.576 -0.0134  0.0404  1.4653
13749TIP3   OH262661   4.625   6.078  13.545  0.0878  0.1908 -0.4176
13749TIP3    H162662   4.711   6.120  13.549  0.4060  0.0188 -3.0982
13749TIP3    H262663   4.565   6.148  13.517 -0.0341 -0.2993 -1.4613
13750TIP3   OH262664   4.769   1.498  15.102  0.0467 -0.1743 -0.0227
13750TIP3    H162665   4.862   1.499  15.083 -0.0570 -1.2234 -0.6310
13750TIP3    H262666   4.738   1.414  15.069 -0.6366 -0.9998  2.4486
13751TIP3   OH262667   1.795   0.468  13.911  0.2519  0.0309  0.1587
13751TIP3    H162668   1.732   0.441  13.844 -0.2591  0.8329  0.3020
13751TIP3    H262669   1.862   0.400  13.910 -0.9511 -1.1914  0.4613
13752TIP3   OH262670   0.784   1.942  14.154  0.2410 -0.3641  0.2618
13752TIP3    H162671   0.717   2.008  14.173 -0.6916 -1.1233 -0.2593
13752TIP3    H262672   0.746   1.860  14.185  0.0565 -1.1204 -1.7783
13753TIP3   OH262673   5.613   2.290  17.144  0.4545  0.2089 -0.2816
13753TIP3    H162674   5.543   2.226  17.131 -1.3580  2.1675 -0.6460
13753TIP3    H262675   5.634   2.285  17.237  1.6517 -2.1173 -0.5966
13754TIP3   OH262676   4.812   5.745  15.578 -0.0944 -0.1337  0.7267
13754TIP3    H162677   4.797   5.651  15.567 -0.8983 -0.0843  1.3114
13754TIP3    H262678   4.904   5.752  15.603  0.6464 -0.5719 -1.5781
13755TIP3   OH262679   5.729   6.217   2.036  0.6615  0.3974  0.4328
13755TIP3    H162680   5.750   6.310   2.030  1.3645  0.2779  0.9318
13755TIP3    H262681   5.807   6.172   2.004  0.4252 -0.0287  0.4340
13756TIP3   OH262682   3.216   6.439   1.399 -0.6249  0.4434  0.4051
13756TIP3    H162683   3.308   6.415   1.388  0.5764  4.2912  0.5545
13756TIP3    H262684   3.171   6.398   1.326  1.5085 -0.3124 -0.5630
13757TIP3   OH262685   0.415   4.026  14.318 -0.1216  0.1062  0.3628
13757TIP3    H162686   0.497   3.991  14.354 -0.5048 -1.3109 -0.0541
13757TIP3    H262687   0.384   3.957  14.259 -0.7478  1.3549 -0.8125
13758TIP3   OH262688   5.452   4.159   2.367 -0.2972 -0.3732 -0.2346
13758TIP3    H162689   5.458   4.097   2.439  0.3083 -0.5595 -0.4367
13758TIP3    H262690   5.532   4.144   2.316 -0.8259 -0.4121 -1.0757
13759TIP3   OH262691   5.853   3.549   3.622 -0.0841 -0.0478 -0.5068
13759TIP3    H162692   5.867   3.470   3.570 -2.5376 -0.9501  0.0399
13759TIP3    H262693   5.883   3.620   3.566  0.9553 -1.2721 -1.5559
13760TIP3   OH262694   5.072   1.736   0.741 -0.0748 -0.4585  0.0620
13760TIP3    H162695   5.082   1.665   0.678  3.3520  0.0141 -0.1513
13760TIP3    H262696   5.020   1.801   0.696  0.7707 -0.8936 -1.6373
13761TIP3   OH262697   1.301   5.151  12.709  0.4041  0.0385 -0.4316
13761TIP3    H162698   1.382   5.147  12.658  1.4087  1.0528  1.0234
13761TIP3    H262699   1.254   5.226  12.671  1.5506  1.3525  0.6298
13762TIP3   OH262700   2.506   0.597   3.933  0.6781 -0.1905  0.3828
13762TIP3    H162701   2.534   0.640   3.852  3.7119 -0.3176  1.2117
13762TIP3    H262702   2.469   0.513   3.904  1.3360 -0.0623 -0.9086
13763TIP3   OH262703   1.199   2.427   5.859  0.1483 -0.1005  0.6414
13763TIP3    H162704   1.293   2.412   5.866  0.2880  0.6186  0.4317
13763TIP3    H262705   1.184   2.505   5.913 -0.7281 -1.5752  2.6638
13764TIP3   OH262706   1.910   2.220  13.514  0.2705 -0.2360  0.2153
13764TIP3    H162707   1.998   2.257  13.525  0.6674 -0.8198 -0.9310
13764TIP3    H262708   1.853   2.284  13.556  1.0258  1.2671 -0.9372
13765TIP3   OH262709   0.109   4.265   5.051 -0.3289  0.1223  0.5379
13765TIP3    H162710   0.173   4.196   5.033 -0.2712  0.4273 -0.5241
13765TIP3    H262711   0.132   4.297   5.138  0.0435 -0.7654  0.7694
13766TIP3   OH262712   0.209   4.927   0.533  0.0470 -0.2883  0.2956
13766TIP3    H162713   0.234   4.989   0.465 -0.2754  1.6506  1.8637
13766TIP3    H262714   0.122   4.956   0.561  0.9788  0.2836  2.9054
13767TIP3   OH262715   5.134   3.537   1.582  0.0720  0.2890  0.7192
13767TIP3    H162716   5.049   3.580   1.571  0.8592  2.8138  3.4410
13767TIP3    H262717   5.127   3.491   1.666  0.5653 -1.8709 -0.3312
13768TIP3   OH262718   1.985   1.689  14.502  0.1778  0.3751  0.5785
13768TIP3    H162719   1.902   1.647  14.520  0.1474  0.3870  0.4669
13768TIP3    H262720   1.966   1.753  14.433  0.4207 -0.1272  0.0342
13769TIP3   OH262721   5.882   2.588   1.970  0.9412  0.2095 -0.4656
13769TIP3    H162722   5.855   2.606   2.060 -0.1539 -1.0658 -0.5081
13769TIP3    H262723   5.950   2.521   1.979  1.2697  0.5261 -0.5661
13770TIP3   OH262724   3.254   0.388  13.624 -0.6522 -0.2142 -0.2512
13770TIP3    H162725   3.174   0.401  13.574 -1.8765 -1.1012  1.3487
13770TIP3    H262726   3.235   0.427  13.709  0.6276 -0.4261  0.1456
13771TIP3   OH262727   1.240   0.800   3.274 -0.2909  0.1782 -0.6443
13771TIP3    H162728   1.283   0.882   3.299 -1.1726  0.6704 -0.7270
13771TIP3    H262729   1.200   0.820   3.189  0.3004 -0.6340 -1.1325
13772TIP3   OH262730   2.214   0.473  13.394  0.6147  0.1716 -0.3048
13772TIP3    H162731   2.216   0.525  13.475 -1.8497 -1.9913  1.3001
13772TIP3    H262732   2.210   0.538  13.324  2.1720  2.1220  1.2978
13773TIP3   OH262733   0.417   4.606  10.797  0.0075  0.3198  0.2769
13773TIP3    H162734   0.396   4.679  10.856 -0.8766  1.1261 -0.9799
13773TIP3    H262735   0.511   4.593  10.808  0.0351  1.1071  1.1364
13774TIP3   OH262736   5.575   4.982   4.240 -0.6650  0.6098  0.6078
13774TIP3    H162737   5.483   4.964   4.257 -0.5123  0.1224  0.9384
13774TIP3    H262738   5.616   4.895   4.236 -0.1024  0.8480  1.1338
13775TIP3   OH262739   2.733   4.667   6.122 -0.2463  0.2374  0.1967
13775TIP3    H162740   2.691   4.713   6.049  0.4464  1.2346  0.4011
13775TIP3    H262741   2.706   4.576   6.112 -1.3514  0.6165 -0.4525
13776TIP3   OH262742   5.151   0.516   4.299 -0.0780  0.0540 -0.4240
13776TIP3    H162743   5.170   0.549   4.211 -0.3118  0.2820 -0.3865
13776TIP3    H262744   5.071   0.561   4.326 -1.2796 -1.6446 -0.9787
13777TIP3   OH262745   5.542   2.477   0.782  0.7447  0.3577 -0.3712
13777TIP3    H162746   5.629   2.481   0.821  0.4419 -0.2676  0.4042
13777TIP3    H262747   5.546   2.537   0.708  2.4831 -1.2377 -1.6608
13778TIP3   OH262748   3.114   4.858   4.877  0.4003  0.5061  0.4335
13778TIP3    H162749   3.062   4.840   4.956 -0.9605  1.1709 -0.2701
13778TIP3    H262750   3.050   4.854   4.806  1.9175 -1.8219 -0.8878
13779TIP3   OH262751   3.524   4.031  12.071 -0.5574  0.8251 -1.0436
13779TIP3    H162752   3.601   3.983  12.101  0.0185  1.3882 -1.5818
13779TIP3    H262753   3.547   4.123  12.085 -1.1159  0.9981 -1.2453
13780TIP3   OH262754   4.543   5.543  11.809 -0.3443 -0.3971  0.2882
13780TIP3    H162755   4.478   5.601  11.849 -1.2866 -0.0242 -1.6747
13780TIP3    H262756   4.491   5.475  11.767  0.5303 -0.1911 -1.1796
13781TIP3   OH262757   3.679   1.851   5.982  0.4590 -0.0763  0.2703
13781TIP3    H162758   3.635   1.932   6.008  0.6320  0.1362 -0.0983
13781TIP3    H262759   3.611   1.800   5.937  0.1294 -0.4887  1.1958
13782TIP3   OH262760   5.837   2.544  14.261  0.0641  0.4005 -0.0215
13782TIP3    H162761   5.872   2.600  14.193 -0.8446  0.8879 -0.1033
13782TIP3    H262762   5.766   2.595  14.300  0.0989 -0.1572  0.8071
13783TIP3   OH262763   4.106   6.010  17.425 -0.3216 -0.1823 -0.0170
13783TIP3    H162764   4.077   5.967  17.505 -0.9253  1.3146  0.6181
13783TIP3    H262765   4.159   5.945  17.380 -2.8377 -2.2746 -0.1384
13784TIP3   OH262766   3.438   2.338   2.517  0.5858 -0.0033 -0.1775
13784TIP3    H162767   3.362   2.396   2.531  0.7165  0.6129 -1.7666
13784TIP3    H262768   3.512   2.387   2.551  0.4010 -0.2294  0.5709
13785TIP3   OH262769   3.074   3.445   0.455 -0.3411  0.4499 -0.4401
13785TIP3    H162770   3.118   3.443   0.540 -1.4192 -1.8081  0.1401
13785TIP3    H262771   3.126   3.506   0.402  1.2959  0.6701  1.3216
13786TIP3   OH262772   0.615   5.462   2.924  0.0870  0.2620 -0.0814
13786TIP3    H162773   0.563   5.507   2.858 -0.1668 -0.0313 -0.0824
13786TIP3    H262774   0.685   5.419   2.875  0.5194  0.9010 -0.0515
13787TIP3   OH262775   6.199   5.072  16.340 -0.2832 -0.6531  0.0282
13787TIP3    H162776   6.226   5.145  16.285  0.6952 -0.1475  1.1538
13787TIP3    H262777   6.263   5.070  16.411  0.0770 -2.9880 -0.2847
13788TIP3   OH262778   4.692   0.598  16.888 -0.2913 -0.1397 -0.0052
13788TIP3    H162779   4.622   0.546  16.849 -0.0942  0.1890 -0.8029
13788TIP3    H262780   4.749   0.533  16.931 -1.8921 -0.2941  2.0101
13789TIP3   OH262781   4.464   4.793  12.048  0.0683 -0.1645  0.5971
13789TIP3    H162782   4.534   4.769  11.987 -0.4536 -0.2008  0.0000
13789TIP3    H262783   4.395   4.829  11.992 -0.6575 -0.7412  1.1051
13790TIP3   OH262784   6.620   0.292  15.413  0.3136  0.0851 -0.0922
13790TIP3    H162785   6.580   0.329  15.492 -0.0650  0.1483 -0.3093
13790TIP3    H262786   6.662   0.212  15.443  2.2041  1.2702  0.6285
13791TIP3   OH262787   3.301   6.488   5.108 -0.2359 -0.0035  0.0115
13791TIP3    H162788   3.281   6.580   5.126 -1.2345 -0.2245  0.1032
13791TIP3    H262789   3.386   6.489   5.063  0.0377  0.9127  0.5326
13792TIP3   OH262790   4.684   5.288   3.538  0.2156 -0.2699  0.1628
13792TIP3    H162791   4.727   5.358   3.489  1.1900  0.2712  1.6921
13792TIP3    H262792   4.692   5.315   3.630 -0.9732 -1.5354  0.6816
13793TIP3   OH262793   1.278   3.384   3.655  0.3686 -0.3249  0.0157
13793TIP3    H162794   1.319   3.412   3.736  1.2028 -1.0507 -0.1423
13793TIP3    H262795   1.195   3.343   3.682  1.8451 -3.0315  0.7939
13794TIP3   OH262796   1.872   3.613   3.008  0.4856  0.0172 -0.5252
13794TIP3    H162797   1.940   3.606   2.940  0.7680  0.1782 -0.2580
13794TIP3    H262798   1.914   3.659   3.080  0.4092 -0.7998  0.0566
13795TIP3   OH262799   1.735   0.557  12.872 -0.0284  0.1339  0.0758
13795TIP3    H162800   1.814   0.502  12.879  0.9514  1.4112 -0.5051
13795TIP3    H262801   1.766   0.638  12.833 -1.6741  0.6444 -0.2439
13796TIP3   OH262802   4.060   4.214  11.699 -0.2096 -0.6404 -0.1478
13796TIP3    H162803   4.052   4.231  11.605 -0.6742 -0.7906 -0.1379
13796TIP3    H262804   3.977   4.171  11.723  0.8668 -2.9113 -0.1741
13797TIP3   OH262805   0.419   4.457  12.544 -0.3012 -0.6224  0.3123
13797TIP3    H162806   0.367   4.506  12.480 -0.1755  0.3693  0.9441
13797TIP3    H262807   0.357   4.434  12.613 -0.5923 -2.3053 -0.4661
13798TIP3   OH262808   2.622   2.423  12.186 -0.3643  0.3404  0.4262
13798TIP3    H162809   2.696   2.457  12.236 -0.0867  3.9372 -2.0799
13798TIP3    H262810   2.552   2.487  12.202 -2.4372 -1.9786  1.2573
13799TIP3   OH262811   1.636   4.624   2.312 -0.2087  0.3568 -0.1575
13799TIP3    H162812   1.665   4.708   2.349 -0.0139  0.8594 -1.3815
13799TIP3    H262813   1.554   4.605   2.357  0.9321 -0.0464  1.8926
13800TIP3   OH262814   0.171   0.144  14.627  0.1624 -0.2584  0.1192
13800TIP3    H162815   0.165   0.079  14.557  0.2964 -0.5823  0.4050
13800TIP3    H262816   0.258   0.183  14.616  0.0761 -0.1142 -0.0611
13801TIP3   OH262817   4.024   0.492   5.070 -0.1944  0.1659 -0.2465
13801TIP3    H162818   4.024   0.405   5.030 -1.1044  1.1440 -2.5853
13801TIP3    H262819   3.941   0.497   5.117  0.4592 -0.6642  1.0514
13802TIP3   OH262820   2.611   4.065   2.823 -0.0867  0.0087 -0.0149
13802TIP3    H162821   2.602   3.982   2.776 -1.9028  0.1565  0.0207
13802TIP3    H262822   2.566   4.129   2.768 -0.5553  0.5577  0.9862
13803TIP3   OH262823   5.430   1.848  15.428 -0.4188 -0.0139 -0.3546
13803TIP3    H162824   5.471   1.843  15.341 -0.5232 -0.5127 -0.3742
13803TIP3    H262825   5.464   1.930  15.465 -0.6672  0.3973 -1.0100
13804TIP3   OH262826   3.888   0.931   0.918  0.2409  0.5842 -0.5135
13804TIP3    H162827   3.875   1.017   0.957 -0.2495 -0.9558  3.0846
13804TIP3    H262828   3.973   0.937   0.874  0.0600  2.9559 -0.6590
13805TIP3   OH262829   1.604   0.785   3.960  0.2960 -0.2082  0.1480
13805TIP3    H162830   1.698   0.768   3.964  0.2626 -0.7449 -0.9089
13805TIP3    H262831   1.567   0.730   4.030  0.6368 -1.1828 -0.4100
13806TIP3   OH262832   6.015   3.984  16.331  1.0447 -0.5643  0.1512
13806TIP3    H162833   6.013   3.891  16.352 -1.8117 -0.3931  1.0246
13806TIP3    H262834   6.000   4.028  16.415  0.5075  0.6119 -0.5386
13807TIP3   OH262835   3.216   0.805   5.796 -0.2842  0.0092 -0.0591
13807TIP3    H162836   3.282   0.830   5.731  0.9166 -2.0445  0.2874
13807TIP3    H262837   3.226   0.870   5.866  1.2512 -0.1506 -0.1042
13808TIP3   OH262838   1.301   3.980   6.128 -0.1105 -0.1815  0.0845
13808TIP3    H162839   1.384   3.943   6.159 -0.6349 -1.5081 -0.0370
13808TIP3    H262840   1.278   3.926   6.052 -0.5476  0.8779 -0.5558
13809TIP3   OH262841   4.119   6.417  17.075  0.0655  0.0066 -0.4631
13809TIP3    H162842   4.048   6.406  17.138 -0.4519  0.9496 -0.8564
13809TIP3    H262843   4.075   6.430  16.991  0.6513  1.3884 -0.5864
13810TIP3   OH262844   5.530   4.874  13.789 -0.0894  0.1034 -0.7023
13810TIP3    H162845   5.593   4.838  13.851 -1.2744 -0.3871  0.2493
13810TIP3    H262846   5.569   4.957  13.761  1.0712 -0.2931 -0.3052
13811TIP3   OH262847   2.410   2.904  12.659 -0.2223  0.4108  0.1525
13811TIP3    H162848   2.417   2.990  12.700  1.6102  0.4050 -0.0861
13811TIP3    H262849   2.437   2.843  12.728 -0.0608  0.1527 -0.1382
13812TIP3   OH262850   5.392   1.054   3.680 -0.6180  0.1920 -0.3044
13812TIP3    H162851   5.404   1.037   3.774  2.3039 -0.9078 -0.7985
13812TIP3    H262852   5.386   1.149   3.674  3.0208  0.6157  0.7502
13813TIP3   OH262853   2.446   3.347  14.748 -0.1305 -0.6202 -0.3516
13813TIP3    H162854   2.360   3.386  14.735  0.1284  0.4525  0.8786
13813TIP3    H262855   2.497   3.416  14.791  1.3300 -1.2467 -1.0124
13814TIP3   OH262856   0.409   5.050  11.968 -0.1428  0.2206 -0.0353
13814TIP3    H162857   0.416   5.009  11.881 -0.0821 -1.6104  0.7782
13814TIP3    H262858   0.500   5.069  11.992  0.2905 -2.8313  1.1644
13815TIP3   OH262859   3.290   0.131  13.554  0.2975  0.2886  0.1559
13815TIP3    H162860   3.215   0.080  13.583  1.4486 -1.0598  0.8839
13815TIP3    H262861   3.274   0.219  13.588 -0.7095 -0.1090  0.7406
13816TIP3   OH262862   2.245   3.964  12.562 -0.4064 -0.6938  0.8245
13816TIP3    H162863   2.173   3.960  12.499  1.3229 -1.6414 -1.1858
13816TIP3    H262864   2.321   3.932  12.514  2.3459  3.9090  1.5000
13817TIP3   OH262865   5.736   3.668  11.201 -0.3950  0.1033 -0.0671
13817TIP3    H162866   5.672   3.710  11.143 -1.0976 -2.3451 -1.1853
13817TIP3    H262867   5.817   3.666  11.150  0.2949  2.0257  0.8551
13818TIP3   OH262868   1.341   1.451  14.789  0.3454  0.1022 -0.0918
13818TIP3    H162869   1.431   1.447  14.824 -0.1278  1.4021  1.3850
13818TIP3    H262870   1.309   1.361  14.798  0.7837  0.0661  1.4503
13819TIP3   OH262871   4.013   0.641   3.462  0.3186 -0.6709 -0.1123
13819TIP3    H162872   3.979   0.561   3.423 -2.4068  1.1066 -1.7305
13819TIP3    H262873   3.948   0.666   3.528 -0.3760  1.5018 -1.4905
13820TIP3   OH262874   1.469   3.068  16.329  0.5070  0.6364 -0.1367
13820TIP3    H162875   1.511   3.153  16.327 -0.4837  1.1823  0.7905
13820TIP3    H262876   1.404   3.075  16.399  0.7162 -1.0261  0.2788
13821TIP3   OH262877   1.480   4.829   3.629  0.2464  1.3025  0.1230
13821TIP3    H162878   1.434   4.745   3.636 -0.6758  1.9015  1.6455
13821TIP3    H262879   1.425   4.881   3.570 -0.0184  1.3599  0.4165
13822TIP3   OH262880   3.151   3.115  15.312 -0.5640 -0.3071 -0.8892
13822TIP3    H162881   3.188   3.042  15.262  1.1369 -1.4146  1.7916
13822TIP3    H262882   3.217   3.184  15.305 -0.6206 -0.2341 -0.7099
13823TIP3   OH262883   3.965   3.882  16.334  0.0977  0.0415 -0.0692
13823TIP3    H162884   4.054   3.874  16.367  0.5480  0.6724 -1.0968
13823TIP3    H262885   3.936   3.968  16.364  0.5481  0.6635 -1.3634
13824TIP3   OH262886   5.783   6.163   0.547  0.5737 -0.1099 -0.2380
13824TIP3    H162887   5.718   6.171   0.478  1.7422 -0.3442 -1.3943
13824TIP3    H262888   5.748   6.093   0.604 -1.2854  1.3073  0.4839
13825TIP3   OH262889   6.364   6.272   2.788 -0.3579  0.1538  0.0317
13825TIP3    H162890   6.287   6.225   2.820  1.4103 -2.4689  0.7558
13825TIP3    H262891   6.382   6.234   2.702  0.1278  0.7673 -0.1500
13826TIP3   OH262892   6.068   1.752  13.985  0.2929  0.1394  0.2560
13826TIP3    H162893   6.089   1.658  13.985 -0.3241 -0.0241  1.6362
13826TIP3    H262894   5.976   1.755  14.012 -0.0653  1.0896 -0.9833
13827TIP3   OH262895   4.703   0.256   3.677  0.4095  0.6240  0.0164
13827TIP3    H162896   4.762   0.300   3.738 -0.5058 -1.2351  2.3886
13827TIP3    H262897   4.760   0.224   3.607  2.0525 -0.0093  1.5718
13828TIP3   OH262898   1.864   2.364  11.569  0.2422  0.5482 -0.2973
13828TIP3    H162899   1.783   2.314  11.581 -0.4602  1.7227  0.0131
13828TIP3    H262900   1.868   2.380  11.474  0.6540 -0.3531 -0.4484
13829TIP3   OH262901   0.733   2.623  17.308  0.1857 -0.7623 -0.0715
13829TIP3    H162902   0.706   2.564  17.379 -1.5029  2.0912  1.8877
13829TIP3    H262903   0.746   2.707  17.351  1.5239  0.5713 -2.8484
13830TIP3   OH262904   3.870   4.768  14.279 -0.3172 -0.8217  0.1671
13830TIP3    H162905   3.823   4.843  14.316  0.3339 -0.4617  0.2647
13830TIP3    H262906   3.846   4.769  14.186  0.7355  0.3077 -0.1097
13831TIP3   OH262907   6.174   1.015   4.002  0.7720  0.3142 -0.1536
13831TIP3    H162908   6.201   0.962   4.077  0.5620 -0.0775 -0.3483
13831TIP3    H262909   6.229   0.984   3.930  1.4603  1.1741 -0.0053
13832TIP3   OH262910   3.160   5.008   1.039 -0.2746 -0.0247  0.2347
13832TIP3    H162911   3.137   4.945   1.107  0.8705  0.6682  1.3065
13832TIP3    H262912   3.119   5.089   1.066  1.0017  0.5077  0.6738
13833TIP3   OH262913   0.740   0.334  17.021  0.2847  0.0359  0.3224
13833TIP3    H162914   0.811   0.398  17.034  0.5188 -0.6170  2.6559
13833TIP3    H262915   0.663   0.375  17.060 -0.1944 -0.0638 -0.4888
13834TIP3   OH262916   4.168   3.009  11.386 -0.2183 -0.1044 -0.1363
13834TIP3    H162917   4.166   3.064  11.308 -0.4481 -1.3543 -1.0354
13834TIP3    H262918   4.256   3.021  11.422 -0.0320  0.2925 -0.7190
13835TIP3   OH262919   6.063   1.398   4.126  0.3299 -0.0618 -0.5693
13835TIP3    H162920   6.093   1.468   4.184 -1.2244  1.9215 -2.0331
13835TIP3    H262921   6.113   1.411   4.045  0.0420 -0.6649 -0.8491
13836TIP3   OH262922   5.736   2.223  16.407  0.5394  0.1457  0.0389
13836TIP3    H162923   5.831   2.229  16.396  0.4781  0.1933 -0.5109
13836TIP3    H262924   5.722   2.140  16.452  0.7446 -0.7026 -1.3953
13837TIP3   OH262925   2.496   4.923   0.020  0.3379  0.1972  1.0431
13837TIP3    H162926   2.493   4.922   0.115 -1.8665 -0.9141  1.0161
13837TIP3    H262927   2.523   4.834  -0.004 -2.9761 -0.8531  0.6753
13838TIP3   OH262928   5.282   2.584  11.903  0.2513 -0.5280  0.3810
13838TIP3    H162929   5.289   2.498  11.945 -0.1769 -1.3617 -1.1561
13838TIP3    H262930   5.364   2.628  11.927  0.4571 -1.3361  1.2559
13839TIP3   OH262931   3.686   5.089  15.430  0.1978  0.3995 -0.0815
13839TIP3    H162932   3.714   5.020  15.490 -0.6798  0.6883  0.6825
13839TIP3    H262933   3.740   5.076  15.352  0.0888 -1.1157  0.0639
13840TIP3   OH262934   4.184   1.440   3.178  0.6402 -0.0374 -0.1505
13840TIP3    H162935   4.140   1.388   3.111 -0.5387 -1.2282  1.4330
13840TIP3    H262936   4.113   1.484   3.224  1.2578 -0.3173  1.1346
13841TIP3   OH262937   0.489   4.576  12.775  0.1619 -0.3911 -0.2256
13841TIP3    H162938   0.551   4.647  12.790 -2.0036  1.6167 -0.2193
13841TIP3    H262939   0.493   4.560  12.681 -0.3456  0.7607 -0.4561
13842TIP3   OH262940   3.541   1.422   1.963 -0.2319 -0.3986  0.0493
13842TIP3    H162941   3.495   1.424   1.879  0.2979 -1.0855 -0.2727
13842TIP3    H262942   3.620   1.474   1.947 -0.5101  0.1259  0.3643
13843TIP3   OH262943   5.703   1.476   5.141 -0.2013 -0.1077  0.5584
13843TIP3    H162944   5.699   1.393   5.094  2.0099  0.7272 -1.3167
13843TIP3    H262945   5.785   1.472   5.190 -0.1117  0.9064  0.5154
13844TIP3   OH262946   1.500   2.464   5.569 -0.0847 -0.0395 -0.3100
13844TIP3    H162947   1.430   2.401   5.548  0.4667 -0.5263 -0.7490
13844TIP3    H262948   1.579   2.410   5.573  0.5095  0.7239 -1.3807
13845TIP3   OH262949   6.697   3.472   0.401 -0.7390  0.0822  0.7878
13845TIP3    H162950   6.617   3.474   0.348 -0.2559 -1.0960 -0.0199
13845TIP3    H262951   6.760   3.525   0.353 -0.4420 -0.6048  0.4133
13846TIP3   OH262952   6.470   3.028   4.131 -0.1364 -0.1056  0.5391
13846TIP3    H162953   6.544   3.020   4.192 -0.0021  2.8998  0.9165
13846TIP3    H262954   6.510   3.047   4.047 -0.4419 -0.1057  0.3942
13847TIP3   OH262955   0.057   2.564   3.630 -0.4748  0.3612  0.2828
13847TIP3    H162956   0.143   2.598   3.608 -0.9454  1.2618 -0.2406
13847TIP3    H262957   0.038   2.502   3.560  0.9492 -2.1047  1.9456
13848TIP3   OH262958   6.749   5.149   5.228  0.0326 -0.7606  0.1814
13848TIP3    H162959   6.699   5.121   5.304 -1.3043 -1.2886 -0.8442
13848TIP3    H262960   6.691   5.211   5.183  0.8961 -0.2675 -0.2798
13849TIP3   OH262961   3.852   3.624  12.441  0.1238 -0.1839  0.8078
13849TIP3    H162962   3.773   3.653  12.396 -0.1515 -0.1458  1.3073
13849TIP3    H262963   3.922   3.639  12.378 -0.1383  0.6790  0.7047
13850TIP3   OH262964   4.044   4.513  11.867  0.0348  0.1858  0.3318
13850TIP3    H162965   4.022   4.558  11.786  0.6786 -0.8806 -0.4584
13850TIP3    H262966   4.073   4.583  11.926 -0.1708  0.9382 -0.4425
13851TIP3   OH262967   2.110   4.884   2.759  0.3243  0.2672 -0.2374
13851TIP3    H162968   2.108   4.966   2.809  1.7464 -0.2542  0.7403
13851TIP3    H262969   2.138   4.911   2.672 -0.3724  0.9691 -0.2547
13852TIP3   OH262970   4.136   3.400   5.192 -0.1370  0.7156 -0.2868
13852TIP3    H162971   4.218   3.417   5.237  1.1287  1.5799 -2.7566
13852TIP3    H262972   4.157   3.331   5.129 -2.0245 -0.9779  0.8195
13853TIP3   OH262973   3.875   0.204   5.578  0.0666 -0.8336 -0.4402
13853TIP3    H162974   3.970   0.191   5.572  0.0155 -0.9308 -1.0574
13853TIP3    H262975   3.846   0.139   5.643  0.5068 -0.3515  0.2566
13854TIP3   OH262976   2.548   4.173   1.099 -0.1561 -0.3479 -0.0379
13854TIP3    H162977   2.609   4.136   1.162  0.0112  1.2334  0.7888
13854TIP3    H262978   2.490   4.229   1.151  0.5215  1.7094 -1.3491
13855TIP3   OH262979   1.353   5.554  15.648  0.5820  0.3705  0.2756
13855TIP3    H162980   1.355   5.495  15.573 -0.4286 -0.5390  0.9238
13855TIP3    H262981   1.441   5.591  15.652  0.9929 -0.4660 -0.6554
13856TIP3   OH262982   4.485   1.536  17.269 -0.0957  0.2576  0.3218
13856TIP3    H162983   4.420   1.604  17.254  1.5546  1.6718 -0.7540
13856TIP3    H262984   4.440   1.455  17.247 -1.8558  1.0458  0.8417
13857TIP3   OH262985   0.760   4.968  13.356  0.0723 -0.1187 -0.2243
13857TIP3    H162986   0.846   4.949  13.318  0.8183  0.6796  0.9792
13857TIP3    H262987   0.759   4.920  13.439  0.6491  2.2785  1.2569
13858TIP3   OH262988   6.306   5.692   1.955  0.0764 -0.2437  0.2919
13858TIP3    H162989   6.267   5.669   1.871  0.8018  0.3861 -0.2309
13858TIP3    H262990   6.285   5.617   2.012 -0.8966 -0.4256 -0.2779
13859TIP3   OH262991   6.147   5.676   5.011 -0.0993 -0.7632 -0.3586
13859TIP3    H162992   6.182   5.717   4.932 -1.2056  0.7496 -0.1040
13859TIP3    H262993   6.076   5.620   4.980  0.2690 -1.1432 -0.5336
13860TIP3   OH262994   2.391   2.832  14.684 -0.1842 -0.3429 -0.8556
13860TIP3    H162995   2.368   2.919  14.716 -0.6182 -0.3819 -1.0430
13860TIP3    H262996   2.413   2.782  14.763 -1.9459 -0.6462 -0.5056
13861TIP3   OH262997   5.181   3.331  13.846 -0.3355  0.8938 -0.5122
13861TIP3    H162998   5.204   3.273  13.774 -1.9303 -0.5645  0.0942
13861TIP3    H262999   5.093   3.363  13.824 -0.4838  1.1198  0.3625
13862TIP3   OH263000   3.101   0.772   0.058 -0.2975 -0.1804  0.3063
13862TIP3    H163001   3.060   0.705   0.003  0.9294  0.3840 -1.3815
13862TIP3    H263002   3.194   0.764   0.039  0.0929  0.4934  1.8457
13863TIP3   OH263003   2.242   6.107   0.428 -0.4345  0.0955  0.1973
13863TIP3    H163004   2.274   6.144   0.510 -0.7021 -0.4360  0.5512
13863TIP3    H263005   2.278   6.018   0.427  0.6087  0.5042 -0.8670
13864TIP3   OH263006   0.507   6.401   5.045 -0.5084  0.0779 -0.4151
13864TIP3    H163007   0.458   6.322   5.022 -0.1522 -0.4382  0.5942
13864TIP3    H263008   0.573   6.372   5.107 -0.9758  1.3174  0.7040
13865TIP3   OH263009   1.038   5.272   2.658  0.2700 -0.4652 -0.2612
13865TIP3    H163010   1.096   5.344   2.633 -0.9145  1.0097  0.9644
13865TIP3    H263011   0.998   5.244   2.575  0.6187  0.4314 -0.7516
13866TIP3   OH263012   2.677   2.997   4.536  0.3651 -0.1000 -0.2464
13866TIP3    H163013   2.614   3.040   4.479 -2.3965 -2.0985  1.0794
13866TIP3    H263014   2.716   2.928   4.482  1.4407  1.0965 -1.0475
13867TIP3   OH263015   6.546   0.099   5.522 -0.4928 -0.0570 -0.4039
13867TIP3    H163016   6.611   0.146   5.470 -0.1287  0.8116  0.7984
13867TIP3    H263017   6.596   0.030   5.566 -0.5749 -0.0329 -0.2725
13868TIP3   OH263018   4.490   5.342  15.706 -0.1147 -0.3030 -0.1797
13868TIP3    H163019   4.517   5.252  15.687  0.1311 -1.1858  3.5883
13868TIP3    H263020   4.414   5.333  15.764 -0.5682  1.9316 -0.3437
13869TIP3   OH263021   5.851   1.256   6.412  0.9512  0.3243  0.7196
13869TIP3    H163022   5.821   1.328   6.356 -0.9478 -2.4776 -2.1897
13869TIP3    H263023   5.803   1.269   6.494  0.4852  2.2089  0.2042
13870TIP3   OH263024   2.456   0.760  14.235 -0.2317 -0.1432  0.0954
13870TIP3    H163025   2.492   0.672  14.244  2.1143  0.9258  2.0712
13870TIP3    H263026   2.532   0.818  14.236 -1.7009  1.9521 -1.3063
13871TIP3   OH263027   6.108   6.433  17.426 -0.6387  0.7898  0.0824
13871TIP3    H163028   6.141   6.438  17.336 -0.3232  1.7048  0.2453
13871TIP3    H263029   6.097   6.339  17.442  1.5202  0.4525 -0.1179
13872TIP3   OH263030   1.708   3.794  13.737  0.0865  0.1703  0.3698
13872TIP3    H163031   1.681   3.720  13.791 -0.1308  0.1160  0.1903
13872TIP3    H263032   1.747   3.856  13.798  1.8521 -0.8209  0.2993
13873TIP3   OH263033   2.060   0.066  11.789  0.2579  0.5103  0.1212
13873TIP3    H163034   1.988   0.096  11.844  0.8617  2.9333 -0.2970
13873TIP3    H263035   2.020   0.006  11.726 -0.8342 -0.4708  1.6769
13874TIP3   OH263036   4.336   1.024   6.504 -0.5596  0.6702  0.0840
13874TIP3    H163037   4.414   0.989   6.546  1.2400  1.5123 -2.3484
13874TIP3    H263038   4.273   1.036   6.575  1.0684 -1.1652  1.9439
13875TIP3   OH263039   0.520   2.286  12.869  0.3659 -0.3139  0.4336
13875TIP3    H163040   0.557   2.223  12.808 -0.6317 -0.8874  0.3907
13875TIP3    H263041   0.445   2.323  12.822 -1.6533 -2.2017  1.9718
13876TIP3   OH263042   5.858   3.278  15.769  0.0850  0.0525 -0.1776
13876TIP3    H163043   5.853   3.187  15.739  1.2038 -0.1588  0.2311
13876TIP3    H263044   5.852   3.330  15.690  0.4421 -0.4205 -0.5248
13877TIP3   OH263045   0.390   2.895   0.685  0.6012 -0.0889 -0.2213
13877TIP3    H163046   0.465   2.843   0.656  0.8223 -0.3858  0.8345
13877TIP3    H263047   0.333   2.833   0.728 -0.3007  0.1281 -1.0798
13878TIP3   OH263048   1.266   2.346   6.171 -0.4879  0.1277  0.4674
13878TIP3    H163049   1.225   2.349   6.085  1.0011 -0.6404 -0.3101
13878TIP3    H263050   1.193   2.343   6.233 -1.5792 -0.1002 -0.7930
13879TIP3   OH263051   4.870   0.869  12.270  0.1967 -1.0252 -0.0034
13879TIP3    H163052   4.918   0.949  12.246 -1.6202  0.0487 -0.2566
13879TIP3    H263053   4.780   0.898  12.282 -0.2979 -2.8467  1.1317
13880TIP3   OH263054   2.783   0.329   0.313  0.0447  0.3492 -0.1878
13880TIP3    H163055   2.755   0.410   0.270  1.4827  0.7051 -0.5248
13880TIP3    H263056   2.833   0.359   0.389  0.7299 -0.2114 -0.4066
13881TIP3   OH263057   2.819   0.726   3.418 -0.0038 -0.4563 -0.0539
13881TIP3    H163058   2.886   0.792   3.401 -0.0067 -0.3469  0.3606
13881TIP3    H263059   2.859   0.667   3.482 -0.7897  0.3647  1.2147
13882TIP3   OH263060   1.223   1.506   3.682  0.3870 -0.3821 -0.0770
13882TIP3    H163061   1.271   1.578   3.640 -0.6705 -0.2629 -1.1355
13882TIP3    H263062   1.227   1.526   3.775 -1.7576  2.3320 -0.4303
13883TIP3   OH263063   1.189   5.370   1.269 -0.0240 -0.4350 -0.5278
13883TIP3    H163064   1.124   5.300   1.266 -2.0406  1.3627 -3.3208
13883TIP3    H263065   1.209   5.389   1.177  1.8081  1.4751  0.1699
13884TIP3   OH263066   5.457   0.334  16.934  0.0889 -0.2044  0.3672
13884TIP3    H163067   5.438   0.310  16.843  0.3717  0.2583  0.1826
13884TIP3    H263068   5.472   0.429  16.931  1.8947 -0.4628  0.6029
13885TIP3   OH263069   2.753   5.526  12.275 -0.2625 -0.0127  0.0847
13885TIP3    H163070   2.681   5.506  12.336  1.1174 -0.6028  1.6052
13885TIP3    H263071   2.819   5.569  12.329  0.9922 -0.4810 -1.0172
13886TIP3   OH263072   3.417   3.159   0.823 -0.2318  0.4643  0.2425
13886TIP3    H163073   3.332   3.187   0.856 -0.3442  0.8184 -0.3330
13886TIP3    H263074   3.398   3.083   0.768 -0.3011  1.0814 -0.6153
13887TIP3   OH263075   6.414   1.379   4.955 -0.0452  0.6722 -0.2578
13887TIP3    H163076   6.409   1.334   5.040 -0.1416 -0.9895 -1.1018
13887TIP3    H263077   6.488   1.439   4.965  0.2994  0.1038  0.8328
13888TIP3   OH263078   5.511   5.386  12.783  0.2167 -0.0137  0.0395
13888TIP3    H163079   5.486   5.411  12.695  0.4890  0.7681  0.1736
13888TIP3    H263080   5.430   5.357  12.825  0.1626 -0.7874 -0.5902
13889TIP3   OH263081   1.934   4.907   2.373 -0.1559 -0.3984  0.5275
13889TIP3    H163082   1.962   4.825   2.333  0.1733 -0.6603  1.2804
13889TIP3    H263083   2.015   4.951   2.398 -0.2884  0.5555 -0.6141
13890TIP3   OH263084   4.654   4.571   4.056 -0.3233 -0.2343  0.4508
13890TIP3    H163085   4.638   4.532   3.970 -1.6162  0.5250  0.3132
13890TIP3    H263086   4.733   4.624   4.044  1.7953 -3.0407  0.7694
13891TIP3   OH263087   4.285   2.210   5.661  0.1391  0.1024 -0.1779
13891TIP3    H163088   4.339   2.269   5.714  0.5047 -0.0452 -0.3835
13891TIP3    H263089   4.336   2.196   5.581 -0.1304 -0.1661 -0.3052
13892TIP3   OH263090   0.294   5.860  14.742  0.5114  0.0294 -0.1726
13892TIP3    H163091   0.306   5.815  14.826  2.2505 -1.4685 -1.1539
13892TIP3    H263092   0.336   5.945  14.754 -2.0365  1.2040  1.4165
13893TIP3   OH263093   5.031   6.611   3.190 -0.7964 -0.2464 -0.2450
13893TIP3    H163094   5.083   6.534   3.166  0.3503  1.2593 -3.0240
13893TIP3    H263095   5.086   6.686   3.167 -1.9594  1.4781  2.1398
13894TIP3   OH263096   1.056   1.558   4.627 -0.4984  0.0010  0.1528
13894TIP3    H163097   1.083   1.643   4.664  0.8526 -0.3313 -0.0064
13894TIP3    H263098   1.128   1.499   4.650 -0.3116 -0.5518 -1.7260
13895TIP3   OH263099   0.151   3.818  10.812 -0.1028  0.3004 -0.0445
13895TIP3    H163100   0.183   3.904  10.786 -2.5650  1.0509 -0.8168
13895TIP3    H263101   0.228   3.761  10.804  1.6607  2.4255  0.7713
13896TIP3   OH263102   0.038   5.354   0.764 -0.1513 -0.2149  0.6373
13896TIP3    H163103   0.128   5.325   0.750  0.2766  0.2780  2.1699
13896TIP3    H263104   0.025   5.425   0.700  0.8520  0.2878  0.9739
13897TIP3   OH263105   6.748   2.034  17.241 -0.5336  0.4163  0.0767
13897TIP3    H163106   6.699   1.970  17.294  0.0322 -0.9963 -1.0271
13897TIP3    H263107   6.762   1.989  17.158  0.7904  1.6106 -0.3748
13898TIP3   OH263108   1.857   5.074   1.145 -0.2127  0.4150 -0.6286
13898TIP3    H163109   1.866   5.027   1.229  1.4069  2.2149  0.2746
13898TIP3    H263110   1.765   5.062   1.122 -0.2816 -1.6806  0.4420
13899TIP3   OH263111   1.216   2.299   5.029  0.2834 -1.5800  0.0255
13899TIP3    H163112   1.169   2.373   5.066 -2.3621 -2.5593 -1.1259
13899TIP3    H263113   1.289   2.284   5.090  0.1621  1.1174  0.9513
13900TIP3   OH263114   5.466   1.788  16.559 -0.0463  0.7354  0.2630
13900TIP3    H163115   5.520   1.709  16.551 -1.3462 -0.2719  0.9550
13900TIP3    H263116   5.419   1.776  16.641 -1.1697  1.6678 -0.2190
13901TIP3   OH263117   1.340   1.950   1.138 -0.5457 -0.4491 -0.0744
13901TIP3    H163118   1.274   1.974   1.202 -1.1337 -1.8648 -0.1184
13901TIP3    H263119   1.404   2.022   1.140 -0.6527 -0.3756  1.9353
13902TIP3   OH263120   1.814   0.605  17.136  0.5977 -0.6720  0.0901
13902TIP3    H163121   1.813   0.592  17.231  2.5074  0.6148  0.3463
13902TIP3    H263122   1.772   0.690  17.123  1.2862 -0.3510 -0.0917
13903TIP3   OH263123   1.959   0.091   5.394 -0.1096  0.4127 -0.1637
13903TIP3    H163124   1.953   0.183   5.367 -2.1337  0.7392  1.1567
13903TIP3    H263125   2.018   0.092   5.469  1.1056  0.3488 -1.0812
13904TIP3   OH263126   5.334   5.608   2.763  0.0288  0.3779  0.2561
13904TIP3    H163127   5.357   5.548   2.692 -0.5992 -0.5945  0.8452
13904TIP3    H263128   5.269   5.560   2.815  1.4424  0.4772  2.2631
13905TIP3   OH263129   5.233   6.186   6.160 -0.5055  0.2268  0.0049
13905TIP3    H163130   5.283   6.176   6.080  0.0450  1.9651  0.0923
13905TIP3    H263131   5.191   6.272   6.152  0.8071  1.1770  2.2005
13906TIP3   OH263132   0.292   5.413   5.310 -0.3802 -0.3129  0.1259
13906TIP3    H163133   0.268   5.434   5.220 -0.2647 -1.2671 -0.1397
13906TIP3    H263134   0.320   5.322   5.306 -0.3159 -0.3422  1.1188
13907TIP3   OH263135   4.116   1.213  16.552  0.1533 -0.9011  0.3532
13907TIP3    H163136   4.188   1.161  16.515 -0.1820 -1.6284  0.7020
13907TIP3    H263137   4.149   1.303  16.551  0.4124 -0.9838 -1.0674
13908TIP3   OH263138   3.188   1.410  11.020  0.4885  0.4791 -0.2541
13908TIP3    H163139   3.177   1.324  11.061 -0.0934  1.2800  1.3815
13908TIP3    H263140   3.118   1.416  10.956  0.0656  0.0167  0.1579
13909TIP3   OH263141   1.516   6.020   4.860 -0.4392  0.6965  0.0511
13909TIP3    H163142   1.503   6.085   4.929 -0.6379  0.8210 -0.1018
13909TIP3    H263143   1.599   6.046   4.819 -0.5835  0.9367 -0.0947
13910TIP3   OH263144   1.124   5.393  17.131  0.3054  0.3245  0.2297
13910TIP3    H163145   1.120   5.412  17.038 -1.4333 -0.4349  0.1188
13910TIP3    H263146   1.190   5.453  17.165 -0.3290  1.8693 -1.1710
13911TIP3   OH263147   2.665   2.989  13.361  0.6970 -0.2984  0.6784
13911TIP3    H163148   2.704   2.914  13.406 -0.4536 -1.8988 -0.8372
13911TIP3    H263149   2.575   2.993  13.394 -0.3652 -1.8905 -1.7306
13912TIP3   OH263150   5.224   4.456   0.121  0.8137 -0.4022 -0.3552
13912TIP3    H163151   5.208   4.531   0.179  0.8338 -1.1734  0.6696
13912TIP3    H263152   5.248   4.496   0.037 -0.5853  0.7460 -0.2384
13913TIP3   OH263153   3.574   5.336   3.390 -0.4335  0.1679  0.2600
13913TIP3    H163154   3.526   5.273   3.443 -1.1318 -1.3257 -1.9969
13913TIP3    H263155   3.507   5.395   3.356 -1.0731 -2.4024 -3.5510
13914TIP3   OH263156   3.392   6.277  12.725 -0.2029 -0.0229 -0.1801
13914TIP3    H163157   3.373   6.313  12.638  1.4963 -0.0798 -0.6085
13914TIP3    H263158   3.326   6.316  12.782 -0.7278  0.8099 -1.3151
13915TIP3   OH263159   2.986   5.156  15.390 -0.1875 -0.2034  0.9758
13915TIP3    H163160   2.909   5.205  15.419  0.4421  1.1084  0.5175
13915TIP3    H263161   3.029   5.127  15.471 -0.7877 -0.3571  1.2409
13916TIP3   OH263162   0.232   4.324  15.403  0.1526 -0.2598  0.0540
13916TIP3    H163163   0.151   4.330  15.354 -1.2213  0.2645  2.2577
13916TIP3    H263164   0.230   4.399  15.463  2.0101 -0.5208  0.5125
13917TIP3   OH263165   5.492   0.553  10.932 -0.0774 -0.0531  0.3907
13917TIP3    H163166   5.583   0.575  10.954  0.7313 -3.0224  0.5136
13917TIP3    H263167   5.494   0.459  10.917 -3.6598 -0.8040  3.1880
13918TIP3   OH263168   3.999   6.505  12.795 -0.3789 -0.5046  0.0818
13918TIP3    H163169   3.934   6.501  12.724  0.4534 -0.2824 -0.7054
13918TIP3    H263170   4.074   6.457  12.761  0.5390  0.7569  0.2556
13919TIP3   OH263171   5.897   5.431   4.561  0.4642  0.6524 -0.1057
13919TIP3    H163172   5.922   5.441   4.469 -0.9832 -0.4419 -0.6473
13919TIP3    H263173   5.843   5.353   4.563 -1.0651  1.6739  1.3543
13920TIP3   OH263174   2.540   6.459   4.004 -0.6401  0.2773 -0.0965
13920TIP3    H163175   2.571   6.523   3.939 -0.2477 -1.4614 -1.7121
13920TIP3    H263176   2.533   6.377   3.955 -1.2492 -0.9054  1.8751
13921TIP3   OH263177   3.339   3.342  13.559 -0.1280  0.3442 -0.1948
13921TIP3    H163178   3.325   3.250  13.580 -0.1686  0.3116 -0.3631
13921TIP3    H263179   3.279   3.389  13.616  0.5734  0.3244  0.5781
13922TIP3   OH263180   3.690   6.409  16.502  0.2073  0.4802  0.0851
13922TIP3    H163181   3.708   6.319  16.476 -1.4632 -0.3874  1.7572
13922TIP3    H263182   3.773   6.441  16.537  0.6744 -0.5679 -0.0324
13923TIP3   OH263183   2.245   1.150  14.903  0.1389 -0.1446  0.4263
13923TIP3    H163184   2.224   1.170  14.995 -0.4962 -0.4765  0.3617
13923TIP3    H263185   2.338   1.170  14.895 -0.2909  2.1916  0.5165
13924TIP3   OH263186   5.523   5.535  14.956  1.0656 -0.6625  0.0731
13924TIP3    H163187   5.581   5.607  14.934  0.3988 -0.3421 -0.6912
13924TIP3    H263188   5.455   5.538  14.889  1.3470 -2.3642 -0.3315
13925TIP3   OH263189   1.376   6.017   3.664  0.1254  0.2792  0.4689
13925TIP3    H163190   1.353   6.025   3.756 -0.0108  3.1206  0.2680
13925TIP3    H263191   1.458   6.064   3.655 -0.0757  0.4021 -0.9323
13926TIP3   OH263192   3.796   5.838  15.133  0.1341 -0.3691  0.6603
13926TIP3    H163193   3.873   5.788  15.160 -0.1188  0.1718  2.5451
13926TIP3    H263194   3.820   5.875  15.049  1.2354 -1.6880  0.3495
13927TIP3   OH263195   1.799   3.165   4.050 -0.0857 -0.0304  0.1116
13927TIP3    H163196   1.858   3.197   4.118  0.4696 -0.8108  0.0152
13927TIP3    H263197   1.718   3.213   4.064  0.7529  1.5419 -0.1523
13928TIP3   OH263198   4.611   5.548  14.989 -0.3751  0.3090 -0.1479
13928TIP3    H163199   4.630   5.637  14.962  0.3245  0.2538  0.1431
13928TIP3    H263200   4.565   5.557  15.072 -2.2877  0.4685 -1.1698
13929TIP3   OH263201   2.176   3.309  16.827  0.3125  0.1964 -0.4652
13929TIP3    H163202   2.112   3.319  16.757 -0.4944  1.5082  0.4091
13929TIP3    H263203   2.205   3.218  16.820 -0.8397 -0.1171 -1.5676
13930TIP3   OH263204   4.790   2.562  13.426 -0.0223  0.0681 -0.6449
13930TIP3    H163205   4.759   2.625  13.361 -1.0993  0.2371  0.0119
13930TIP3    H263206   4.710   2.528  13.467  0.6486  1.2160  1.7744
13931TIP3   OH263207   3.045   1.438   4.482 -0.5550  0.0135  0.2218
13931TIP3    H163208   3.079   1.401   4.401  2.2365  1.1470  0.7564
13931TIP3    H263209   3.041   1.365   4.543 -0.3508 -0.3975 -0.2557
13932TIP3   OH263210   3.131   6.308  13.266  0.4402  0.3466 -0.0100
13932TIP3    H163211   3.176   6.382  13.224  0.4361  0.6740  0.5530
13932TIP3    H263212   3.116   6.337  13.355  2.8650 -1.3345  1.0598
13933TIP3   OH263213   2.790   5.298   4.047 -0.0869  0.4951 -0.0185
13933TIP3    H163214   2.826   5.218   4.008  0.5021  1.2324 -1.0484
13933TIP3    H263215   2.721   5.268   4.105  0.7079 -0.8262  0.2839
13934TIP3   OH263216   6.531   6.460  13.968  0.0145  0.2872  0.4888
13934TIP3    H163217   6.499   6.550  13.967  1.1227  0.7200 -1.0890
13934TIP3    H263218   6.452   6.405  13.971 -0.6620  1.2952  1.6263
13935TIP3   OH263219   1.820   1.401   1.640 -0.6828  0.3723  0.5404
13935TIP3    H163220   1.800   1.491   1.666 -1.5263  0.1467  0.7134
13935TIP3    H263221   1.756   1.381   1.571 -0.6172 -0.1508  0.6257
13936TIP3   OH263222   4.009   0.715   3.181  0.8988 -0.3725 -0.6804
13936TIP3    H163223   4.001   0.717   3.277  2.4298  0.1272 -0.5314
13936TIP3    H263224   3.920   0.700   3.150  0.4826 -1.2449  0.8404
13937TIP3   OH263225   1.271   6.503   0.277 -0.1274  0.0951 -0.3174
13937TIP3    H163226   1.212   6.427   0.276 -1.3872  1.0427 -1.3710
13937TIP3    H263227   1.302   6.508   0.367 -1.0912 -0.8655  0.0937
13938TIP3   OH263228   3.892   5.356   3.880 -0.1309 -0.2560  0.0923
13938TIP3    H163229   3.812   5.350   3.932  0.6521 -2.1421  1.1767
13938TIP3    H263230   3.869   5.316   3.796  0.0086 -2.1436  0.9058
13939TIP3   OH263231   5.119   4.544  13.510 -0.3172  0.5127 -0.4138
13939TIP3    H163232   5.211   4.553  13.485 -0.2264 -1.8178 -1.1295
13939TIP3    H263233   5.120   4.536  13.605  0.5733 -2.2500 -0.5680
13940TIP3   OH263234   6.217   1.551   6.074 -0.0375 -0.9018  0.8441
13940TIP3    H163235   6.161   1.521   6.147 -0.5090  0.3722  1.0290
13940TIP3    H263236   6.299   1.578   6.116 -0.5769  0.5331  1.0217
13941TIP3   OH263237   1.917   1.306   1.128 -0.1721  0.2195  0.0431
13941TIP3    H163238   1.866   1.234   1.165 -0.1256 -0.0160 -0.3394
13941TIP3    H263239   1.927   1.283   1.036 -0.2579  0.7814 -0.1099
13942TIP3   OH263240   4.868   2.994  16.705  0.2034 -0.7767  0.0100
13942TIP3    H163241   4.926   3.066  16.731  0.0261 -1.5026  2.7291
13942TIP3    H263242   4.783   3.016  16.743 -1.8343  0.7319 -4.6788
13943TIP3   OH263243   1.673   0.880  11.554 -0.0351 -0.0617 -0.8786
13943TIP3    H163244   1.690   0.877  11.460  0.7639  0.7425 -0.7751
13943TIP3    H263245   1.724   0.955  11.585 -2.1836  1.1832 -0.1871
13944TIP3   OH263246   5.004   3.688  12.655  0.0574 -0.2230  0.2619
13944TIP3    H163247   4.956   3.628  12.598 -1.3012  1.0033  0.0706
13944TIP3    H263248   5.082   3.711  12.604 -0.9236  0.5175 -0.9362
13945TIP3   OH263249   6.249   0.994  12.788 -0.2778 -0.1541  0.4547
13945TIP3    H163250   6.160   1.008  12.756  0.0023 -0.4048 -0.4635
13945TIP3    H263251   6.258   0.899  12.794 -0.1960 -0.1200  0.9287
13946TIP3   OH263252   1.698   3.622  11.834  0.1187 -0.0965 -0.4675
13946TIP3    H163253   1.746   3.544  11.805 -1.5421 -1.0007 -0.8736
13946TIP3    H263254   1.608   3.607  11.807 -0.9247  0.4847  2.3479
13947TIP3   OH263255   6.414   3.105  14.046  0.2319 -0.6168 -0.5748
13947TIP3    H163256   6.368   3.045  13.987  0.5764  0.3080 -1.8258
13947TIP3    H263257   6.492   3.056  14.075 -0.0614 -1.1585 -0.6836
13948TIP3   OH263258   0.642   2.675   2.350 -0.0936  0.0167 -0.3324
13948TIP3    H163259   0.554   2.638   2.339  0.6770 -2.5969  1.3948
13948TIP3    H263260   0.635   2.731   2.427 -0.0984 -0.8199  0.2875
13949TIP3   OH263261   5.610   6.154  13.104 -0.1468 -0.7717 -0.2709
13949TIP3    H163262   5.697   6.125  13.130  0.2759  0.9445  0.4181
13949TIP3    H263263   5.627   6.222  13.038 -0.8152  0.8163  1.0958
13950TIP3   OH263264   4.507   0.407  14.663 -0.2492  0.2982  0.3174
13950TIP3    H163265   4.535   0.442  14.748 -0.9884  0.5371  0.4673
13950TIP3    H263266   4.416   0.434  14.655 -0.0386  0.6919 -0.7846
13951TIP3   OH263267   1.192   1.228   3.662 -0.3874 -0.0922 -0.2948
13951TIP3    H163268   1.107   1.191   3.686  0.0863 -1.0506 -0.0388
13951TIP3    H263269   1.183   1.322   3.678 -1.5906 -0.0922 -0.8681
13952TIP3   OH263270   0.300   4.303   1.402 -0.3177 -0.1414 -0.1003
13952TIP3    H163271   0.369   4.323   1.339  0.8852 -0.2640  1.1406
13952TIP3    H263272   0.269   4.217   1.377 -1.2398  0.6178 -1.7121
13953TIP3   OH263273   3.890   2.202   3.992 -0.1552  0.4818 -0.4801
13953TIP3    H163274   3.878   2.199   4.087  0.1297 -1.2067 -0.4652
13953TIP3    H263275   3.801   2.210   3.957 -0.2242  1.5920 -0.0734
13954TIP3   OH263276   3.044   3.214  13.290  0.0871 -0.4450  0.0565
13954TIP3    H163277   3.078   3.125  13.277  0.2627 -0.5009  0.8798
13954TIP3    H263278   3.037   3.224  13.384  1.2431  0.8403  0.0459
13955TIP3   OH263279   5.111   3.649   6.210  0.1670  0.1209 -0.1485
13955TIP3    H163280   5.201   3.664   6.237  0.3963  0.2961 -0.9677
13955TIP3    H263281   5.066   3.620   6.289  1.0892 -0.6215  0.1197
13956TIP3   OH263282   5.615   2.742   1.476  0.6732 -0.3578 -0.4872
13956TIP3    H163283   5.676   2.787   1.534 -1.0194 -0.5369  1.6077
13956TIP3    H263284   5.592   2.807   1.410 -0.5765  1.4848  1.5872
13957TIP3   OH263285   6.165   2.370  12.491 -0.0354 -0.1488 -0.8498
13957TIP3    H163286   6.240   2.408  12.446  0.6149  0.1905  0.4689
13957TIP3    H263287   6.156   2.283  12.452  1.8231 -0.6861 -0.2054
13958TIP3   OH263288   0.056   1.538   0.065  0.3226  0.0388 -0.1551
13958TIP3    H163289  -0.005   1.470   0.037  0.7546 -0.5382  0.2901
13958TIP3    H263290   0.058   1.531   0.160  1.3997 -0.2251 -0.1860
13959TIP3   OH263291   3.010   0.277   0.144  0.4602 -0.2950 -0.6354
13959TIP3    H163292   2.964   0.304   0.223  1.7245  1.9010 -0.5708
13959TIP3    H263293   2.947   0.290   0.073 -0.2629 -1.0679 -0.1521
13960TIP3   OH263294   2.896   3.127   4.937  0.1830  0.3577 -0.6322
13960TIP3    H163295   2.971   3.132   4.997 -0.3533 -0.3741  0.1149
13960TIP3    H263296   2.825   3.172   4.983  0.3496  1.7691 -1.6815
13961TIP3   OH263297   3.583   3.873   0.064  0.8723  0.0416 -0.0389
13961TIP3    H163298   3.640   3.945   0.091  0.8252 -0.2265  0.7900
13961TIP3    H263299   3.502   3.886   0.114 -0.7448  1.7235 -2.8147
13962TIP3   OH263300   2.813   2.054  13.314  0.0879  0.5645 -0.3723
13962TIP3    H163301   2.864   2.107  13.376 -0.0254 -1.2840  1.4029
13962TIP3    H263302   2.799   2.112  13.239 -0.5750  3.2735  1.6995
13963TIP3   OH263303   4.061   5.086  13.831 -0.1779 -0.0111 -0.0363
13963TIP3    H163304   3.977   5.118  13.863 -0.5644 -0.6038 -0.4200
13963TIP3    H263305   4.118   5.086  13.909 -0.3086  1.0749  0.0739
13964TIP3   OH263306   4.484   5.072  14.583  0.2898 -0.3406  0.2048
13964TIP3    H163307   4.406   5.031  14.546  0.6288 -2.2596  1.5070
13964TIP3    H263308   4.520   5.007  14.644  1.8857  1.2027  1.0176
13965TIP3   OH263309   5.031   3.620   5.154  0.1460 -0.1474 -0.4700
13965TIP3    H163310   4.993   3.652   5.072  0.7645 -0.9788 -1.1013
13965TIP3    H263311   5.116   3.665   5.160  0.5596 -0.8641 -0.8288
13966TIP3   OH263312   1.393   1.840  14.652  0.3172  0.0973  0.4565
13966TIP3    H163313   1.371   1.840  14.559  0.9484  1.1354  0.2987
13966TIP3    H263314   1.319   1.883  14.695 -0.7113 -1.7642  0.6453
13967TIP3   OH263315   2.191   5.401   1.673  0.1880  0.6329  0.5164
13967TIP3    H163316   2.138   5.322   1.684  0.0799  0.6255 -0.0436
13967TIP3    H263317   2.183   5.446   1.757 -1.3727  1.0296  0.1953
13968TIP3   OH263318   2.572   6.307  12.932 -0.1392  0.1512 -0.0403
13968TIP3    H163319   2.581   6.275  12.842 -3.1664 -1.1984 -0.0041
13968TIP3    H263320   2.662   6.324  12.960  1.0645 -1.0279 -2.7290
13969TIP3   OH263321   4.320   0.191   3.870 -0.5727 -0.8379  0.0196
13969TIP3    H163322   4.258   0.257   3.839  0.2723  0.4975  1.0492
13969TIP3    H263323   4.280   0.154   3.948  0.1927  0.5606  1.1254
13970TIP3   OH263324   2.081   3.853   6.534  0.4286  0.0362 -0.2317
13970TIP3    H163325   2.175   3.868   6.545  0.8533 -1.3916 -1.5494
13970TIP3    H263326   2.040   3.905   6.603  2.3834 -2.1243  2.8284
13971TIP3   OH263327   2.535   1.205   5.491 -0.0611  0.2369 -0.1596
13971TIP3    H163328   2.621   1.210   5.450 -0.3602 -2.3541 -1.3339
13971TIP3    H263329   2.539   1.126   5.545 -1.4064  0.6158  0.5542
13972TIP3   OH263330   2.775   4.292  11.282 -0.3894 -0.3973  0.3288
13972TIP3    H163331   2.848   4.334  11.236 -0.8926  0.2751  0.1281
13972TIP3    H263332   2.790   4.199  11.270  0.0545 -0.2505 -0.3155
13973TIP3   OH263333   5.445   5.407   0.050  0.2390  0.3849 -0.5440
13973TIP3    H163334   5.533   5.430   0.081  0.0647 -0.0138  0.2774
13973TIP3    H263335   5.415   5.339   0.111 -0.9003  0.9992 -0.3879
13974TIP3   OH263336   5.172   4.363  14.152  0.5991  0.4652 -0.1417
13974TIP3    H163337   5.197   4.273  14.134  0.6610  0.5925 -0.7204
13974TIP3    H263338   5.082   4.371  14.119  1.1700  1.0589 -1.6746
13975TIP3   OH263339   5.032   1.294  17.025 -0.2178 -0.0220 -0.2085
13975TIP3    H163340   5.103   1.235  17.004 -1.0237 -0.4106 -2.0613
13975TIP3    H263341   5.070   1.382  17.016  0.5956 -0.2029  1.1315
13976TIP3   OH263342   0.872   3.726  17.434  0.9211  0.5520  0.1165
13976TIP3    H163343   0.851   3.776  17.513  1.8764  2.2352 -0.6560
13976TIP3    H263344   0.808   3.756  17.370 -0.2174 -1.2249  0.3531
13977TIP3   OH263345   2.953   1.359  10.869  0.4242  0.2549 -0.1856
13977TIP3    H163346   2.967   1.273  10.829 -0.4867  0.1774 -0.3589
13977TIP3    H263347   2.909   1.410  10.802  1.3034  0.9971 -0.2231
13978TIP3   OH263348   1.437   4.470   5.519 -0.5604 -0.0429 -0.1036
13978TIP3    H163349   1.499   4.516   5.462  0.1725 -0.3555  0.4202
13978TIP3    H263350   1.353   4.512   5.502  0.0318  1.2898  0.1326
13979TIP3   OH263351   2.321   6.419  14.222 -0.5850 -0.2324  0.1032
13979TIP3    H163352   2.276   6.490  14.267  1.2351  2.3623 -1.8070
13979TIP3    H263353   2.274   6.340  14.246 -0.8313  1.1153  4.9398
13980TIP3   OH263354   4.103   4.873   4.982 -0.2495 -0.0567  0.3885
13980TIP3    H163355   4.167   4.807   5.008 -0.8949  0.2731  3.0610
13980TIP3    H263356   4.152   4.933   4.926  1.1239 -1.1461  0.3714
13981TIP3   OH263357   2.048   0.761  14.686 -0.4577  0.3361  0.0181
13981TIP3    H163358   2.114   0.829  14.695  1.2131 -1.3300  0.8607
13981TIP3    H263359   2.040   0.724  14.773 -0.1997 -1.5509 -0.7253
13982TIP3   OH263360   2.337   5.000   2.000  0.3778 -0.2494 -0.1843
13982TIP3    H163361   2.343   4.925   1.941  1.7201 -0.3415  0.0475
13982TIP3    H263362   2.252   4.990   2.043  0.3272 -1.3567 -0.5158
13983TIP3   OH263363   0.994   1.741  12.168  0.0603  0.0955 -0.3741
13983TIP3    H163364   1.006   1.653  12.130  0.9392  0.2790 -0.5449
13983TIP3    H263365   1.048   1.798  12.114  0.1313  0.6150  0.2304
13984TIP3   OH263366   5.547   1.171   4.776  0.1083 -0.2642  0.2216
13984TIP3    H163367   5.637   1.202   4.789 -0.2660  1.1993 -0.4306
13984TIP3    H263368   5.542   1.150   4.683  0.2901 -2.1944  0.6125
13985TIP3   OH263369   5.326   4.170   3.506 -0.2296  0.1851  0.4506
13985TIP3    H163370   5.291   4.181   3.594 -0.2363  1.5270  0.2955
13985TIP3    H263371   5.277   4.096   3.470 -1.2410  0.5255  1.0758
13986TIP3   OH263372   4.329   6.589  13.008 -0.3460 -0.0384 -0.0680
13986TIP3    H163373   4.297   6.663  12.956  1.6941  1.0344  0.1159
13986TIP3    H263374   4.356   6.629  13.091  2.0211 -0.7154 -0.4383
13987TIP3   OH263375   2.679   1.688  14.928  0.2519 -0.1732  0.4026
13987TIP3    H163376   2.615   1.637  14.978  0.7817  0.0710  1.3694
13987TIP3    H263377   2.663   1.665  14.837 -1.5429  0.2431  0.5688
13988TIP3   OH263378   3.506   1.571  14.861  0.9385 -0.1357  0.2074
13988TIP3    H163379   3.412   1.557  14.875  0.8756 -0.1363 -0.2003
13988TIP3    H263380   3.513   1.593  14.768  1.1769  1.2956  0.5401
13989TIP3   OH263381   5.104   0.912   5.299  0.2773 -0.5047 -0.4172
13989TIP3    H163382   5.011   0.926   5.310  0.6940  1.2959  1.3099
13989TIP3    H263383   5.112   0.871   5.212 -1.9252  1.2270 -1.5261
13990TIP3   OH263384   1.787   2.542   0.119 -0.9527 -0.0109 -0.2936
13990TIP3    H163385   1.797   2.529   0.214 -2.4901 -0.9687 -0.2173
13990TIP3    H263386   1.732   2.619   0.111 -0.0714  0.6120 -0.4504
13991TIP3   OH263387   5.211   0.490  13.819  0.2414  0.6687 -0.0621
13991TIP3    H163388   5.259   0.430  13.875 -0.3768  0.4430  0.2357
13991TIP3    H263389   5.273   0.514  13.750  0.5288 -0.2354 -0.1255
13992TIP3   OH263390   0.990   4.780  11.968  0.4506 -0.1715 -0.4911
13992TIP3    H163391   0.972   4.707  11.909 -1.5084  0.5309 -0.8405
13992TIP3    H263392   0.985   4.742  12.055 -0.9084 -0.4477 -0.6545
13993TIP3   OH263393   3.351   2.254  15.850  0.5009 -0.3941  0.1257
13993TIP3    H163394   3.281   2.319  15.855  0.6849  0.0753 -2.1348
13993TIP3    H263395   3.432   2.306  15.855  0.6556 -0.2732 -2.4017
13994TIP3   OH263396   4.587   3.590   0.052  0.0481 -0.1812  0.1183
13994TIP3    H163397   4.530   3.636   0.113  1.9387 -1.4507  3.0997
13994TIP3    H263398   4.645   3.658   0.018 -1.4818  0.6666 -0.9016
13995TIP3   OH263399   0.869   0.190  10.561 -0.1238  0.3437 -0.3892
13995TIP3    H163400   0.960   0.166  10.543 -0.1906 -0.2467  0.0124
13995TIP3    H263401   0.822   0.170  10.480  0.1456  0.8999 -0.6870
13996TIP3   OH263402   0.003   3.297  10.940  0.3216 -0.5305  0.0005
13996TIP3    H163403  -0.081   3.303  10.894 -0.0371  1.9576  0.8229
13996TIP3    H263404   0.067   3.327  10.875  0.0062  1.4546  0.5192
13997TIP3   OH263405   3.113   0.219   3.425  0.8155  0.3121  0.1293
13997TIP3    H163406   3.104   0.305   3.384  0.2672  0.0515 -0.2990
13997TIP3    H263407   3.058   0.223   3.503  0.2060  0.1062 -0.2849
13998TIP3   OH263408   4.800   4.264  16.601  0.4623 -0.6441  0.1370
13998TIP3    H163409   4.844   4.208  16.665  0.1493 -1.0946 -0.0364
13998TIP3    H263410   4.722   4.295  16.647  0.8896  0.0498  0.4016
13999TIP3   OH263411   3.881   0.617  12.424 -0.2784  0.2395  0.0653
13999TIP3    H163412   3.951   0.573  12.473 -0.0398 -0.2382 -0.6847
13999TIP3    H263413   3.832   0.546  12.383 -1.6482  0.5279  1.1229
14000TIP3   OH263414   4.278   6.429  14.487 -0.0548 -0.6424  0.1150
14000TIP3    H163415   4.262   6.361  14.552  0.9308 -3.4262 -2.3248
14000TIP3    H263416   4.207   6.420  14.424  0.5911 -0.0386 -0.7345
14001TIP3   OH263417   1.582   1.101  10.806 -0.3481 -0.3508 -0.2258
14001TIP3    H163418   1.652   1.166  10.802 -1.1643  0.6213  0.6632
14001TIP3    H263419   1.503   1.151  10.785 -0.7485 -1.5167 -1.6599
14002TIP3   OH263420   3.047   1.640   3.167 -0.4683  0.6895 -0.7594
14002TIP3    H163421   2.992   1.663   3.092 -2.0070  0.1724  0.1764
14002TIP3    H263422   3.033   1.546   3.179 -0.4304  0.8159  0.3343
14003TIP3   OH263423   0.125   2.873  16.794 -0.4508 -0.0705 -0.0618
14003TIP3    H163424   0.221   2.866  16.790 -0.4732  0.1662 -2.2201
14003TIP3    H263425   0.095   2.837  16.711 -2.1672  0.9982  0.0441
14004TIP3   OH263426   3.560   1.271  13.522  0.1365  0.6769  1.0286
14004TIP3    H163427   3.557   1.274  13.426 -1.0643  0.5528  1.0502
14004TIP3    H263428   3.629   1.208  13.541  0.3666  0.6747  0.2458
14005TIP3   OH263429   0.701   4.575   5.351 -0.2990  0.0234  0.4663
14005TIP3    H163430   0.714   4.587   5.257 -0.4618 -1.1291  0.2896
14005TIP3    H263431   0.643   4.647   5.376  0.0402  0.5581 -0.2380
14006TIP3   OH263432   2.408   3.793   3.421 -0.4983 -0.0569 -0.0350
14006TIP3    H163433   2.338   3.734   3.449 -0.6923 -0.3875 -1.1953
14006TIP3    H263434   2.363   3.862   3.371 -0.0767  0.1337 -0.1530
14007TIP3   OH263435   1.377   1.073  13.312  0.0149  1.3654 -0.3052
14007TIP3    H163436   1.409   0.998  13.361  2.4921  1.7077 -1.2514
14007TIP3    H263437   1.373   1.043  13.222  0.9017  2.2838 -0.6719
14008TIP3   OH263438   4.665   2.163  16.240  0.7112  0.3598  0.0694
14008TIP3    H163439   4.605   2.214  16.294  0.5050  0.6289 -0.4091
14008TIP3    H263440   4.667   2.209  16.156  0.9430 -0.1117 -0.1879
14009TIP3   OH263441   2.126   5.477   5.076 -0.4328 -0.6089  0.6307
14009TIP3    H163442   2.217   5.501   5.057 -0.4506 -0.5936  0.5642
14009TIP3    H263443   2.128   5.382   5.083 -0.7522 -0.8106 -1.3096
14010TIP3   OH263444   5.120   4.949  17.037  0.0769  0.3031 -0.1934
14010TIP3    H163445   5.182   4.912  16.974  0.1525 -0.6298  0.4048
14010TIP3    H263446   5.091   5.031  16.997  0.8928  0.2325 -0.9700
14011TIP3   OH263447   2.861   5.027   0.668 -0.1433  0.1062 -0.1583
14011TIP3    H163448   2.852   5.011   0.574 -2.1650 -1.8137  0.2688
14011TIP3    H263449   2.838   5.119   0.679 -1.4305 -0.0261 -1.4143
14012TIP3   OH263450   2.196   0.337  17.092  0.2718  0.0065  0.4684
14012TIP3    H163451   2.241   0.264  17.135  0.1349 -0.5243 -0.2913
14012TIP3    H263452   2.137   0.371  17.160 -0.0695 -0.9329  0.6533
14013TIP3   OH263453   5.317   5.232  16.998  0.5917  0.0080 -0.3208
14013TIP3    H163454   5.293   5.312  16.950  0.9284  0.3638  0.1045
14013TIP3    H263455   5.254   5.228  17.070 -0.5954 -1.0876 -1.3536
14014TIP3   OH263456   4.008   1.611   3.372 -0.7950  0.3765 -0.0691
14014TIP3    H163457   3.958   1.657   3.440 -0.2622 -0.3089  0.8114
14014TIP3    H263458   3.995   1.663   3.293 -2.1494  0.7148  0.3527
14015TIP3   OH263459   4.942   3.420  15.725 -0.3848  0.0420  0.1366
14015TIP3    H163460   4.991   3.342  15.751  2.1071  0.4236 -2.7784
14015TIP3    H263461   4.862   3.387  15.684  0.4644 -1.0057 -0.7141
14016TIP3   OH263462   2.643   2.637  13.856 -0.3177  0.1077 -0.4486
14016TIP3    H163463   2.558   2.646  13.813  0.3446 -0.6085 -1.9677
14016TIP3    H263464   2.622   2.597  13.941 -1.5636  0.7345 -0.4280
14017TIP3   OH263465   6.027   6.479   6.517 -0.1978  0.5492 -0.2743
14017TIP3    H163466   6.097   6.449   6.574 -0.0143  0.6252 -0.4596
14017TIP3    H263467   5.947   6.464   6.567  0.0121  1.3194  0.3131
14018TIP3   OH263468   5.940   4.095  13.770 -0.3544  0.2653 -0.2705
14018TIP3    H163469   5.845   4.085  13.765 -0.2883  0.0210 -3.5831
14018TIP3    H263470   5.973   4.006  13.780 -0.4714  0.2828  0.2518
14019TIP3   OH263471   2.372   0.383   0.944  0.4094  0.2458  0.1200
14019TIP3    H163472   2.352   0.379   0.851  0.8256 -1.9336  0.0740
14019TIP3    H263473   2.417   0.300   0.963 -0.1697  0.3736  2.3637
14020TIP3   OH263474   4.671   2.893   4.080  0.4574 -0.3451  0.1709
14020TIP3    H163475   4.757   2.879   4.121 -0.4469 -1.4582  1.7720
14020TIP3    H263476   4.653   2.811   4.034 -0.2135 -0.5150  0.7310
14021TIP3   OH263477   4.894   4.970  16.502  0.4836  0.3429  0.0281
14021TIP3    H163478   4.835   4.948  16.430  1.7833  2.6664 -1.9284
14021TIP3    H263479   4.865   5.057  16.531  0.8748  0.0575  1.3530
14022TIP3   OH263480   1.547   1.446   3.928  0.0366  0.1632  0.1820
14022TIP3    H163481   1.598   1.384   3.980  1.3292  0.0381 -1.1475
14022TIP3    H263482   1.474   1.394   3.893  1.1063 -0.6526 -0.9162
14023TIP3   OH263483   2.136   5.493   5.441 -0.1845 -0.6265 -0.3722
14023TIP3    H163484   2.067   5.504   5.376 -0.3469  1.0728  0.0337
14023TIP3    H263485   2.095   5.517   5.524  0.9967  0.8919 -0.1943
14024TIP3   OH263486   0.542   4.724  16.606 -0.2790 -0.0246 -0.1176
14024TIP3    H163487   0.491   4.766  16.537  0.0679 -1.1209 -1.0617
14024TIP3    H263488   0.563   4.637  16.572 -1.2904 -1.1370  1.9296
14025TIP3   OH263489   0.435   3.028   1.107 -0.6854 -0.3062 -0.5524
14025TIP3    H163490   0.411   2.961   1.170 -1.1463 -0.3496 -0.7652
14025TIP3    H263491   0.516   2.996   1.067 -0.4876 -0.3614 -0.1115
14026TIP3   OH263492   1.684   0.867   1.939 -0.7729 -0.2628 -0.1084
14026TIP3    H163493   1.700   0.930   2.009 -1.0935  2.0624 -1.9931
14026TIP3    H263494   1.597   0.832   1.957 -2.0504  2.3577 -0.6889
14027TIP3   OH263495   0.138   5.090  11.725 -0.0233  0.9086 -0.2518
14027TIP3    H163496   0.112   5.106  11.635  0.5510  0.7239 -0.4490
14027TIP3    H263497   0.210   5.028  11.720 -0.3956  0.3989  0.3672
14028TIP3   OH263498   5.762   0.017  14.206 -0.3396  0.1103 -0.4110
14028TIP3    H163499   5.738  -0.027  14.288 -0.2275  0.2043 -0.3278
14028TIP3    H263500   5.697  -0.014  14.143 -1.0443  0.8149 -0.0442
14029TIP3   OH263501   2.276   2.281  17.010  0.7356  0.2499  0.0398
14029TIP3    H163502   2.221   2.260  16.935  1.2174  1.9016 -0.8473
14029TIP3    H263503   2.318   2.199  17.034  0.3059 -0.3809 -1.3055
14030TIP3   OH263504   5.679   3.390   3.253  0.0209  0.0718  0.2269
14030TIP3    H163505   5.743   3.319   3.253 -0.4917 -0.3949  0.4545
14030TIP3    H263506   5.728   3.466   3.221  0.5131 -0.4377 -0.2658
14031TIP3   OH263507   3.799   3.067  14.854 -0.5018 -0.0548 -0.0557
14031TIP3    H163508   3.709   3.058  14.887 -1.3739  0.9021 -1.9890
14031TIP3    H263509   3.853   3.022  14.919 -2.3237 -0.2638  1.4019
14032TIP3   OH263510   6.315   0.817  11.595  0.3658  0.1556  0.5082
14032TIP3    H163511   6.290   0.763  11.520  1.5700  0.5456 -0.2102
14032TIP3    H263512   6.287   0.905  11.572  1.6274  0.4570  0.0405
14033TIP3   OH263513   4.783   4.030  14.035  0.3444  0.4229  0.2581
14033TIP3    H163514   4.829   3.953  14.001  1.1414  0.6496  0.7912
14033TIP3    H263515   4.701   4.033  13.986  1.4648  0.7704 -1.6776
14034TIP3   OH263516   6.200   0.641  11.379 -0.2082 -0.3320 -0.3854
14034TIP3    H163517   6.107   0.652  11.398 -0.1546  0.1217 -0.3693
14034TIP3    H263518   6.217   0.702  11.306  0.0361 -0.5336 -0.4999
14035TIP3   OH263519   6.304   4.346  14.223 -0.0190 -0.2705 -0.4055
14035TIP3    H163520   6.284   4.323  14.314  0.4762 -0.9976 -0.4814
14035TIP3    H263521   6.218   4.366  14.185 -0.5150 -2.2028 -0.3949
14036TIP3   OH263522   2.111   6.031  13.345 -0.4856  0.0173  0.2492
14036TIP3    H163523   2.120   5.989  13.260  0.4806 -0.5586  0.6167
14036TIP3    H263524   2.127   5.961  13.408 -0.9686  0.4848  0.9076
14037TIP3   OH263525   2.961   1.637   0.498  0.9991  0.2896 -0.4696
14037TIP3    H163526   2.887   1.693   0.477  1.1565  0.0087 -1.8769
14037TIP3    H263527   2.928   1.579   0.568  0.2239  0.8284 -0.3735
14038TIP3   OH263528   2.474   5.476  13.213 -0.6106  0.7763 -0.2441
14038TIP3    H163529   2.384   5.449  13.231  0.0825 -1.6861 -0.1901
14038TIP3    H263530   2.528   5.406  13.249  1.3558  2.1371 -0.3841
14039TIP3   OH263531   0.342   5.623  16.919  0.6446 -0.7366 -0.0627
14039TIP3    H163532   0.409   5.589  16.978  0.3820 -0.5186  0.3596
14039TIP3    H263533   0.381   5.702  16.881 -0.1041  0.5189  1.6755
14040TIP3   OH263534   0.345   1.173  15.288 -0.3099  0.4484  0.7298
14040TIP3    H163535   0.254   1.146  15.272 -0.5505  1.1152  0.9379
14040TIP3    H263536   0.398   1.109  15.241 -0.8084 -1.3697  2.5311
14041TIP3   OH263537   0.501   1.272  11.401  0.6783 -0.4707  0.1994
14041TIP3    H163538   0.444   1.343  11.429  1.3133  0.3845 -0.6316
14041TIP3    H263539   0.449   1.193  11.417 -1.2683  0.3246 -1.6693
14042TIP3   OH263540   5.240   1.301  12.542  0.0427  0.6091  0.4355
14042TIP3    H163541   5.283   1.287  12.457  0.6590  1.2377  0.6335
14042TIP3    H263542   5.264   1.390  12.566 -0.2964  0.5036  1.1798
14043TIP3   OH263543   4.295   3.548   0.684 -0.1022  0.6744  0.1407
14043TIP3    H163544   4.343   3.470   0.656  1.3560  1.8236 -0.6910
14043TIP3    H263545   4.301   3.548   0.779  1.7860  0.8916  0.0591
14044TIP3   OH263546   0.038   4.486  16.515 -0.1636  0.3354 -0.0013
14044TIP3    H163547   0.014   4.518  16.602 -0.0268  1.1748 -0.2694
14044TIP3    H263548   0.123   4.525  16.497 -0.5208  0.7792 -0.8160
14045TIP3   OH263549   6.403   1.854   5.079 -0.1763  0.1230 -0.1465
14045TIP3    H163550   6.309   1.867   5.090 -0.0441  2.2888 -0.9497
14045TIP3    H263551   6.443   1.923   5.132  0.9479 -0.4620 -0.2053
14046TIP3   OH263552   1.141   4.186  13.977 -0.0576  0.5068  0.3327
14046TIP3    H163553   1.203   4.216  13.911 -0.9955 -3.0205 -2.5428
14046TIP3    H263554   1.055   4.203  13.938 -0.7179  0.0176  1.5190
14047TIP3   OH263555   5.303   0.463  12.648 -0.2624 -0.0263 -0.0727
14047TIP3    H163556   5.329   0.528  12.583  3.5258 -1.9043 -0.7665
14047TIP3    H263557   5.340   0.380  12.615 -1.8866 -1.8920  2.4018
14048TIP3   OH263558   0.994   3.842   5.183 -0.4495 -0.3488  0.2823
14048TIP3    H163559   1.010   3.868   5.274 -1.7421  0.6590  0.2470
14048TIP3    H263560   1.044   3.761   5.173 -0.3692 -0.5448  1.9212
14049TIP3   OH263561   0.274   4.554   5.448  0.2976 -0.5446  0.4917
14049TIP3    H163562   0.194   4.607   5.453  0.2866 -0.5319  0.2053
14049TIP3    H263563   0.283   4.516   5.535  0.4065  0.0792  0.7600
14050TIP3   OH263564   5.961   3.650   0.074  0.0510 -0.1277  0.8224
14050TIP3    H163565   5.944   3.664  -0.019 -2.0960 -1.1250  1.0046
14050TIP3    H263566   6.052   3.677   0.086  0.9019 -1.3923 -1.8776
14051TIP3   OH263567   2.506   0.657   5.556 -0.1965 -0.1766  0.0764
14051TIP3    H163568   2.498   0.669   5.650  1.8075 -0.7357  0.3638
14051TIP3    H263569   2.463   0.573   5.538 -1.1450  0.2362  0.3693
14052TIP3   OH263570   1.455   0.121   0.163  0.1760 -0.2894  0.7413
14052TIP3    H163571   1.463   0.094   0.255  0.5498  0.7305  1.0290
14052TIP3    H263572   1.544   0.147   0.138 -0.0775  0.2183  0.3505
14053TIP3   OH263573   5.986   5.113  13.986 -0.2165 -0.2214  0.2415
14053TIP3    H163574   6.029   5.132  13.902 -0.0832 -0.3073  0.2913
14053TIP3    H263575   6.032   5.169  14.049 -0.5868  0.1496  0.1880
14054TIP3   OH263576   5.857   1.039  13.737  0.3069 -0.8770  0.5970
14054TIP3    H163577   5.924   0.986  13.779  1.6960 -0.4338 -0.9511
14054TIP3    H263578   5.775   0.993  13.755  1.1819 -2.1860  1.3824
14055TIP3   OH263579   4.989   0.185  14.857 -0.5260 -0.6811 -0.1981
14055TIP3    H163580   4.910   0.226  14.823 -0.3739  0.6076  0.9337
14055TIP3    H263581   5.019   0.243  14.927  0.5709 -1.9347  0.4294
14056TIP3   OH263582   0.528   0.896  14.918 -0.1484 -0.1781  0.6706
14056TIP3    H163583   0.445   0.935  14.946  0.0212  0.5753  0.1434
14056TIP3    H263584   0.592   0.931  14.980  0.3870  2.2205 -1.0691
14057TIP3   OH263585   2.177   4.227  14.554  0.0724  0.3818  0.2419
14057TIP3    H163586   2.113   4.296  14.535 -1.2131 -0.8513 -0.1309
14057TIP3    H263587   2.190   4.233  14.649  0.6915  1.7067  0.0909
14058TIP3   OH263588   5.384   3.261   2.239 -0.2081 -0.5627 -0.1875
14058TIP3    H163589   5.416   3.327   2.301  1.5597 -2.1785  0.7190
14058TIP3    H263590   5.309   3.221   2.283 -0.0185 -0.5377  0.1613
14059TIP3   OH263591   6.242   0.874   4.234 -0.0948  0.2148  0.0656
14059TIP3    H163592   6.258   0.795   4.286  0.5997  0.7747  0.7214
14059TIP3    H263593   6.259   0.946   4.294  1.5514  0.8965 -1.1275
14060TIP3   OH263594   4.853   1.899   0.640  0.0257  0.0601  0.2691
14060TIP3    H163595   4.890   1.882   0.553  0.7178  0.9325  0.3741
14060TIP3    H263596   4.758   1.894   0.627  0.0980  0.9038 -0.7000
14061TIP3   OH263597   2.664   3.827  11.565 -0.1565  0.6193  0.4837
14061TIP3    H163598   2.658   3.919  11.539 -0.4422  0.4444 -0.1010
14061TIP3    H263599   2.714   3.828  11.646  0.1176  1.2625  0.3133
14062TIP3   OH263600   4.426   0.367   2.663  0.2581  0.2904 -0.8995
14062TIP3    H163601   4.379   0.285   2.675  0.2989  0.2615 -0.9403
14062TIP3    H263602   4.445   0.397   2.752 -1.8156  1.4418 -0.7886
14063TIP3   OH263603   4.158   5.075   4.458  0.5591  0.6083 -0.1006
14063TIP3    H163604   4.252   5.072   4.441  0.2959  2.0036 -2.2473
14063TIP3    H263605   4.151   5.114   4.545  1.9636 -1.8455  1.2123
14064TIP3   OH263606   4.265   0.659  15.247  0.1721  0.5174 -0.5818
14064TIP3    H163607   4.210   0.589  15.284 -0.0622 -0.0123 -1.8674
14064TIP3    H263608   4.289   0.713  15.322 -3.2833  1.6200 -0.1174
14065TIP3   OH263609   1.608   5.258  15.309  0.0566  0.2421  0.0210
14065TIP3    H163610   1.597   5.238  15.402  1.7581 -0.0039  0.1947
14065TIP3    H263611   1.701   5.278  15.299 -0.2811  1.2450 -1.4547
14066TIP3   OH263612   1.991   3.498   1.163 -0.5994  0.0565  0.0444
14066TIP3    H163613   2.082   3.483   1.138 -0.3856  0.0457  0.8051
14066TIP3    H263614   1.993   3.578   1.216 -1.1575  0.5261 -0.6303
14067TIP3   OH263615   5.451   2.081  17.431 -0.3621  0.1546  0.6315
14067TIP3    H163616   5.380   2.026  17.399 -2.5111  1.2038  3.2513
14067TIP3    H263617   5.428   2.169  17.400  1.9574  0.0491 -1.7669
14068TIP3   OH263618   5.809   0.240   0.153 -0.0425  0.7804  0.3246
14068TIP3    H163619   5.722   0.201   0.144  0.5219 -0.3812 -0.4675
14068TIP3    H263620   5.860   0.174   0.200  0.2645  1.7123  1.3346
14069TIP3   OH263621   0.477   2.252  13.813  0.1556 -0.2416  0.2210
14069TIP3    H163622   0.547   2.305  13.776  2.0501 -0.8085  2.7148
14069TIP3    H263623   0.438   2.308  13.880 -1.7955  0.0201 -1.0467
14070TIP3   OH263624   6.078   6.324   5.956  0.3234  0.1970 -0.3464
14070TIP3    H163625   6.126   6.340   5.874  2.2576  0.2879  0.7324
14070TIP3    H263626   6.084   6.229   5.968  0.7581  0.2725  0.0734
14071TIP3   OH263627   5.056   3.149  16.821 -0.0539 -0.3984  0.4825
14071TIP3    H163628   5.015   3.114  16.900 -1.9298  0.4533 -0.0559
14071TIP3    H263629   5.133   3.094  16.808 -0.3427 -1.3003  2.2371
14072TIP3   OH263630   5.693   1.248  16.110 -0.4292 -0.0617 -0.5017
14072TIP3    H163631   5.691   1.285  16.198 -2.0055 -1.3880  0.0649
14072TIP3    H263632   5.673   1.156  16.122 -0.4518 -0.3152 -2.2463
14073TIP3   OH263633   0.844   3.513  14.531 -0.5851 -0.3534  0.3680
14073TIP3    H163634   0.816   3.526  14.622 -0.6311  2.0051  0.0974
14073TIP3    H263635   0.939   3.521  14.534 -0.5914 -0.2083  0.2096
14074TIP3   OH263636   4.803   0.779  17.049  0.1236  0.2977 -0.2288
14074TIP3    H163637   4.760   0.727  16.980 -1.8027  1.2488  0.1818
14074TIP3    H263638   4.874   0.824  17.004 -0.4945  0.1485 -1.4017
14075TIP3   OH263639   3.713   4.867  14.530  0.1182  0.4077 -0.1158
14075TIP3    H163640   3.800   4.829  14.542 -0.0317  0.4279  1.3217
14075TIP3    H263641   3.709   4.938  14.595 -1.0242  0.2795 -0.0261
14076TIP3   OH263642   5.380   4.867  15.881 -0.0213  0.1803  0.1466
14076TIP3    H163643   5.463   4.826  15.858  0.0729  0.8754 -0.8280
14076TIP3    H263644   5.355   4.827  15.964  1.1777 -0.2012  0.3394
14077TIP3   OH263645   2.269   6.154  14.606 -0.1199  0.2560 -0.3023
14077TIP3    H163646   2.334   6.165  14.537  1.1787  0.1114  0.8525
14077TIP3    H263647   2.315   6.179  14.687 -1.7608  0.9988  0.4560
14078TIP3   OH263648   5.343   3.439   3.255 -0.2684  0.5198  0.3418
14078TIP3    H163649   5.411   3.371   3.259  0.6274  1.3672  0.1619
14078TIP3    H263650   5.274   3.408   3.312 -0.4107 -1.1028 -0.6398
14079TIP3   OH263651   6.139   2.395  10.770 -0.4843  0.3047  0.0666
14079TIP3    H163652   6.224   2.390  10.725 -1.6080  2.1188 -2.4842
14079TIP3    H263653   6.102   2.307  10.760  0.1053  0.1534 -0.8991
14080TIP3   OH263654   0.249   4.907   5.413 -0.1866  0.2899  0.2435
14080TIP3    H163655   0.175   4.909   5.473  0.9895 -2.3545  2.0195
14080TIP3    H263656   0.211   4.888   5.328 -1.6056 -1.1284  1.1361
14081TIP3   OH263657   6.403   0.981  14.706 -0.1796 -0.1209 -0.5060
14081TIP3    H163658   6.455   0.902  14.717  0.4151  0.3163 -0.1265
14081TIP3    H263659   6.393   0.989  14.611 -1.1333 -1.2054 -0.5223
14082TIP3   OH263660   5.535   5.596  13.503  0.5197  0.2065 -0.1796
14082TIP3    H163661   5.495   5.614  13.417  0.7189  3.1152  0.2563
14082TIP3    H263662   5.463   5.607  13.565  0.9300  0.6387  0.2209
14083TIP3   OH263663   0.974   3.353   4.156  0.4904  0.2399  0.0168
14083TIP3    H163664   0.907   3.420   4.143  1.7156  1.1026 -2.7686
14083TIP3    H263665   0.951   3.283   4.095  1.4243 -0.0089 -0.0751
14084TIP3   OH263666   4.408   6.312   6.171  0.1119 -0.8406  0.4328
14084TIP3    H163667   4.387   6.392   6.219  1.2427  1.1156 -2.1170
14084TIP3    H263668   4.486   6.277   6.214 -0.1434 -0.3628  1.3030
14085TIP3   OH263669   3.800   4.735   5.676  0.1164 -0.5579 -0.0356
14085TIP3    H163670   3.760   4.650   5.696  1.3267 -1.1136  0.0719
14085TIP3    H263671   3.792   4.784   5.758  0.7177 -1.0993  0.3582
14086TIP3   OH263672   1.700   1.491  16.488 -0.2793  0.4104  0.7833
14086TIP3    H163673   1.779   1.486  16.435 -0.5639  0.7675  0.3197
14086TIP3    H263674   1.629   1.466  16.428 -0.6300  1.0562  0.9186
14087TIP3   OH263675   4.736   1.939  17.372  0.4315 -0.1817  0.2488
14087TIP3    H163676   4.664   1.880  17.394 -0.1285 -0.3074 -1.7118
14087TIP3    H263677   4.707   2.025  17.402 -0.9639 -0.0791 -1.2691
14088TIP3   OH263678   3.058   6.404   0.182 -0.4095 -0.2092  0.4829
14088TIP3    H163679   3.125   6.338   0.164  2.1890  1.7436  2.2410
14088TIP3    H263680   3.066   6.467   0.111 -1.7229 -0.8834 -0.2914
14089TIP3   OH263681   3.822   5.324   2.533  0.8954  0.2913 -0.5501
14089TIP3    H163682   3.762   5.389   2.498 -0.5720 -1.2979 -1.1605
14089TIP3    H263683   3.909   5.361   2.520  0.0997  3.1022  1.1904
14090TIP3   OH263684   4.505   4.790  13.589 -0.1352 -0.5893  0.2294
14090TIP3    H163685   4.500   4.700  13.621  1.4890 -1.2166 -1.1121
14090TIP3    H263686   4.577   4.829  13.639  0.6399 -0.7532 -0.7264
14091TIP3   OH263687   5.534   2.897   5.775  0.1588 -0.0891 -0.1561
14091TIP3    H163688   5.520   2.949   5.696 -2.7407 -0.2759  0.1350
14091TIP3    H263689   5.594   2.828   5.747 -0.4852  0.0682 -2.1222
14092TIP3   OH263690   3.161   0.278  12.079 -0.0355 -0.2398  0.1324
14092TIP3    H163691   3.075   0.262  12.118 -0.2298 -1.0921 -0.6214
14092TIP3    H263692   3.200   0.346  12.135 -0.8718 -0.4086  0.9525
14093TIP3   OH263693   6.324   4.810   0.792  0.3405 -0.0498 -0.5567
14093TIP3    H163694   6.300   4.899   0.767  0.4889 -0.5188 -2.4545
14093TIP3    H263695   6.410   4.818   0.832  0.8081  0.5376 -1.6567
14094TIP3   OH263696   6.112   0.385   2.025 -0.1872 -0.3302  0.3812
14094TIP3    H163697   6.145   0.470   2.052 -1.2393  0.4675 -0.7087
14094TIP3    H263698   6.190   0.333   2.008  0.4834  0.6264  0.4575
14095TIP3   OH263699   4.456   2.237   5.420 -0.3845 -0.0504 -0.3410
14095TIP3    H163700   4.453   2.317   5.472 -2.2181  1.1804 -2.1618
14095TIP3    H263701   4.541   2.239   5.377  1.6655 -1.6554  3.1960
14096TIP3   OH263702   2.948   0.584  14.154  0.1786 -0.0990 -0.0874
14096TIP3    H163703   3.017   0.604  14.217  1.4300 -2.2994 -0.6610
14096TIP3    H263704   2.988   0.599  14.069 -0.5185 -0.0943 -0.4200
14097TIP3   OH263705   3.090   4.049  16.693  0.3759  0.3025  0.6775
14097TIP3    H163706   3.058   4.103  16.765 -1.2582 -1.1310  1.1008
14097TIP3    H263707   3.119   3.968  16.736  1.0317  0.0983 -0.1243
14098TIP3   OH263708   6.255   3.892  12.160  0.2146  0.1338 -0.3366
14098TIP3    H163709   6.194   3.842  12.106 -0.0152  0.1815 -0.1214
14098TIP3    H263710   6.296   3.954  12.099  0.7773 -0.5648 -0.6819
14099TIP3   OH263711   1.372   4.040  14.546  0.0856 -0.1707 -0.3787
14099TIP3    H163712   1.349   4.036  14.454  0.5751 -1.4451 -0.4625
14099TIP3    H263713   1.464   4.014  14.550 -0.1988 -1.1424  0.5502
14100TIP3   OH263714   2.320   4.292  15.654  0.5842 -0.0827  0.1228
14100TIP3    H163715   2.298   4.233  15.726  2.7676 -1.4646 -0.2782
14100TIP3    H263716   2.310   4.239  15.575 -0.2492  0.9612 -0.4992
14101TIP3   OH263717   4.004   5.623  17.331  0.3002  0.2974 -0.1722
14101TIP3    H163718   3.944   5.629  17.257  0.2456 -0.8230 -0.2384
14101TIP3    H263719   4.088   5.654  17.296  0.3161 -0.3800 -0.7757
14102TIP3   OH263720   3.889   3.386   6.664  0.3650 -0.2909  0.1367
14102TIP3    H163721   3.811   3.373   6.718  0.5005 -1.4166  0.0971
14102TIP3    H263722   3.860   3.440   6.591 -0.6171 -1.4533 -0.3595
14103TIP3   OH263723   5.303   2.944  17.016 -0.0684  0.0025  0.2630
14103TIP3    H163724   5.246   3.006  17.062 -0.8023  0.2271 -0.9124
14103TIP3    H263725   5.365   2.914  17.083  1.5359  3.3940  0.4927
14104TIP3   OH263726   1.270   2.071  13.486 -0.3403  0.3330  0.5492
14104TIP3    H163727   1.294   2.145  13.430 -0.8386 -0.3043 -0.5313
14104TIP3    H263728   1.350   2.051  13.534  0.0693  0.9535  0.1479
14105TIP3   OH263729   0.289   0.556  16.782  0.1837  0.2685 -0.1440
14105TIP3    H163730   0.288   0.613  16.860 -0.2945 -1.2253  0.9862
14105TIP3    H263731   0.375   0.570  16.744  0.9198  0.1157  1.3847
14106TIP3   OH263732   6.188   6.107   4.871 -0.8970  0.0278 -0.5579
14106TIP3    H163733   6.175   6.112   4.965 -0.0854 -0.1472 -0.4327
14106TIP3    H263734   6.277   6.138   4.857 -1.0826  0.2479 -1.2893
14107TIP3   OH263735   1.485   4.783   1.169  0.0707  0.1466  0.5893
14107TIP3    H163736   1.537   4.841   1.224  0.0944  0.4697  0.2313
14107TIP3    H263737   1.487   4.699   1.214  1.3234  0.0167  0.3407
14108TIP3   OH263738   4.694   5.267   5.231 -0.0128 -1.0937  0.5048
14108TIP3    H163739   4.674   5.285   5.139  0.0256 -0.6378  0.5809
14108TIP3    H263740   4.615   5.293   5.278  0.7846  0.9174  0.8274
14109TIP3   OH263741   0.886   2.790   0.864 -0.1685  0.4408  0.4318
14109TIP3    H163742   0.857   2.707   0.903 -2.0317  0.6771 -0.3578
14109TIP3    H263743   0.974   2.771   0.832 -0.2535 -1.0095  0.9485
14110TIP3   OH263744   2.026   5.552   2.169 -0.2378 -0.0105  0.1003
14110TIP3    H163745   1.940   5.564   2.209 -0.4906 -1.3881  0.0079
14110TIP3    H263746   2.067   5.639   2.174 -0.9624  0.2707  1.6803
14111TIP3   OH263747   5.168   5.954  16.133  0.8526  0.3772  0.4710
14111TIP3    H163748   5.152   6.047  16.143 -0.5394  0.1769  0.3441
14111TIP3    H263749   5.224   5.946  16.056  0.8005  1.0858  0.3621
14112TIP3   OH263750   3.210   6.703  14.208  0.1193  0.2127  0.1685
14112TIP3    H163751   3.179   6.612  14.204  0.0430  0.2654 -0.5602
14112TIP3    H263752   3.288   6.699  14.264 -0.5580 -0.1032  1.1063
14113TIP3   OH263753   5.293   2.729  16.754  0.8597  0.2279 -0.5162
14113TIP3    H163754   5.358   2.720  16.823  0.7105 -0.6850 -0.4796
14113TIP3    H263755   5.305   2.652  16.699 -0.0902  0.1057 -0.5820
14114TIP3   OH263756   4.480   3.167   4.546  0.1350  0.2561  0.3869
14114TIP3    H163757   4.479   3.246   4.492 -1.4718  0.5790  0.8309
14114TIP3    H263758   4.441   3.099   4.491 -0.8723  0.4187  0.8876
14115TIP3   OH263759   0.058   2.595  14.347  0.2725  0.2521 -0.2353
14115TIP3    H163760   0.057   2.499  14.342 -0.3577  0.1721  0.9157
14115TIP3    H263761  -0.033   2.619  14.363  0.3634  1.0856 -0.8915
14116TIP3   OH263762   0.836   2.425  16.011 -0.1909 -0.8080  0.1551
14116TIP3    H163763   0.868   2.436  15.922  0.2045 -2.2146  0.1004
14116TIP3    H263764   0.745   2.456  16.008  0.3147  0.6744 -0.3319
14117TIP3   OH263765   3.783   0.687   6.276 -0.0974 -0.3536 -0.4831
14117TIP3    H163766   3.721   0.632   6.325  0.0341  0.6576  0.8726
14117TIP3    H263767   3.853   0.706   6.339 -0.6935  2.3002 -0.4972
14118TIP3   OH263768   1.789   4.409   4.029  0.1189  0.0680  0.2353
14118TIP3    H163769   1.695   4.404   4.042 -0.1153  1.6954 -0.5509
14118TIP3    H263770   1.819   4.318   4.034 -1.2272 -0.3285  2.1357
14119TIP3   OH263771   3.313   3.446  14.312 -0.3278  0.0418 -0.2174
14119TIP3    H163772   3.291   3.360  14.346  0.1461  0.3666  0.9766
14119TIP3    H263773   3.388   3.474  14.365  1.2647  0.0765 -2.3395
14120TIP3   OH263774   5.185   1.347  16.571 -0.2820  0.3498  0.2296
14120TIP3    H163775   5.204   1.440  16.581 -0.8781  0.6655 -1.2885
14120TIP3    H263776   5.269   1.308  16.548  0.5939 -0.0113  3.4856
14121TIP3   OH263777   0.714   2.445  13.802  0.0735 -0.0693 -0.2274
14121TIP3    H163778   0.799   2.411  13.773  0.0989 -0.1377 -0.0744
14121TIP3    H263779   0.709   2.421  13.894 -0.5605 -0.9940 -0.4799
14122TIP3   OH263780   5.442   0.182  15.569 -0.0570 -0.5364  0.7873
14122TIP3    H163781   5.348   0.170  15.560 -0.1607 -0.3085  1.5443
14122TIP3    H263782   5.476   0.176  15.480 -0.9417  0.7582  0.3511
14123TIP3   OH263783   3.335   1.483   6.018 -0.0226 -0.3545  0.1864
14123TIP3    H163784   3.389   1.542   6.070  1.8450  0.0660 -2.0797
14123TIP3    H263785   3.389   1.404   6.007  0.0984 -0.0458 -1.8729
14124TIP3   OH263786   5.275   5.848  16.811 -0.3528  0.1687 -0.3037
14124TIP3    H163787   5.301   5.824  16.722  0.2243 -2.7329  0.5600
14124TIP3    H263788   5.352   5.892  16.848  0.0364 -0.1976 -0.6756
14125TIP3   OH263789   1.095   0.114   4.051  0.5099 -0.0122  0.2639
14125TIP3    H163790   1.077   0.071   4.135  1.5583 -2.2949 -0.5904
14125TIP3    H263791   1.125   0.043   3.994  1.1302  1.6982 -1.6578
14126TIP3   OH263792   2.065   1.389  14.415  0.2683 -0.4314  0.1017
14126TIP3    H163793   2.096   1.303  14.388 -0.4481 -1.1850  1.5230
14126TIP3    H263794   2.046   1.379  14.508  0.5342  1.3883  0.3884
14127TIP3   OH263795   1.082   5.210   5.920  0.1175 -0.1716  0.0982
14127TIP3    H163796   1.123   5.252   5.995 -0.4909  0.8317 -0.1112
14127TIP3    H263797   1.126   5.246   5.844  0.7342 -1.1895 -0.0425
14128TIP3   OH263798   4.275   4.362  16.638  0.5902 -0.4514 -0.0923
14128TIP3    H163799   4.266   4.348  16.544  0.6430 -0.3869 -0.1080
14128TIP3    H263800   4.221   4.438  16.656  0.3254 -0.6568 -0.0150
14129TIP3   OH263801   2.568   3.697  16.891 -0.1500  0.0350 -0.9540
14129TIP3    H163802   2.553   3.604  16.870  1.8245 -0.9485  1.5033
14129TIP3    H263803   2.584   3.698  16.985 -2.0035  3.2062 -0.5403
14130TIP3   OH263804   4.411   1.941   2.225  0.4729  0.1011  0.3829
14130TIP3    H163805   4.435   2.017   2.278 -1.6126  0.8337  0.3691
14130TIP3    H263806   4.396   1.977   2.137  2.8945 -0.9393 -0.5577
14131TIP3   OH263807   4.123   2.216   4.696  0.1733  0.1873 -0.1868
14131TIP3    H163808   4.181   2.218   4.772  0.6407 -1.3105 -0.4831
14131TIP3    H263809   4.051   2.274   4.720 -0.0105 -0.7255  1.6669
14132TIP3   OH263810   2.176   3.932   5.623  0.3580 -0.2860 -0.4557
14132TIP3    H163811   2.267   3.947   5.597  0.2117 -0.1891 -0.9181
14132TIP3    H263812   2.141   4.019   5.640  0.3193 -0.3169 -0.3737
14133TIP3   OH263813   1.267   0.495   2.127  0.1038  0.0993 -0.2572
14133TIP3    H163814   1.287   0.408   2.163  1.2304  0.7999  0.9110
14133TIP3    H263815   1.352   0.530   2.100 -0.0601  1.5246  0.9433
14134TIP3   OH263816   1.429   5.667   0.731  0.0745  0.2937 -0.1540
14134TIP3    H163817   1.495   5.736   0.722  2.0357 -1.4297  0.2671
14134TIP3    H263818   1.479   5.586   0.729 -1.8217 -1.0616  2.1888
14135TIP3   OH263819   1.613   4.822  13.163 -0.1524 -1.0044  0.4607
14135TIP3    H163820   1.677   4.880  13.204 -0.0547 -1.9951  1.7637
14135TIP3    H263821   1.589   4.867  13.082  1.6161 -0.2585  0.3012
14136TIP3   OH263822   3.918   0.373   6.222 -0.6152  0.2103 -0.1035
14136TIP3    H163823   3.975   0.445   6.195 -0.5249  1.2856  2.6164
14136TIP3    H263824   3.839   0.417   6.255 -0.1701 -0.7964  2.5275
14137TIP3   OH263825   5.496   2.544  15.178  0.2821 -0.1163 -0.2149
14137TIP3    H163826   5.408   2.579  15.194 -0.1121 -1.6408  1.2541
14137TIP3    H263827   5.540   2.551  15.263  1.3547 -0.0194 -0.7600
14138TIP3   OH263828   6.104   1.518   5.048  0.0340  0.0149 -0.3647
14138TIP3    H163829   6.122   1.474   4.966 -1.5500  0.2590 -0.8761
14138TIP3    H263830   6.187   1.513   5.097  1.0244 -0.0468 -1.9852
14139TIP3   OH263831   5.386   0.213  14.076  0.6521  0.6690  0.7226
14139TIP3    H163832   5.439   0.271  14.021  3.4150 -0.0084  2.4920
14139TIP3    H263833   5.337   0.273  14.133  0.3317  1.2878 -0.1737
14140TIP3   OH263834   0.370   2.586   2.283  0.2844 -0.1078 -0.1492
14140TIP3    H163835   0.296   2.578   2.224  0.4340 -0.3460 -0.3082
14140TIP3    H263836   0.434   2.522   2.251  0.1961 -0.5557  0.5295
14141TIP3   OH263837   2.009   2.047   4.789 -0.3560 -0.3158 -0.7155
14141TIP3    H163838   2.078   2.039   4.723  0.5289  2.3187 -0.2230
14141TIP3    H263839   1.930   2.070   4.741 -0.6076 -1.9351 -1.1399
14142TIP3   OH263840   4.007   6.409  14.681 -0.6405 -0.1303  0.2403
14142TIP3    H163841   3.945   6.385  14.612  0.0034  1.5311 -1.0004
14142TIP3    H263842   4.060   6.331  14.694 -0.8020 -0.4962 -1.1363
14143TIP3   OH263843   3.613   6.499   0.282 -0.6187  0.6274 -0.2268
14143TIP3    H163844   3.519   6.485   0.273 -0.3269 -0.3109 -2.7528
14143TIP3    H263845   3.649   6.480   0.194  1.7803  2.1130  0.3247
14144TIP3   OH263846   0.754   3.894  14.825 -0.3016  0.2054  0.4094
14144TIP3    H163847   0.835   3.864  14.784 -1.4291 -1.9679 -0.3377
14144TIP3    H263848   0.763   3.868  14.917 -0.1296  0.0405  0.3470
14145TIP3   OH263849   2.866   1.061   0.533  0.1052  0.1554  0.6175
14145TIP3    H163850   2.784   1.080   0.580 -0.2562  1.2479 -0.4125
14145TIP3    H263851   2.934   1.072   0.599 -0.4047  1.4892  0.9642
14146TIP3   OH263852   4.912   0.869  14.643 -0.9658 -0.0118 -0.9004
14146TIP3    H163853   4.894   0.894  14.733  1.5301 -1.4196  0.1007
14146TIP3    H263854   4.849   0.799  14.624 -0.5779 -0.7229  0.3133
14147TIP3   OH263855   0.016   1.935  14.110  0.2252  0.2301  0.0354
14147TIP3    H163856   0.066   1.878  14.169  0.1108 -0.0012 -0.0872
14147TIP3    H263857  -0.036   1.874  14.057  0.2821  0.4396 -0.2613
14148TIP3   OH263858   3.343   2.792  11.234  0.4196  0.1822  0.1118
14148TIP3    H163859   3.408   2.732  11.197 -1.1337 -1.0520 -0.7392
14148TIP3    H263860   3.339   2.864  11.171 -0.6514 -0.8649 -1.0817
14149TIP3   OH263861   1.437   0.410   1.287 -0.2139  0.1551  0.1788
14149TIP3    H163862   1.443   0.331   1.340 -0.4755 -0.5490 -0.8203
14149TIP3    H263863   1.347   0.441   1.300 -0.5460 -0.4977 -0.5101
14150TIP3   OH263864   3.299   0.471  12.255 -0.3337 -0.1732 -0.1862
14150TIP3    H163865   3.304   0.564  12.231 -0.1054 -0.3797 -0.9567
14150TIP3    H263866   3.366   0.460  12.322 -1.7225  0.6547  1.4273
14151TIP3   OH263867   4.659   1.756  15.036  0.0923  0.1745 -0.1797
14151TIP3    H163868   4.614   1.718  14.960 -0.9574  1.2890 -0.1370
14151TIP3    H263869   4.710   1.683  15.072 -3.1787 -1.8045  0.9433
14152TIP3   OH263870   1.090   3.982   3.572 -0.4002 -0.2130  0.4196
14152TIP3    H163871   1.116   3.931   3.649 -0.1529 -1.8785 -0.7172
14152TIP3    H263872   0.999   3.957   3.556  0.0809 -1.2712 -0.8499
14153TIP3   OH263873   1.528   3.081   6.063 -0.0561  0.3577 -0.2531
14153TIP3    H163874   1.560   3.120   6.144 -1.1385 -0.7775  0.7747
14153TIP3    H263875   1.470   3.010   6.092 -0.6691  0.0785 -2.0263
14154TIP3   OH263876   3.850   4.434  12.742  0.7244  0.3598  0.0218
14154TIP3    H163877   3.813   4.520  12.762  1.7473  1.0799 -1.0416
14154TIP3    H263878   3.940   4.439  12.773  0.9367 -0.1482 -0.4975
14155TIP3   OH263879   1.304   2.562  11.573 -0.0144  0.0627 -0.1703
14155TIP3    H163880   1.334   2.510  11.647 -1.0631 -0.2721  0.0427
14155TIP3    H263881   1.328   2.652  11.596 -1.3818  0.1355  1.1769
14156TIP3   OH263882   6.472   3.207   3.730 -0.2168  0.5728  0.3167
14156TIP3    H163883   6.491   3.114   3.731  1.1934  0.8270  1.5593
14156TIP3    H263884   6.558   3.249   3.717 -0.8713  1.7018 -0.6307
14157TIP3   OH263885   1.627   3.637   4.948 -0.6226 -0.0804 -0.3332
14157TIP3    H163886   1.673   3.701   4.894 -0.6873  0.5080  0.2986
14157TIP3    H263887   1.691   3.608   5.012 -0.5485 -0.7749 -0.7082
14158TIP3   OH263888   0.355   5.203   2.526 -0.0138  0.3049  0.1828
14158TIP3    H163889   0.311   5.287   2.515  1.5170  0.9755 -1.1132
14158TIP3    H263890   0.308   5.144   2.466 -0.0008  0.6655 -0.1863
14159TIP3   OH263891   0.727   0.364   2.478 -0.3860  0.0598 -0.0935
14159TIP3    H163892   0.695   0.418   2.550  0.7328 -0.5888  0.9242
14159TIP3    H263893   0.674   0.391   2.403 -0.8310  1.5405  0.7038
14160TIP3   OH263894   2.457   0.321   2.708 -0.1623 -0.3719 -0.8147
14160TIP3    H163895   2.441   0.264   2.633 -1.3751  1.9767 -2.5099
14160TIP3    H263896   2.371   0.358   2.728  0.0560 -1.1711  2.0405
14161TIP3   OH263897   3.949   0.402   1.209  0.2346  0.1130 -0.4497
14161TIP3    H163898   3.854   0.400   1.198 -0.4202  1.1300  3.5081
14161TIP3    H263899   3.970   0.314   1.240  0.1456  0.6032  1.0495
14162TIP3   OH263900   4.112   4.933  13.262  0.0483 -0.6157 -0.2492
14162TIP3    H163901   4.078   5.004  13.207  0.3635 -0.1107  0.1959
14162TIP3    H263902   4.114   4.970  13.350  5.4741  0.9241 -0.6355
14163TIP3   OH263903   0.495   0.665   0.367 -0.1234  0.4850  0.0013
14163TIP3    H163904   0.402   0.665   0.343 -0.6828  2.6229  1.8628
14163TIP3    H263905   0.541   0.673   0.283 -1.6764  0.8963 -0.8526
14164TIP3   OH263906   3.285   4.815  13.778 -0.2854 -0.4069  0.5048
14164TIP3    H163907   3.192   4.833  13.762 -0.4056  0.2483  1.8265
14164TIP3    H263908   3.294   4.820  13.873  1.1651 -0.2110  0.3674
14165TIP3   OH263909   0.197   2.432  13.749  0.6378  0.2991 -0.2571
14165TIP3    H163910   0.290   2.443  13.768  1.0048 -1.0786 -1.0777
14165TIP3    H263911   0.195   2.397  13.660 -0.6717  0.3627 -0.2738
14166TIP3   OH263912   6.369   4.844   0.254  0.3167  0.5346  0.2655
14166TIP3    H163913   6.399   4.791   0.180 -0.3149  1.5318 -0.7336
14166TIP3    H263914   6.302   4.791   0.296 -0.4026  0.5627 -0.8031
14167TIP3   OH263915   4.604   5.443   1.111  0.2079 -0.7346  0.3739
14167TIP3    H163916   4.660   5.439   1.034 -0.9490  0.1266 -0.5478
14167TIP3    H263917   4.526   5.392   1.087  0.7158 -2.2487  1.7785
14168TIP3   OH263918   4.865   1.346  12.778  0.3506 -0.1587  0.0753
14168TIP3    H163919   4.933   1.309  12.721  1.3756  1.2656  0.3348
14168TIP3    H263920   4.873   1.296  12.860 -1.2535 -2.3446 -0.9758
14169TIP3   OH263921   0.631   6.298   2.591 -0.5311 -0.0957  0.0251
14169TIP3    H163922   0.713   6.301   2.542 -0.1796 -0.1384  0.6020
14169TIP3    H263923   0.643   6.228   2.655 -1.5549 -1.0536 -0.8060
14170TIP3   OH263924   0.879   1.807  13.010  0.6368 -0.2297  0.3640
14170TIP3    H163925   0.859   1.838  12.922  0.8573 -1.5044 -0.1717
14170TIP3    H263926   0.952   1.746  12.997  0.8458 -0.2314  1.4678
14171TIP3   OH263927   2.681   3.875   0.803 -0.6988 -0.0212  0.3576
14171TIP3    H163928   2.596   3.846   0.838  0.0491  0.7566  3.0784
14171TIP3    H263929   2.734   3.796   0.799 -1.3984 -0.4503 -1.0144
14172TIP3   OH263930   1.564   3.480   5.615 -0.2238  0.4529 -0.5107
14172TIP3    H163931   1.476   3.443   5.611  0.6651 -1.9477 -0.0057
14172TIP3    H263932   1.601   3.444   5.695  1.1398  1.5979 -0.5999
14173TIP3   OH263933   3.263   4.903  11.605 -0.5755  0.4593 -0.2223
14173TIP3    H163934   3.297   4.921  11.517 -0.8938 -0.9159 -0.6619
14173TIP3    H263935   3.309   4.965  11.662  1.1101  0.0633 -1.0861
14174TIP3   OH263936   4.318   4.704   0.969 -0.4766 -0.0643  0.0274
14174TIP3    H163937   4.388   4.642   0.990 -1.4394 -0.9909  0.6791
14174TIP3    H263938   4.280   4.726   1.054 -0.1780  1.4204 -0.2087
14175TIP3   OH263939   6.410   1.709   6.213 -0.2618  0.2436 -0.2680
14175TIP3    H163940   6.440   1.800   6.207 -0.1734  0.1235 -2.2749
14175TIP3    H263941   6.435   1.681   6.301 -1.0576  2.4066  0.6994
14176TIP3   OH263942   1.462   3.596  15.534  0.1875  0.2867  0.0169
14176TIP3    H163943   1.406   3.674  15.524  1.4893  1.0139 -2.3360
14176TIP3    H263944   1.543   3.630  15.573  0.2860 -0.1291  0.1802
14177TIP3   OH263945   3.362   2.956   5.578  0.2777  0.1599  0.6555
14177TIP3    H163946   3.415   3.028   5.613  1.4909 -0.1138 -0.5038
14177TIP3    H263947   3.322   2.992   5.499  2.0865 -0.7812 -0.7879
14178TIP3   OH263948   5.632   0.345  12.566 -0.4681 -0.5798  0.0108
14178TIP3    H163949   5.655   0.293  12.489  1.2144 -0.2979  0.2929
14178TIP3    H263950   5.668   0.297  12.640 -1.8114 -0.6915  0.6161
14179TIP3   OH263951   2.794   4.630   5.128 -0.0082 -0.0213 -0.1503
14179TIP3    H163952   2.838   4.703   5.083 -1.2793 -0.0222 -1.4841
14179TIP3    H263953   2.859   4.596   5.189  0.8972  1.6992 -0.1031
14180TIP3   OH263954   1.373   4.905  14.524  0.1804 -0.3917  0.1719
14180TIP3    H163955   1.466   4.885  14.533  0.3289 -0.7375 -1.7997
14180TIP3    H263956   1.364   4.992  14.562  0.9690 -0.9794  1.8456
14181TIP3   OH263957   2.484   5.546   1.764 -0.0040 -0.2561 -0.2170
14181TIP3    H163958   2.480   5.491   1.686  3.5014  2.2475 -2.4027
14181TIP3    H263959   2.464   5.634   1.733  0.4454  0.6669  1.9433
14182TIP3   OH263960   2.707   5.598   2.498 -0.3035 -0.0789 -0.5036
14182TIP3    H163961   2.763   5.654   2.445 -0.0714 -0.1117 -0.2910
14182TIP3    H263962   2.757   5.581   2.577 -1.1878  1.0752  0.3241
14183TIP3   OH263963   2.899   2.368   1.967 -0.7682 -0.6151  0.2813
14183TIP3    H163964   2.843   2.397   1.895 -0.8787 -0.6108  0.3671
14183TIP3    H263965   2.988   2.377   1.934 -0.8338 -1.3174 -0.1294
14184TIP3   OH263966   2.174   5.476   1.935 -0.0965 -0.1977  0.0816
14184TIP3    H163967   2.105   5.443   1.992 -0.3686  0.3443  0.0698
14184TIP3    H263968   2.191   5.565   1.966 -0.1617  0.0561 -0.5981
14185TIP3   OH263969   0.156   6.389   1.812  0.7238 -0.1953  0.0423
14185TIP3    H163970   0.178   6.480   1.830  0.1376 -0.0891  0.2474
14185TIP3    H263971   0.096   6.394   1.737 -0.1604 -0.3266  0.7283
14186TIP3   OH263972   6.748   1.593  16.841 -0.4027 -0.5729  0.2434
14186TIP3    H163973   6.837   1.629  16.833 -1.2608  1.5764 -0.3990
14186TIP3    H263974   6.757   1.520  16.903  2.1961 -1.9387 -1.5323
14187TIP3   OH263975   6.469   3.805  13.312 -0.1656 -0.0726 -0.1202
14187TIP3    H163976   6.375   3.807  13.327 -0.0932 -0.3582  0.4298
14187TIP3    H263977   6.485   3.873  13.246 -0.8914 -0.8030 -1.0726
14188TIP3   OH263978   4.348   2.855  16.605  0.5860  0.1892  0.1317
14188TIP3    H163979   4.357   2.908  16.525  0.4482 -0.3625 -0.2551
14188TIP3    H263980   4.261   2.815  16.596  0.1459  0.9015  1.0357
14189TIP3   OH263981   4.324   5.467  16.617  0.7401  0.2190  0.3852
14189TIP3    H163982   4.414   5.472  16.650  0.4054  1.3709  1.1862
14189TIP3    H263983   4.313   5.547  16.566 -0.0412  0.4149  0.8447
14190TIP3   OH263984   3.299   6.173  16.595 -0.2821  0.3952  0.1834
14190TIP3    H163985   3.320   6.153  16.504 -1.9159 -0.0411 -0.1349
14190TIP3    H263986   3.370   6.229  16.624  1.4809 -1.2893 -0.6467
14191TIP3   OH263987   3.880   1.806   4.450  0.5340  0.4451 -0.1436
14191TIP3    H163988   3.958   1.778   4.498 -0.2235  1.0368  1.4942
14191TIP3    H263989   3.807   1.763   4.494 -0.1087 -0.0439 -1.6109
14192TIP3   OH263990   3.083   3.568   1.641  0.0005 -0.2004 -0.4272
14192TIP3    H163991   3.031   3.563   1.721 -1.9135  0.8699 -1.5400
14192TIP3    H263992   3.080   3.479   1.605 -1.2624 -0.1053 -0.5840
14193TIP3   OH263993   1.889   5.402   4.156  0.1342  0.3900 -0.5717
14193TIP3    H163994   1.976   5.383   4.120  0.5716  0.0088  0.6325
14193TIP3    H263995   1.877   5.335   4.224 -0.2162  1.7053  0.7000
14194TIP3   OH263996   2.702   5.068   5.110  0.0280 -0.4677 -0.1381
14194TIP3    H163997   2.624   5.023   5.076  0.3753 -0.9350 -0.3189
14194TIP3    H263998   2.746   5.002   5.164  0.8306 -0.5221 -0.8427
14195TIP3   OH263999   3.995   3.615   1.647  0.2240 -0.9045  0.3931
14195TIP3    H164000   4.032   3.657   1.569 -2.0217  1.6443  0.5604
14195TIP3    H264001   3.997   3.521   1.626  0.1921 -0.3665 -2.5237
14196TIP3   OH264002   6.149   0.687  13.506  0.0350 -0.4646 -0.0196
14196TIP3    H164003   6.223   0.724  13.458  0.5479 -0.9263  0.3968
14196TIP3    H264004   6.132   0.603  13.462  1.0577 -1.2931  1.0933
14197TIP3   OH264005   6.575   6.150  13.190 -0.0224  0.4307 -0.3255
14197TIP3    H164006   6.644   6.198  13.234  1.5569 -1.7232 -0.3061
14197TIP3    H264007   6.531   6.102  13.260 -0.1980  0.2009 -0.5911
14198TIP3   OH264008   4.755   1.505  14.074  0.3785  0.9017 -0.4105
14198TIP3    H164009   4.694   1.538  14.139 -1.9744  0.0311 -2.0532
14198TIP3    H264010   4.706   1.438  14.027  3.1326 -0.9705 -0.8393
14199TIP3   OH264011   0.851   0.496   2.038  0.2061  0.5590  0.4020
14199TIP3    H164012   0.803   0.429   2.086  0.0665 -1.3014 -2.1889
14199TIP3    H264013   0.806   0.578   2.059 -0.5347 -0.3158  2.4549
14200TIP3   OH264014   0.133   6.701   5.194  0.2366 -0.1617 -0.0767
14200TIP3    H164015   0.210   6.724   5.245 -0.7681  0.1780  1.3649
14200TIP3    H264016   0.118   6.777   5.137  0.9775 -0.2605 -0.4213
14201TIP3   OH264017   2.556   2.389  14.006 -0.3552  0.0328 -0.4810
14201TIP3    H164018   2.624   2.345  14.058 -0.4465  0.5027  0.0443
14201TIP3    H264019   2.495   2.423  14.071 -0.9066 -0.0772 -0.9410
14202TIP3   OH264020   3.395   2.997   4.536 -0.2750  0.3969 -0.1180
14202TIP3    H164021   3.420   2.908   4.512 -0.3714 -0.2236  1.9486
14202TIP3    H264022   3.404   3.047   4.454 -0.7723 -1.5952 -1.4545
14203TIP3   OH264023   1.830   3.883   1.039  0.3785 -0.7652 -0.0454
14203TIP3    H164024   1.777   3.811   1.005 -2.7478  1.5090 -0.5292
14203TIP3    H264025   1.791   3.903   1.125  0.9839  0.4646 -0.0311
14204TIP3   OH264026   2.911   1.727  15.925 -0.3094  0.3843 -0.6444
14204TIP3    H164027   2.836   1.775  15.960 -1.2895 -1.0803 -0.7027
14204TIP3    H264028   2.972   1.796  15.898 -1.3783  1.5911 -0.0805
14205TIP3   OH264029   4.567   1.849   1.177 -0.0397  0.0024  0.3930
14205TIP3    H164030   4.501   1.790   1.214 -0.8096  0.8502  0.3958
14205TIP3    H264031   4.577   1.820   1.086 -2.9420  1.9170 -0.6779
14206TIP3   OH264032   1.849   5.179   5.640 -0.1452  0.2227 -0.6248
14206TIP3    H164033   1.766   5.218   5.613 -0.8653  0.1944  1.3980
14206TIP3    H264034   1.831   5.085   5.644 -0.2216  0.2724  0.4233
14207TIP3   OH264035   5.551   4.130   1.722 -0.3460 -0.4728  0.3194
14207TIP3    H164036   5.508   4.051   1.752  0.4129  0.0195  2.9899
14207TIP3    H264037   5.480   4.194   1.714 -0.8289 -1.1390 -0.9027
14208TIP3   OH264038   4.641   5.884  15.937 -0.3663 -0.0135  0.0472
14208TIP3    H164039   4.733   5.899  15.957 -0.2787 -1.4810  0.9205
14208TIP3    H264040   4.641   5.852  15.847 -0.0414  0.1419 -0.0074
14209TIP3   OH264041   3.383   6.060   0.256  0.5633 -0.0145  0.3438
14209TIP3    H164042   3.406   5.968   0.246  0.4760  0.0738 -0.7931
14209TIP3    H264043   3.452   6.096   0.312 -0.1986 -1.0624  2.0517
14210TIP3   OH264044   5.955   0.076   0.377 -0.2884  0.2333  0.0433
14210TIP3    H164045   5.981   0.157   0.421 -1.6220  1.5836 -1.5183
14210TIP3    H264046   6.012   0.009   0.415  1.1579  1.9532  1.0922
14211TIP3   OH264047   2.515   4.411   3.095 -0.0876 -0.3210 -0.4628
14211TIP3    H164048   2.560   4.396   3.012 -0.7972 -0.2055 -0.8696
14211TIP3    H264049   2.577   4.380   3.161  0.7898  0.2521 -0.9845
14212TIP3   OH264050   5.843   5.675   1.322  0.0461  0.5469 -0.0989
14212TIP3    H164051   5.928   5.650   1.287  0.7841  0.1348  1.8858
14212TIP3    H264052   5.780   5.627   1.269  1.0867  0.1099 -0.9746
14213TIP3   OH264053   6.696   0.665   2.273  0.1811  0.1833 -0.0202
14213TIP3    H164054   6.738   0.648   2.357 -0.8913 -1.1629  0.2757
14213TIP3    H264055   6.613   0.707   2.295 -0.3764 -0.7094 -0.3405
14214TIP3   OH264056   5.246   1.371   2.771  0.8511 -0.0575 -0.1228
14214TIP3    H164057   5.158   1.380   2.735  0.8944  0.8764 -0.0335
14214TIP3    H264058   5.237   1.303   2.838  0.3788 -0.5278 -0.6484
14215TIP3   OH264059   2.542   2.570  17.145  0.1796  0.0389  0.5584
14215TIP3    H164060   2.543   2.480  17.175  0.4934 -0.5077 -1.0103
14215TIP3    H264061   2.631   2.586  17.112 -0.3103  0.3564 -0.6855
14216TIP3   OH264062   1.163   5.290   0.295 -0.7279 -0.1668  0.3504
14216TIP3    H164063   1.205   5.283   0.209  1.6289 -0.7779  1.4634
14216TIP3    H264064   1.137   5.200   0.316  3.0705 -1.0562  2.1914
14217TIP3   OH264065   0.110   3.983  11.699 -0.1145 -0.1760 -0.2665
14217TIP3    H164066   0.083   3.938  11.619 -1.1482  0.6377 -0.3915
14217TIP3    H264067   0.197   3.948  11.717 -0.8154 -2.0957 -0.4329
14218TIP3   OH264068   3.614   2.514   3.958 -0.3239 -0.5169 -0.2085
14218TIP3    H164069   3.591   2.523   4.051  0.3320  1.1703 -0.1747
14218TIP3    H264070   3.709   2.504   3.958 -0.4290 -1.7433 -0.6627
14219TIP3   OH264071   1.963   3.067   6.034  0.0896  0.1897  0.5235
14219TIP3    H164072   1.902   3.079   5.961  1.3890 -0.2883 -0.6742
14219TIP3    H264073   1.944   3.141   6.093 -1.7314 -0.0305  0.2699
14220TIP3   OH264074   2.132   1.778   0.673  0.3889  0.2292  0.3520
14220TIP3    H164075   2.142   1.840   0.745 -0.5263 -0.2046  0.8664
14220TIP3    H264076   2.039   1.759   0.670  0.2457  0.9826 -1.5868
14221TIP3   OH264077   1.433   3.817   0.251 -0.5829 -0.5632 -0.3873
14221TIP3    H164078   1.435   3.780   0.162 -1.4004 -1.9750  0.1421
14221TIP3    H264079   1.520   3.855   0.263 -1.1632  1.7874 -2.6068
14222TIP3   OH264080   4.373   4.289  17.311  0.7130  0.0198 -0.1198
14222TIP3    H164081   4.304   4.348  17.281  0.5098 -0.8738 -1.4434
14222TIP3    H264082   4.414   4.257  17.231  0.8347 -1.6289  0.5748
14223TIP3   OH264083   2.459   0.040   3.179  0.2232  0.0111  0.1250
14223TIP3    H164084   2.418   0.117   3.140 -0.8027 -0.2227  0.7027
14223TIP3    H264085   2.516   0.006   3.110  1.0421  1.5209 -0.0022
14224TIP3   OH264086   2.628   5.116   3.431 -0.0932  0.2150  0.3097
14224TIP3    H164087   2.641   5.182   3.363  0.5643  1.0019  1.1682
14224TIP3    H264088   2.603   5.166   3.509  0.8416 -0.4877  1.0871
14225TIP3   OH264089   6.472   4.479   3.763 -0.5668  0.2339  0.3548
14225TIP3    H164090   6.486   4.464   3.670  0.0892  1.0483  0.3052
14225TIP3    H264091   6.503   4.569   3.778 -5.1049  2.0653  0.4167
14226TIP3   OH264092   1.586   4.786   0.870 -0.1792  0.0481  0.2806
14226TIP3    H164093   1.673   4.826   0.866  1.0331 -2.3325  1.1322
14226TIP3    H264094   1.563   4.789   0.963  0.6384 -2.4864  0.6312
14227TIP3   OH264095   1.181   3.673   1.385 -0.0220  0.2880 -0.0268
14227TIP3    H164096   1.182   3.724   1.304 -1.7011  1.0066  0.3647
14227TIP3    H264097   1.175   3.738   1.455  0.0027 -0.3680  0.6007
14228TIP3   OH264098   5.588   5.705   0.205 -0.0676 -0.2015 -0.6785
14228TIP3    H164099   5.664   5.762   0.213  1.4426 -2.2356  0.7857
14228TIP3    H264100   5.598   5.642   0.277 -2.7374 -1.0294 -0.9264
14229TIP3   OH264101   5.013   5.969   5.766  0.7592  0.0222 -0.0270
14229TIP3    H164102   4.989   5.877   5.753  0.0232  0.2279 -0.1704
14229TIP3    H264103   5.047   5.973   5.855 -2.1213  0.1772  1.1619
14230TIP3   OH264104   4.967   6.082  13.744 -0.4529  0.7288  0.1179
14230TIP3    H164105   4.935   6.114  13.829 -1.6958 -1.0508  0.3884
14230TIP3    H264106   4.952   6.154  13.684 -1.7804  1.2154  0.9693
14231TIP3   OH264107   2.117   0.931   4.395 -0.2720 -0.7140 -0.1042
14231TIP3    H164108   2.045   0.961   4.450 -0.8942 -0.0939 -1.2245
14231TIP3    H264109   2.175   1.007   4.389 -1.1230 -0.1423 -1.7580
14232TIP3   OH264110   4.764   5.306  16.407 -0.3311 -0.2833  0.1573
14232TIP3    H164111   4.833   5.358  16.366 -0.5946 -0.5630 -0.6638
14232TIP3    H264112   4.684   5.332  16.362 -0.7782  0.0431  1.1065
14233TIP3   OH264113   1.353   2.344  14.824 -0.2402  0.0313  0.2366
14233TIP3    H164114   1.445   2.342  14.848 -0.1236 -1.0659 -0.2215
14233TIP3    H264115   1.316   2.265  14.864 -0.6771 -0.2454 -0.6722
14234TIP3   OH264116   5.119   3.178  13.622 -0.2710 -0.9401  0.7674
14234TIP3    H164117   5.146   3.088  13.641  0.9905 -0.7784 -0.1210
14234TIP3    H264118   5.038   3.168  13.572 -1.8505 -1.4503  3.2509
14235TIP3   OH264119   2.215   5.445  14.915  0.3805 -0.5775  0.0554
14235TIP3    H164120   2.125   5.476  14.918  0.2069 -0.9819 -0.7151
14235TIP3    H264121   2.235   5.420  15.005  0.1155  0.5974  0.4599
14236TIP3   OH264122   6.102   2.732   2.676 -0.1337 -0.8027  0.2078
14236TIP3    H164123   6.146   2.777   2.748 -0.7791  1.7589 -0.8627
14236TIP3    H264124   6.128   2.781   2.598 -3.7526  0.1055 -0.6182
14237TIP3   OH264125   6.620   1.787   3.754 -0.5246 -0.9133  0.7182
14237TIP3    H164126   6.708   1.801   3.788 -0.7813  2.5171  0.3053
14237TIP3    H264127   6.633   1.756   3.665  0.2936 -0.2116  0.5819
14238TIP3   OH264128   0.196   6.231   4.474  0.2688  0.4750  0.4939
14238TIP3    H164129   0.209   6.325   4.469  2.4055  0.2117 -0.1961
14238TIP3    H264130   0.206   6.211   4.568 -1.1307  1.0128  0.7752
14239TIP3   OH264131   2.045   6.391   3.726  0.2651 -0.7848 -0.3407
14239TIP3    H164132   1.993   6.380   3.646 -0.8069 -0.2059  0.2545
14239TIP3    H264133   1.980   6.398   3.796  1.1538 -0.0501  0.4343
14240TIP3   OH264134   3.761   1.528  13.319  0.0750  0.4385 -0.1067
14240TIP3    H164135   3.748   1.603  13.260  1.3727 -0.9341 -2.2993
14240TIP3    H264136   3.849   1.541  13.355  0.4940 -0.2125 -0.8545
14241TIP3   OH264137   1.076   0.804  12.931  0.3942  0.4377  1.0701
14241TIP3    H164138   1.098   0.874  12.869  0.1948  0.1907  0.7185
14241TIP3    H264139   1.017   0.747  12.882  0.2767  0.2152  1.4745
14242TIP3   OH264140   2.603   3.810   2.689  0.7058  0.2515 -0.1715
14242TIP3    H164141   2.568   3.726   2.659  1.2467 -0.7699  1.9130
14242TIP3    H264142   2.693   3.812   2.655  1.9484 -1.7355  2.6790
14243TIP3   OH264143   2.432   2.980  12.247  0.3411  0.0764  0.5608
14243TIP3    H164144   2.340   2.964  12.266  0.2367  0.9348  0.8052
14243TIP3    H264145   2.480   2.918  12.303 -0.0244  1.0525  1.9942
14244TIP3   OH264146   4.138   6.457  16.541  0.5319  0.6088  0.3792
14244TIP3    H164147   4.186   6.523  16.491 -0.3929  1.0705  0.0790
14244TIP3    H264148   4.172   6.374  16.510 -0.7187  0.8370 -1.8021
14245TIP3   OH264149   0.868   2.264  11.494 -0.5652  0.1964 -0.5109
14245TIP3    H164150   0.884   2.236  11.404 -0.0223 -0.0376 -0.3442
14245TIP3    H264151   0.900   2.354  11.497 -1.6340  0.6047 -0.8491
14246TIP3   OH264152   0.161   0.702   1.052  0.4327 -0.6135 -0.0270
14246TIP3    H164153   0.084   0.656   1.018 -0.3420  0.9910 -0.5364
14246TIP3    H264154   0.194   0.751   0.977  1.1337 -0.2027  0.5406
14247TIP3   OH264155   3.092   2.425   5.143 -0.2993  0.6419  0.1940
14247TIP3    H164156   3.008   2.416   5.189 -1.4497  1.9951 -1.5027
14247TIP3    H264157   3.079   2.378   5.060  0.1074  2.0209 -0.6800
14248TIP3   OH264158   1.917   6.682  13.177  0.0898  0.6057 -0.0662
14248TIP3    H164159   1.884   6.752  13.121  1.4505 -0.0583 -1.7737
14248TIP3    H264160   2.009   6.703  13.190  0.9024 -1.5241 -1.7862
14249TIP3   OH264161   4.553   0.878   4.733 -0.5223 -0.3220  0.5963
14249TIP3    H164162   4.471   0.892   4.686 -1.1873 -0.9527  1.5463
14249TIP3    H264163   4.574   0.786   4.720 -0.9257 -0.6124  1.8222
14250TIP3   OH264164   6.472   3.323   0.879  0.1443 -0.1459  0.0757
14250TIP3    H164165   6.387   3.299   0.841  0.6513 -0.8092 -0.6479
14250TIP3    H264166   6.489   3.411   0.847 -0.4861  0.1739  0.5996
14251TIP3   OH264167   0.824   6.689  11.429 -0.2205  0.1148 -0.2331
14251TIP3    H164168   0.763   6.640  11.372  0.3355 -1.1252  0.1958
14251TIP3    H264169   0.906   6.691  11.379  0.4011 -1.3691  0.6643
14252TIP3   OH264170   6.649   1.221  15.721 -0.4065  0.7400  0.0315
14252TIP3    H164171   6.649   1.314  15.743 -0.5056  0.3075  2.1321
14252TIP3    H264172   6.556   1.197  15.720 -0.3277  0.2447  1.7130
14253TIP3   OH264173   4.981   2.542   2.777  0.8414 -0.0851  0.3327
14253TIP3    H164174   4.972   2.531   2.683  1.6969  0.2773  0.1989
14253TIP3    H264175   5.044   2.614   2.787 -0.7502  1.2455  1.1874
14254TIP3   OH264176   0.105   4.006  15.201  0.5390 -0.3258  0.0281
14254TIP3    H164177   0.020   4.037  15.170  1.1054  0.5694 -0.6784
14254TIP3    H264178   0.091   3.987  15.294 -0.3121  0.2807  0.0378
14255TIP3   OH264179   2.234   6.613  11.888  0.0820  0.1189  0.2444
14255TIP3    H164180   2.173   6.541  11.903  0.4711 -0.5166 -1.0625
14255TIP3    H264181   2.179   6.686  11.860 -0.1484 -0.2628 -0.3227
14256TIP3   OH264182   1.385   3.248  12.341  0.1031 -0.2538  0.3766
14256TIP3    H164183   1.303   3.203  12.322 -0.2138  0.6471 -0.4739
14256TIP3    H264184   1.367   3.299  12.420  0.0163 -0.4826  0.5042
14257TIP3   OH264185   2.136   3.209  10.710 -0.1901  0.1456  0.3620
14257TIP3    H164186   2.066   3.145  10.696  0.7732 -0.5415 -1.6606
14257TIP3    H264187   2.093   3.294  10.698 -0.8267 -0.2454 -0.2050
14258TIP3   OH264188   5.975   5.216  15.861  0.0860 -0.5715 -1.0409
14258TIP3    H164189   5.959   5.238  15.769  0.9376 -0.2941 -1.1375
14258TIP3    H264190   6.026   5.290  15.894 -0.6820 -0.4175 -0.1957
14259TIP3   OH264191   4.034   4.036   5.896  0.0455  0.2189  0.0309
14259TIP3    H164192   4.114   4.002   5.855  0.8409  1.9410  0.0376
14259TIP3    H264193   4.066   4.080   5.976 -1.2253 -1.2065  1.3822
14260TIP3   OH264194   5.515   3.374  13.355  0.2560  0.2637 -0.0343
14260TIP3    H164195   5.606   3.360  13.380  0.1615  0.3684  0.3879
14260TIP3    H264196   5.509   3.468  13.335  0.3618  0.1547 -0.5911
14261TIP3   OH264197   4.666   5.608   4.500  0.3502  0.6323  0.3626
14261TIP3    H164198   4.633   5.519   4.484 -0.1139  0.6503  1.1595
14261TIP3    H264199   4.758   5.604   4.473 -0.3215  0.6790 -2.2551
14262TIP3   OH264200   5.438   4.862   1.226 -0.3131  0.0767  0.3040
14262TIP3    H164201   5.461   4.931   1.288  1.2641 -1.1538  1.1637
14262TIP3    H264202   5.420   4.786   1.281 -1.6480 -0.3070 -0.6406
14263TIP3   OH264203   6.037   2.224   4.273 -0.0874 -0.5869 -0.0011
14263TIP3    H164204   6.052   2.160   4.204  0.0080 -0.1913 -0.3574
14263TIP3    H264205   6.107   2.289   4.261 -1.0947  0.4275 -0.6577
14264TIP3   OH264206   5.635   6.708  14.607  0.3699 -0.4398  0.4278
14264TIP3    H164207   5.622   6.641  14.539  1.1073  0.0251 -0.1860
14264TIP3    H264208   5.573   6.777  14.585 -0.8029 -1.1497  1.3969
14265TIP3   OH264209   6.137   3.803   2.378 -0.0908  0.3869 -0.4724
14265TIP3    H164210   6.130   3.873   2.444  0.2351  1.0879 -1.1712
14265TIP3    H264211   6.188   3.841   2.307  0.4710 -0.7138 -0.6872
14266TIP3   OH264212   4.001   0.098  11.949  0.2248 -0.4350 -0.3421
14266TIP3    H164213   4.002   0.074  11.856  0.6331  1.4372 -0.8804
14266TIP3    H264214   4.020   0.192  11.949 -0.2656 -0.2923  1.6219
14267TIP3   OH264215   1.321   2.570  16.283  0.4218  1.1152 -0.0670
14267TIP3    H164216   1.374   2.641  16.248 -0.1008  1.6886  0.3009
14267TIP3    H264217   1.231   2.598  16.269  0.2013  1.2605  1.5419
14268TIP3   OH264218   6.722   4.583   0.406 -0.2781  0.1723  0.3680
14268TIP3    H164219   6.798   4.625   0.446 -0.5040  1.0782 -0.1243
14268TIP3    H264220   6.647   4.632   0.439 -0.6292 -0.5067  0.5951
14269TIP3   OH264221   2.354   3.111  16.041  0.0313  0.7349 -0.2840
14269TIP3    H164222   2.321   3.117  15.951 -0.6169  1.1378 -0.0255
14269TIP3    H264223   2.441   3.073  16.032  1.0809  3.1620 -1.3410
14270TIP3   OH264224   2.399   3.230  10.695 -0.1322  0.6773 -0.0987
14270TIP3    H164225   2.402   3.163  10.627  0.3174 -1.1149  1.6096
14270TIP3    H264226   2.309   3.263  10.693  0.0583  1.1948 -2.0002
14271TIP3   OH264227   4.856   1.788   1.280 -0.0974 -0.2402 -0.0846
14271TIP3    H164228   4.932   1.804   1.337 -1.0354  0.2655  1.0612
14271TIP3    H264229   4.811   1.872   1.277  0.0229 -0.2025 -1.7679
14272TIP3   OH264230   5.977   6.025   0.415 -0.5454  0.0699 -0.6496
14272TIP3    H164231   5.904   5.965   0.401 -0.2822 -0.6231  0.8111
14272TIP3    H264232   5.940   6.096   0.467 -0.6759  0.8274 -1.7419
14273TIP3   OH264233   5.161   6.513   0.332 -0.6735  0.2585  0.0985
14273TIP3    H164234   5.205   6.565   0.265  1.9134 -1.2829  0.4246
14273TIP3    H264235   5.082   6.481   0.290 -0.8150  1.9932 -1.0710
14274TIP3   OH264236   2.067   1.318  12.561 -0.1420 -0.0110  0.3420
14274TIP3    H164237   2.067   1.241  12.504 -1.2797 -1.1294  1.7656
14274TIP3    H264238   2.022   1.385  12.510  0.6867 -0.3288 -0.8509
14275TIP3   OH264239   0.410   1.352   5.579  0.0539  0.1293  0.1328
14275TIP3    H164240   0.476   1.290   5.550 -1.2986 -0.7981 -1.1185
14275TIP3    H264241   0.444   1.387   5.661  1.3712 -1.4290  0.2986
14276TIP3   OH264242   3.351   3.241  15.586 -0.3700 -0.0354 -0.1415
14276TIP3    H164243   3.412   3.182  15.541  1.9025  0.2237  2.3385
14276TIP3    H264244   3.290   3.184  15.631  0.9163 -0.5225  1.0574
14277TIP3   OH264245   4.106   1.880  15.009 -0.3573 -0.0780  0.5585
14277TIP3    H164246   4.015   1.907  15.006 -0.0892  1.0175  1.5500
14277TIP3    H264247   4.104   1.786  14.992 -1.8689 -0.4587  2.5003
14278TIP3   OH264248   5.588   0.782  14.977  0.1699  0.8336  0.2012
14278TIP3    H164249   5.592   0.821  15.064 -1.8502 -0.3722  0.9133
14278TIP3    H264250   5.507   0.731  14.978  0.7773 -0.2835 -1.9454
14279TIP3   OH264251   5.617   0.305   2.132 -0.4705  0.0711 -0.2369
14279TIP3    H164252   5.553   0.372   2.153 -0.8427 -0.3554  0.0118
14279TIP3    H264253   5.655   0.281   2.217 -0.5191 -0.2085 -0.2936
14280TIP3   OH264254   1.607   0.009   4.553 -0.1395 -0.1102 -0.3751
14280TIP3    H164255   1.519  -0.027   4.566 -0.3095 -0.2312 -1.7077
14280TIP3    H264256   1.605   0.045   4.464  0.6725  1.3363  0.1515
14281TIP3   OH264257   5.812   0.264  15.983  0.4796  0.2280  0.0518
14281TIP3    H164258   5.890   0.307  16.020  0.7868 -0.7099  0.5286
14281TIP3    H264259   5.838   0.238  15.895 -0.5290  3.2397 -1.2674
14282TIP3   OH264260   4.351   4.609  13.999 -0.2337  0.2563 -0.4503
14282TIP3    H164261   4.388   4.595  13.911 -0.7022 -1.5335 -0.3938
14282TIP3    H264262   4.397   4.547  14.055 -0.7376  0.5961  0.3607
14283TIP3   OH264263   2.565   2.813  15.575 -0.1035  0.1499 -0.0829
14283TIP3    H164264   2.543   2.816  15.668  2.3137 -0.5935  0.5948
14283TIP3    H264265   2.627   2.740  15.568  0.3598  0.6800 -2.1450
14284TIP3   OH264266   6.217   2.066  13.866 -0.4653  0.3061  0.1064
14284TIP3    H164267   6.127   2.097  13.872 -1.0835 -1.3115 -0.3532
14284TIP3    H264268   6.210   1.974  13.838  1.2670 -0.1805  1.0645
14285TIP3   OH264269   2.468   4.473  13.734 -0.1831 -0.0485 -0.1389
14285TIP3    H164270   2.413   4.547  13.759  1.6850  1.2585  0.3022
14285TIP3    H264271   2.429   4.441  13.652 -0.5616  1.9695 -0.8111
14286TIP3   OH264272   5.712   2.676   0.156 -0.1848  0.0026  0.3691
14286TIP3    H164273   5.768   2.600   0.172  0.1770  0.2524  0.3051
14286TIP3    H264274   5.774   2.749   0.143 -0.5344  0.5768  1.7147
14287TIP3   OH264275   4.816   1.870  15.405  0.1434  0.9574 -0.3792
14287TIP3    H164276   4.879   1.914  15.464  1.6263 -0.0630 -1.1363
14287TIP3    H264277   4.854   1.881  15.318  1.5133 -3.1567 -0.4913
14288TIP3   OH264278   2.712   6.434  13.234 -0.8445 -0.8666 -0.6702
14288TIP3    H164279   2.655   6.510  13.218 -0.8239 -0.5318  0.7046
14288TIP3    H264280   2.713   6.425  13.329  1.0832 -1.1036 -0.6774
14289TIP3   OH264281   1.851   5.879   0.535 -0.1268 -0.3147  0.2692
14289TIP3    H164282   1.804   5.813   0.484  2.5093 -1.0528 -1.4329
14289TIP3    H264283   1.897   5.932   0.469  1.8600 -0.0529  1.7637
14290TIP3   OH264284   2.660   2.249  14.673 -0.7070  0.3451  0.2878
14290TIP3    H164285   2.661   2.169  14.621  0.1167 -0.4714  1.5012
14290TIP3    H264286   2.698   2.315  14.616 -1.8583  0.0155 -0.9086
14291TIP3   OH264287   6.728   6.254   4.129  0.6914  0.1232 -0.0483
14291TIP3    H164288   6.733   6.174   4.183 -0.3809  1.3012  1.9292
14291TIP3    H264289   6.645   6.246   4.083  0.1564  0.4563  0.8246
14292TIP3   OH264290   2.298   5.845   0.794 -0.0171 -0.1030  0.2993
14292TIP3    H164291   2.207   5.832   0.821  0.6592  0.3748  3.2312
14292TIP3    H264292   2.296   5.844   0.699 -3.2753  1.2212  0.2405
14293TIP3   OH264293   4.561   4.882   0.405  0.4823 -0.0570 -0.3554
14293TIP3    H164294   4.568   4.876   0.310  2.3523 -0.2769 -0.2554
14293TIP3    H264295   4.554   4.791   0.434  0.5088 -0.0281 -0.2592
14294TIP3   OH264296   0.629   4.712   1.582  0.1784 -0.1428 -0.1757
14294TIP3    H164297   0.576   4.690   1.659 -0.0107  0.1017 -0.2332
14294TIP3    H264298   0.675   4.792   1.607 -0.1780  0.1515 -0.4535
14295TIP3   OH264299   1.826   6.091   1.715  0.0864 -0.0852 -0.6028
14295TIP3    H164300   1.758   6.158   1.708  0.9533  1.0544  1.1029
14295TIP3    H264301   1.866   6.089   1.629 -0.7954  0.6739 -1.0567
14296TIP3   OH264302   2.249   4.205  12.328  0.5540 -0.7910 -0.1040
14296TIP3    H164303   2.232   4.179  12.237 -0.2274  0.3815 -0.3274
14296TIP3    H264304   2.169   4.178  12.375 -0.5581  1.6171 -0.4642
14297TIP3   OH264305   4.724   5.811   6.199 -0.1844 -0.2443  0.2701
14297TIP3    H164306   4.776   5.878   6.243  0.9713 -0.1557 -1.1515
14297TIP3    H264307   4.698   5.751   6.268  0.2828  0.6945  1.2853
14298TIP3   OH264308   4.291   0.056  10.801 -0.1957 -0.0793  0.1140
14298TIP3    H164309   4.202   0.048  10.835  0.4781 -1.6358  1.6588
14298TIP3    H264310   4.326   0.133  10.846 -0.2613 -0.4112  0.7470
14299TIP3   OH264311   6.385   0.202  14.109  0.2825 -0.2613 -0.1493
14299TIP3    H164312   6.373   0.277  14.051  2.9665 -1.6835 -2.7649
14299TIP3    H264313   6.442   0.234  14.179 -0.4301  0.6673  0.0240
14300TIP3   OH264314   2.069   6.238   2.308 -0.2170 -0.0717 -0.3513
14300TIP3    H164315   2.031   6.323   2.285  1.0573  0.6015  0.0066
14300TIP3    H264316   2.162   6.254   2.320 -0.1298 -1.2740  0.9509
14301TIP3   OH264317   4.981   6.420   5.821  0.4131  0.0608 -0.0591
14301TIP3    H164318   4.930   6.343   5.794 -0.3906  0.9862 -1.2648
14301TIP3    H264319   5.039   6.387   5.890 -0.7890 -1.3498  0.3227
14302TIP3   OH264320   3.881   2.533   5.078 -0.2739  0.4634  0.5849
14302TIP3    H164321   3.954   2.504   5.132 -0.4295 -1.5561 -0.2224
14302TIP3    H264322   3.808   2.545   5.138  0.5068  1.9196  1.3094
14303TIP3   OH264323   0.925   3.785  16.461 -0.3166 -0.1729  0.3938
14303TIP3    H164324   0.861   3.714  16.454 -1.3697  0.9054 -1.9739
14303TIP3    H264325   0.969   3.786  16.376  2.7034 -0.6339  1.8058
14304TIP3   OH264326   5.689   0.517   5.193 -0.0007 -0.4620 -0.0498
14304TIP3    H164327   5.652   0.445   5.244  0.5130  0.0484  1.0921
14304TIP3    H264328   5.616   0.549   5.140 -0.3336 -1.5590 -0.2860
14305TIP3   OH264329   5.474   6.670   2.736 -0.0755  0.1257 -0.2032
14305TIP3    H164330   5.528   6.673   2.815 -0.6002  0.2840  0.1604
14305TIP3    H264331   5.487   6.755   2.694  1.8314 -0.7121 -1.4229
14306TIP3   OH264332   4.786   5.176   4.550  0.1057 -0.5111  0.2883
14306TIP3    H164333   4.828   5.145   4.470  1.9182  1.2560  0.4813
14306TIP3    H264334   4.721   5.240   4.521  0.7889  0.1564  0.2211
14307TIP3   OH264335   0.747   5.479   0.759  0.1105  0.4180  0.0725
14307TIP3    H164336   0.763   5.463   0.666  0.4410 -0.6579  0.3022
14307TIP3    H264337   0.671   5.537   0.761  0.2689  0.6783 -0.8705
14308TIP3   OH264338   4.754   1.123  11.889  0.2781  0.4114 -0.5561
14308TIP3    H164339   4.683   1.118  11.824 -0.0573 -0.3076 -0.1525
14308TIP3    H264340   4.734   1.052  11.951  0.6168  1.0540  0.3061
14309TIP3   OH264341   2.219   0.742   6.299  0.1497  0.3044  0.3258
14309TIP3    H164342   2.237   0.654   6.332 -1.8549  0.3660  1.7821
14309TIP3    H264343   2.234   0.800   6.373  0.1476  1.0327 -0.2289
14310TIP3   OH264344   2.236   4.110  12.076  0.4175  0.5124 -0.1382
14310TIP3    H164345   2.260   4.029  12.120 -2.2660  0.0496  0.6382
14310TIP3    H264346   2.309   4.127  12.015  0.6691 -2.9260 -0.9952
14311TIP3   OH264347   0.071   0.383  16.780  0.0708 -0.3551  0.5117
14311TIP3    H164348   0.151   0.435  16.779 -0.7854  1.0431 -1.1765
14311TIP3    H264349   0.061   0.355  16.872  0.2748  3.0298  1.7179
14312TIP3   OH264350   5.702   4.304  15.272  0.6227 -0.3075 -0.3751
14312TIP3    H164351   5.759   4.373  15.307 -0.1791  0.5761 -0.7626
14312TIP3    H264352   5.654   4.271  15.348  0.9887 -0.4134 -0.1906
14313TIP3   OH264353   3.424   0.638   1.232  0.5920  0.0681  0.2740
14313TIP3    H164354   3.412   0.570   1.298 -0.2634 -0.6672 -0.6134
14313TIP3    H264355   3.335   0.671   1.215  1.1101  2.8266  2.0852
14314TIP3   OH264356   2.508   6.286  15.957 -0.2356  0.3998  0.5574
14314TIP3    H164357   2.559   6.336  16.021  1.2077  1.3714 -1.2702
14314TIP3    H264358   2.422   6.276  15.999  0.4731  1.4389  2.4083
14315TIP3   OH264359   0.085   6.262  12.239 -0.3591  0.2206 -0.4794
14315TIP3    H164360   0.002   6.215  12.243  0.0561 -0.6481 -1.6731
14315TIP3    H264361   0.086   6.300  12.152  0.6238 -0.0131 -0.5733
14316TIP3   OH264362   2.069   4.114  11.695 -0.3384 -0.0091  0.0018
14316TIP3    H164363   2.014   4.170  11.640 -0.7796 -0.6104 -0.1765
14316TIP3    H264364   2.095   4.171  11.768 -0.1343  0.6524 -0.5831
14317TIP3   OH264365   2.251   4.145  16.572 -0.1029 -0.3123 -0.4182
14317TIP3    H164366   2.193   4.109  16.639  0.3335 -0.9998 -0.4107
14317TIP3    H264367   2.274   4.071  16.517  1.0131 -0.1125 -0.2460
14318TIP3   OH264368   1.991   1.587   3.903 -0.1540 -0.2228 -0.2778
14318TIP3    H164369   2.041   1.512   3.871  0.7846 -0.8224  2.3648
14318TIP3    H264370   2.041   1.664   3.876 -0.0404 -0.6135 -1.2190
14319TIP3   OH264371   0.235   3.645   3.717  0.0460 -0.1064 -0.3456
14319TIP3    H164372   0.179   3.718   3.692 -0.9352 -0.9998 -0.8346
14319TIP3    H264373   0.203   3.571   3.666  0.7634 -0.9781  0.4196
14320TIP3   OH264374   1.908   0.520  14.566 -0.0952 -0.3134 -0.4649
14320TIP3    H164375   1.988   0.470  14.550 -0.1263 -0.4878 -0.0998
14320TIP3    H264376   1.926   0.569  14.646 -0.1652  0.0564 -0.6724
14321TIP3   OH264377   2.254   2.362  13.034 -0.4257 -0.2624  0.1873
14321TIP3    H164378   2.344   2.332  13.042  0.3801  1.8556 -0.3609
14321TIP3    H264379   2.219   2.358  13.123  0.0818 -1.3974  0.3541
14322TIP3   OH264380   1.291   1.729   3.452 -0.1397 -0.2886  0.0852
14322TIP3    H164381   1.369   1.692   3.410  0.6301  0.0395  1.1940
14322TIP3    H264382   1.219   1.703   3.394  0.6768 -1.3373 -0.5069
14323TIP3   OH264383   0.222   0.526  16.204  0.4485 -0.1762  0.1256
14323TIP3    H164384   0.232   0.431  16.202 -1.6567 -0.4839  0.7697
14323TIP3    H264385   0.243   0.555  16.115 -0.8228 -1.5081 -0.6536
14324TIP3   OH264386   5.553   5.618  16.744 -0.4354 -0.0578  0.3284
14324TIP3    H164387   5.640   5.604  16.782  1.2029  2.3442 -2.1602
14324TIP3    H264388   5.539   5.712  16.748 -1.4788 -0.0190 -2.1104
14325TIP3   OH264389   4.729   3.179   0.097  0.3262 -0.3661  0.5620
14325TIP3    H164390   4.701   3.233   0.023 -0.5091 -3.1708 -1.3315
14325TIP3    H264391   4.649   3.163   0.147  0.1127 -1.5640 -0.1277
14326TIP3   OH264392   6.035   3.841   0.491  0.2761 -0.3963  0.4372
14326TIP3    H164393   5.989   3.899   0.551  1.2426  0.7277  0.1304
14326TIP3    H264394   6.042   3.891   0.410  1.8205 -0.6086  0.4085
14327TIP3   OH264395   3.874   1.669  15.408  1.0467 -0.0649  0.1993
14327TIP3    H164396   3.968   1.655  15.402  0.7860 -1.9610 -0.0117
14327TIP3    H264397   3.837   1.616  15.337 -0.1485  1.2616 -0.2215
14328TIP3   OH264398   0.348   0.773  15.478  0.0618 -0.4232  0.1469
14328TIP3    H164399   0.321   0.713  15.409 -0.0489 -0.8063  0.5158
14328TIP3    H264400   0.305   0.739  15.557  1.7910 -1.2243  0.8121
14329TIP3   OH264401   3.175   4.802   0.569  0.3253  0.3733  0.3396
14329TIP3    H164402   3.159   4.778   0.660 -2.0840 -0.7574 -0.2966
14329TIP3    H264403   3.232   4.733   0.536 -1.0972 -0.8352  0.3032
14330TIP3   OH264404   4.882   1.265  12.457 -0.2732  0.0002 -0.4730
14330TIP3    H164405   4.838   1.183  12.478 -1.7757  0.0123 -3.1226
14330TIP3    H264406   4.813   1.320  12.420  1.5377  0.6786 -3.1381
14331TIP3   OH264407   1.671   6.254   4.478  0.0723 -0.6233 -0.4662
14331TIP3    H164408   1.668   6.287   4.388 -0.0068 -1.3713 -0.7409
14331TIP3    H264409   1.592   6.290   4.519 -0.7594 -1.5893 -1.1669
14332TIP3   OH264410   1.557   5.423   3.723  0.0536 -0.2717 -0.3229
14332TIP3    H164411   1.591   5.377   3.647 -1.5888 -4.2346  1.0378
14332TIP3    H264412   1.625   5.411   3.790 -0.4089 -0.8035  0.0578
14333TIP3   OH264413   0.401   6.622   6.078  0.4155  0.0916  0.2572
14333TIP3    H164414   0.480   6.642   6.129  1.5524 -0.7775 -1.1074
14333TIP3    H264415   0.372   6.536   6.110  1.0220 -0.3695 -0.4173
14334TIP3   OH264416   0.148   3.397  13.340  0.3877  0.1550  0.0777
14334TIP3    H164417   0.159   3.480  13.293  0.3097  0.6832  0.9679
14334TIP3    H264418   0.129   3.333  13.272  3.3909  0.2387 -0.9813
14335TIP3   OH264419   3.193   6.190   0.103  0.4580 -0.4865  0.5810
14335TIP3    H164420   3.116   6.152   0.146  0.9466 -1.6854  0.4313
14335TIP3    H264421   3.267   6.161   0.156  1.1039 -2.2236 -1.1406
14336TIP3   OH264422   3.603   5.567  12.063  0.5161  0.6364 -0.4723
14336TIP3    H164423   3.615   5.524  11.978 -1.5398 -2.7928  0.7931
14336TIP3    H264424   3.518   5.610  12.056  0.5510  0.7354 -0.2805
14337TIP3   OH264425   4.761   0.702   1.712 -1.0321 -0.3687  0.0438
14337TIP3    H164426   4.721   0.624   1.752  0.2717 -0.4649  1.2659
14337TIP3    H264427   4.807   0.745   1.785  0.6582 -0.0287 -1.1650
14338TIP3   OH264428   0.025   4.592  16.781  0.3511  0.4950 -0.0052
14338TIP3    H164429   0.043   4.686  16.782  0.2895  0.5611  2.2852
14338TIP3    H264430   0.100   4.554  16.826  0.7676 -0.6648 -1.6408
14339TIP3   OH264431   3.532   1.968  16.425  0.3003 -0.1665 -0.4961
14339TIP3    H164432   3.568   1.925  16.502 -1.2672  0.4503  0.6482
14339TIP3    H264433   3.505   1.897  16.368  2.0989 -0.6318 -0.8277
14340TIP3   OH264434   5.638   5.628   2.519 -0.6698  0.1088  0.5556
14340TIP3    H164435   5.594   5.690   2.577 -2.5784 -0.9100  0.3125
14340TIP3    H264436   5.578   5.553   2.515  1.4602 -1.6945  0.7232
14341TIP3   OH264437   5.708   3.781   1.295 -0.1956  0.0686  0.3006
14341TIP3    H164438   5.773   3.718   1.264  0.0139 -0.2062  1.2398
14341TIP3    H264439   5.678   3.827   1.217 -0.3340 -1.1830 -0.3969
14342TIP3   OH264440   5.463   0.223   3.729  0.7008  0.0304  0.1886
14342TIP3    H164441   5.499   0.239   3.816 -1.4508 -0.5115  1.2512
14342TIP3    H264442   5.454   0.309   3.690  0.4300  0.4085  1.0593
14343TIP3   OH264443   4.984   5.649   7.063  0.4873 -0.2700  0.3511
14343TIP3    H164444   5.066   5.649   7.014  0.5367  0.5883  0.4152
14343TIP3    H264445   4.927   5.590   7.015  1.3315 -1.3402  0.6373
14344TIP3   OH264446   0.766   0.609   2.965  0.2246 -0.2140  0.2147
14344TIP3    H164447   0.816   0.683   2.999 -0.6167 -0.2933  1.6900
14344TIP3    H264448   0.711   0.581   3.038 -1.1179 -0.8835 -1.0049
14345TIP3   OH264449   3.393   4.022  11.596 -0.4388  0.4353  0.3153
14345TIP3    H164450   3.330   3.950  11.590  0.3539 -0.4005  1.6364
14345TIP3    H264451   3.355   4.083  11.659 -0.1120  0.1112  0.8321
14346TIP3   OH264452   0.929   1.134  12.429  0.4647 -0.3294  0.2361
14346TIP3    H164453   1.005   1.188  12.405 -0.4308  0.7902 -0.1960
14346TIP3    H264454   0.918   1.074  12.355 -1.3711  2.0984 -1.6471
14347TIP3   OH264455   5.866   1.976  15.248 -0.4929 -0.2966 -0.6597
14347TIP3    H164456   5.941   2.021  15.209 -0.2178 -2.3509 -2.7204
14347TIP3    H264457   5.800   2.044  15.256  1.2021  1.3354  0.1985
14348TIP3   OH264458   0.245   3.398   2.355 -0.0807  0.1338  0.0073
14348TIP3    H164459   0.334   3.367   2.340 -0.1754  0.4353 -1.2366
14348TIP3    H264460   0.255   3.489   2.382 -0.0656  0.7023 -1.7912
14349TIP3   OH264461   2.049   6.751   4.753  0.4765  0.1288 -0.9442
14349TIP3    H164462   2.118   6.693   4.721  1.5259  1.1125 -0.5186
14349TIP3    H264463   2.040   6.818   4.686 -0.6725 -0.4285 -1.3879
14350TIP3   OH264464   4.776   3.016   0.425 -0.2552  0.6128  0.4303
14350TIP3    H164465   4.830   3.087   0.391 -0.3344  1.5342  2.1354
14350TIP3    H264466   4.691   3.028   0.382 -0.6470  2.3274  1.5619
14351TIP3   OH264467   4.343   0.181   0.859 -0.4063 -0.3213  0.4209
14351TIP3    H164468   4.398   0.216   0.930 -0.0184  0.3786 -0.2091
14351TIP3    H264469   4.265   0.148   0.904 -0.2436  0.2656  1.1644
14352TIP3   OH264470   5.275   3.389   4.529  0.6148  0.0076 -0.4230
14352TIP3    H164471   5.194   3.381   4.480  1.1093 -0.5929 -1.1700
14352TIP3    H264472   5.337   3.429   4.467  0.5775  1.6494  0.5217
14353TIP3   OH264473   1.202   0.299  15.988  0.0740 -0.4940 -0.6665
14353TIP3    H164474   1.256   0.373  16.016 -1.1456 -0.7703  2.9030
14353TIP3    H264475   1.179   0.319  15.898  0.3552  3.1562 -0.0804
14354TIP3   OH264476   2.719   2.021   4.538  0.4005 -0.2304  0.1729
14354TIP3    H164477   2.779   2.095   4.540 -0.7858  0.7486  1.6637
14354TIP3    H264478   2.766   1.952   4.585  0.6576  0.2777  0.6751
14355TIP3   OH264479   4.446   0.075   1.235 -0.2039 -0.0881  0.2620
14355TIP3    H164480   4.483   0.139   1.174  0.4078  0.0086  0.7226
14355TIP3    H264481   4.498   0.086   1.315  0.3216 -1.5791  0.1560
14356TIP3   OH264482   2.317   1.714   5.370 -0.3031  0.6588 -0.7609
14356TIP3    H164483   2.366   1.795   5.355 -0.1665  1.0370  1.4915
14356TIP3    H264484   2.380   1.644   5.354  0.2082  1.0587 -0.5179
14357TIP3   OH264485   5.829   3.420   1.338 -0.3629  0.1035 -0.2413
14357TIP3    H164486   5.785   3.380   1.263  1.3835  0.4101 -1.4793
14357TIP3    H264487   5.886   3.486   1.300  0.7847  0.0721  1.3331
14358TIP3   OH264488   5.132   3.640  16.826 -0.0617 -0.2080 -0.0571
14358TIP3    H164489   5.082   3.561  16.807 -0.6782  0.2878 -0.5284
14358TIP3    H264490   5.132   3.689  16.744  2.1580 -0.6950 -0.4043
14359TIP3   OH264491   0.998   0.580  12.187  0.3006 -0.0367 -0.3623
14359TIP3    H164492   0.941   0.636  12.240  1.8737  0.8819  0.4490
14359TIP3    H264493   0.977   0.491  12.214  1.0736  0.3956  1.8985
14360TIP3   OH264494   5.390   6.024   1.607  0.0793  0.5061  0.2942
14360TIP3    H164495   5.442   6.047   1.529 -0.4840 -1.6159 -0.7806
14360TIP3    H264496   5.445   5.962   1.655 -0.1294  0.7954  0.9200
14361TIP3   OH264497   4.242   4.353  16.366 -0.0978 -0.1445 -0.0989
14361TIP3    H164498   4.281   4.387  16.286 -0.7066 -0.9822 -0.7712
14361TIP3    H264499   4.156   4.394  16.371  0.2736  0.5868  0.6132
14362TIP3   OH264500   2.320   4.304   4.102 -0.2838  0.1137 -0.6472
14362TIP3    H164501   2.306   4.234   4.039 -2.2017 -0.2313  0.1033
14362TIP3    H264502   2.365   4.373   4.053 -1.6679 -0.1573 -2.3841
14363TIP3   OH264503   6.385   4.394   5.509 -0.4266 -0.2671 -0.0997
14363TIP3    H164504   6.399   4.410   5.416  0.3037  0.6466  0.1489
14363TIP3    H264505   6.446   4.324   5.532 -1.6815 -1.5884 -0.6062
14364TIP3   OH264506   0.727   6.201  15.127 -0.2368  0.3904 -0.1134
14364TIP3    H164507   0.702   6.274  15.071  0.2334  0.9752  0.4156
14364TIP3    H264508   0.799   6.236  15.180 -0.7535 -0.1042  0.9339
14365TIP3   OH264509   0.205   3.632   1.169  0.0083 -0.1002  0.0927
14365TIP3    H164510   0.208   3.597   1.080 -1.5123 -0.5595  0.2036
14365TIP3    H264511   0.283   3.595   1.211 -0.0516 -1.0840 -0.6186
14366TIP3   OH264512   2.583   1.625   2.659 -0.1808 -0.8855 -0.5195
14366TIP3    H164513   2.495   1.597   2.686 -0.2007 -0.1757  0.1796
14366TIP3    H264514   2.612   1.684   2.729  0.5589 -0.5500 -1.0987
14367TIP3   OH264515   4.468   1.309  15.523 -0.2706  0.3025  0.1687
14367TIP3    H164516   4.555   1.349  15.527 -0.4864  0.8929 -0.6657
14367TIP3    H264517   4.409   1.380  15.547 -0.6811  0.6078 -1.5875
14368TIP3   OH264518   1.048   3.301   6.225  0.1143  0.1696 -0.4009
14368TIP3    H164519   1.104   3.229   6.197  0.5523  0.2524  0.2423
14368TIP3    H264520   1.076   3.319   6.315 -1.2717 -0.1151  0.1127
14369TIP3   OH264521   2.356   5.944  13.181  0.6273 -0.6025  0.8275
14369TIP3    H164522   2.435   5.956  13.234  0.4299 -1.8604  1.4615
14369TIP3    H264523   2.383   5.963  13.092  1.3800 -0.0063  1.1763
14370TIP3   OH264524   0.838   1.814  16.849 -0.0314 -0.0929  0.2682
14370TIP3    H164525   0.886   1.897  16.854 -0.4826  0.1643  0.4449
14370TIP3    H264526   0.842   1.789  16.756  1.9957 -1.0234  0.5633
14371TIP3   OH264527   3.845   6.038   3.714  0.1891  0.0371 -0.1286
14371TIP3    H164528   3.879   6.047   3.803 -0.0762  2.4168 -0.2179
14371TIP3    H264529   3.914   6.072   3.658 -0.4443  0.4490 -0.6766
14372TIP3   OH264530   3.609   3.869  15.867 -0.8837 -0.0985  0.0610
14372TIP3    H164531   3.523   3.829  15.860 -1.1632  0.2489  1.2908
14372TIP3    H264532   3.593   3.955  15.905 -0.0110  0.0155  0.2095
14373TIP3   OH264533   2.260   1.280  16.851 -0.0016  0.3677  0.1019
14373TIP3    H164534   2.240   1.355  16.908  1.6562  0.4887  0.5772
14373TIP3    H264535   2.175   1.248  16.823 -0.8105  1.2339  1.4652
14374TIP3   OH264536   5.926   2.850   0.216  0.0793  0.5997  0.2333
14374TIP3    H164537   5.997   2.787   0.230 -0.4046  0.3915  1.9866
14374TIP3    H264538   5.963   2.914   0.156  1.7090  0.3937  0.9500
14375TIP3   OH264539   0.320   0.646  13.667  0.2056  0.2716 -0.5679
14375TIP3    H164540   0.375   0.710  13.620  2.0721 -0.9889 -0.2078
14375TIP3    H264541   0.377   0.612  13.736 -1.4623 -0.2306  0.6242
14376TIP3   OH264542   2.007   5.802  15.415  0.4140  0.2161  0.0176
14376TIP3    H164543   2.093   5.762  15.402  0.0073 -0.6720  0.0318
14376TIP3    H264544   2.009   5.881  15.361  2.2174  1.6696  2.0419
14377TIP3   OH264545   3.379   4.138   1.915 -0.1013  0.0479  0.3949
14377TIP3    H164546   3.289   4.137   1.883  1.0397  0.3875 -3.2132
14377TIP3    H264547   3.420   4.213   1.872  2.2804 -0.9481  0.7207
14378TIP3   OH264548   5.916   3.820  14.691  0.2967 -0.0271 -0.3367
14378TIP3    H164549   5.918   3.840  14.785  0.6450 -0.3128 -0.2814
14378TIP3    H264550   5.866   3.739  14.685  1.0104 -0.4761 -0.3068
14379TIP3   OH264551   1.739   5.739  17.396  0.6894  0.2851  0.3595
14379TIP3    H164552   1.699   5.694  17.471  0.2262 -1.9906 -1.1674
14379TIP3    H264553   1.830   5.710  17.397  0.2630 -1.1777 -0.9393
14380TIP3   OH264554   5.648   6.623  13.434 -0.1097 -0.6421  0.2842
14380TIP3    H164555   5.581   6.684  13.402 -1.4362 -1.2372  1.8049
14380TIP3    H264556   5.615   6.536  13.411  0.1654 -0.9425  0.9826
14381TIP3   OH264557   6.717   1.562  14.537  0.5039  0.5932  0.1053
14381TIP3    H164558   6.680   1.609  14.462 -0.1442 -0.0538  0.0154
14381TIP3    H264559   6.811   1.578  14.531  0.4970  0.2706 -1.0371
14382TIP3   OH264560   0.810   4.895  14.848 -0.5790  0.4170 -0.8349
14382TIP3    H164561   0.905   4.904  14.855 -0.5964 -0.5396  2.2603
14382TIP3    H264562   0.783   4.971  14.797  1.7500  1.4334 -0.6957
14383TIP3   OH264563   5.693   4.685  14.646  0.1790  0.3072 -0.1787
14383TIP3    H164564   5.699   4.758  14.708 -0.7504  2.9831 -3.0450
14383TIP3    H264565   5.652   4.614  14.697  3.0717  0.8597  3.3514
14384TIP3   OH264566   3.781   2.195  12.167 -0.2089  0.4783  0.0041
14384TIP3    H164567   3.828   2.151  12.096 -0.6734  1.9397 -1.2477
14384TIP3    H264568   3.842   2.263  12.197  0.2645 -0.5560  1.5207
14385TIP3   OH264569   5.704   6.207   0.938  0.4999  0.3644  0.0358
14385TIP3    H164570   5.667   6.223   1.025 -1.3518 -0.3954 -0.5575
14385TIP3    H264571   5.629   6.213   0.879  1.4507 -0.6268 -1.3272
14386TIP3   OH264572   5.980   2.637  12.860 -0.3654  0.4751 -0.7144
14386TIP3    H164573   5.977   2.557  12.808  1.0628  0.3843 -0.6998
14386TIP3    H264574   5.897   2.681  12.843 -1.7481 -1.6103  0.2504
14387TIP3   OH264575   6.638   2.780  16.600  0.7065 -0.0629 -0.1841
14387TIP3    H164576   6.543   2.773  16.608  0.8043  0.1511  1.6658
14387TIP3    H264577   6.653   2.872  16.579  0.4955 -0.2203 -1.0630
14388TIP3   OH264578   4.637   5.488  16.945 -0.3414  0.2511 -0.1164
14388TIP3    H164579   4.601   5.400  16.953  1.3885 -0.5711 -0.7746
14388TIP3    H264580   4.574   5.544  16.990 -1.4800 -1.3110  0.3337
14389TIP3   OH264581   4.701   5.496  15.620 -0.0519  0.2479  0.0585
14389TIP3    H164582   4.611   5.466  15.635 -0.5945  1.7997  0.1235
14389TIP3    H264583   4.755   5.434  15.668 -1.1146 -0.4623  0.3906
14390TIP3   OH264584   5.123   5.329   4.710 -0.0262  0.4393  0.1086
14390TIP3    H164585   5.099   5.422   4.711  0.0680  0.4663 -0.1326
14390TIP3    H264586   5.138   5.309   4.618 -1.3091 -0.1546  0.0086
14391TIP3   OH264587   5.609   2.420   2.209  0.1973 -0.4303  0.2243
14391TIP3    H164588   5.660   2.479   2.264  0.6081  0.1536 -0.7510
14391TIP3    H264589   5.518   2.435   2.236  0.1023  1.8959 -1.0663
14392TIP3   OH264590   2.724   3.850  17.435 -0.3026 -0.0152  0.1772
14392TIP3    H164591   2.808   3.895  17.434 -0.6004  0.5693 -1.1845
14392TIP3    H264592   2.738   3.774  17.492  0.6604  0.9295  1.2533
14393TIP3   OH264593   0.480   3.707   0.425  0.5171 -0.9309  0.7297
14393TIP3    H164594   0.442   3.687   0.340 -0.7234 -0.0392  1.0396
14393TIP3    H264595   0.469   3.626   0.476 -0.7484 -0.7816  0.7192
14394TIP3   OH264596   4.767   3.321   1.875 -0.0529 -0.5863 -0.0654
14394TIP3    H164597   4.683   3.276   1.885 -0.8227  1.0432  1.4365
14394TIP3    H264598   4.813   3.304   1.957  0.3108 -0.0087 -0.1477
14395TIP3   OH264599   5.098   6.101   3.066  0.4851  0.3492  0.1944
14395TIP3    H164600   5.015   6.124   3.108 -0.0104 -0.0147 -0.5494
14395TIP3    H264601   5.072   6.069   2.979  0.8894 -4.5975  1.6232
14396TIP3   OH264602   1.377   6.642   0.022 -0.4603  0.0353 -0.0896
14396TIP3    H164603   1.409   6.726   0.054 -2.7562  0.8134  0.3223
14396TIP3    H264604   1.321   6.609   0.093 -2.7402  0.0663 -1.7703
14397TIP3   OH264605   3.486   1.145  17.142 -0.0218  0.5063 -0.3185
14397TIP3    H164606   3.392   1.144  17.159  0.1433  0.8127  0.6888
14397TIP3    H264607   3.524   1.097  17.215  0.4552 -1.7442 -1.9238
14398TIP3   OH264608   5.526   6.446   1.383  0.6617 -0.0885  0.5201
14398TIP3    H164609   5.573   6.415   1.460 -0.3307  1.2502  1.7146
14398TIP3    H264610   5.433   6.438   1.407  0.3445  1.8404  0.1086
14399TIP3   OH264611   2.995   2.837   2.027 -0.2447 -0.1234  0.1751
14399TIP3    H164612   2.950   2.777   2.087  0.9647 -1.2953 -0.0542
14399TIP3    H264613   2.965   2.810   1.940  0.7028 -0.7728  0.0351
14400TIP3   OH264614   2.022   2.120  11.991 -0.4851  0.4721 -0.1718
14400TIP3    H164615   1.964   2.102  11.917 -0.6032  1.2678 -0.2897
14400TIP3    H264616   2.110   2.109  11.955 -0.5446 -1.2108  0.1330
14401TIP3   OH264617   2.025   3.201  12.306  0.5542  0.5663  0.0973
14401TIP3    H164618   2.060   3.113  12.313 -0.3389  0.3264  2.1846
14401TIP3    H264619   1.985   3.219  12.392 -1.7189  1.9473 -1.1269
14402TIP3   OH264620   3.864   1.528   3.051  0.5256 -0.3870 -0.1779
14402TIP3    H164621   3.860   1.432   3.059  0.5672 -0.3398  0.4255
14402TIP3    H264622   3.816   1.560   3.127  0.3325  0.0740 -0.4930
14403TIP3   OH264623   1.167   3.940   2.967  0.1011 -0.1258  0.5644
14403TIP3    H164624   1.246   3.988   2.991  1.0279 -1.5922  0.5873
14403TIP3    H264625   1.186   3.901   2.882 -0.4671 -0.7323  0.6969
14404TIP3   OH264626   1.996   5.333  12.240 -0.5484 -0.1743 -0.0766
14404TIP3    H164627   2.090   5.316  12.235 -0.1649  1.3741  1.1403
14404TIP3    H264628   1.961   5.296  12.159  1.3862  0.7980 -1.4404
14405TIP3   OH264629   4.304   3.033  13.930  0.4702 -1.0357  0.4716
14405TIP3    H164630   4.381   2.979  13.917  0.3374 -0.7947 -1.7035
14405TIP3    H264631   4.231   2.977  13.904  0.1762 -0.3777 -0.1452
14406TIP3   OH264632   3.493   6.495  13.416  0.0510  0.0942  0.0289
14406TIP3    H164633   3.496   6.517  13.510  0.1252 -1.2546  0.3602
14406TIP3    H264634   3.559   6.428  13.405  0.2519  0.4499 -1.0731
14407TIP3   OH264635   5.501   0.298   3.359  0.0744  0.4227 -0.4239
14407TIP3    H164636   5.478   0.351   3.436  0.7380  0.3684 -0.1786
14407TIP3    H264637   5.593   0.318   3.343 -0.4270  1.5824 -2.1419
14408TIP3   OH264638   2.040   6.621  13.481  0.8299  0.8595  0.0865
14408TIP3    H164639   2.048   6.531  13.510  0.9965  1.6073  2.5680
14408TIP3    H264640   1.946   6.637  13.476  0.7726  1.0431  1.4361
14409TIP3   OH264641   0.658   3.187   3.331  0.3337  0.1151  0.1046
14409TIP3    H164642   0.741   3.149   3.304  0.4614 -0.6133  1.4190
14409TIP3    H264643   0.592   3.129   3.293  0.3903  0.8327 -1.1450
14410TIP3   OH264644   1.297   6.370  12.608  0.1740 -0.7556  1.2467
14410TIP3    H164645   1.223   6.312  12.589  2.2912 -2.7187 -1.8452
14410TIP3    H264646   1.374   6.314  12.607  1.9669  1.4796  2.5237
14411TIP3   OH264647   0.817   0.759  16.736  0.7326 -0.3248 -0.5329
14411TIP3    H164648   0.783   0.845  16.759 -1.1623 -1.4040  1.0730
14411TIP3    H264649   0.815   0.757  16.640 -0.7627  0.8493 -0.5717
14412TIP3   OH264650   1.021   4.406  13.491  0.8666  0.4091  0.3007
14412TIP3    H164651   0.985   4.391  13.404 -1.2735  1.7438  0.8702
14412TIP3    H264652   1.060   4.323  13.517  0.7516 -0.2524 -1.5552
14413TIP3   OH264653   2.091   3.805   2.101  0.2001 -0.6406 -0.0609
14413TIP3    H164654   2.070   3.863   2.027 -0.5374 -0.3638  0.3514
14413TIP3    H264655   2.050   3.846   2.176  2.2720 -0.0839  0.8264
14414TIP3   OH264656   3.125   4.962  12.181  0.3028 -0.2671  0.0772
14414TIP3    H164657   3.162   4.931  12.098  0.2844 -1.6780  0.5853
14414TIP3    H264658   3.033   4.935  12.178 -0.1602  1.2059 -0.1722
14415TIP3   OH264659   3.613   2.036  15.024  0.1342 -0.0692 -0.2390
14415TIP3    H164660   3.625   2.081  15.108 -0.3132  0.1865 -0.3090
14415TIP3    H264661   3.525   1.998  15.029  1.4988 -3.5180  1.0236
14416TIP3   OH264662   1.281   0.034  12.841  0.1124  0.2485 -0.6504
14416TIP3    H164663   1.376   0.042  12.842  0.0415  1.4412  1.0851
14416TIP3    H264664   1.250   0.121  12.864 -1.4066 -0.2304 -0.7989
14417TIP3   OH264665   1.268   3.214   5.101 -0.6701 -1.2412  0.0411
14417TIP3    H164666   1.323   3.268   5.046  0.0365 -1.5113  0.4725
14417TIP3    H264667   1.190   3.267   5.118 -0.0010 -0.3737  0.4386
14418TIP3   OH264668   4.365   2.078   2.675  0.4594 -0.6608  0.5995
14418TIP3    H164669   4.405   1.998   2.642  1.4966  0.7268 -1.7740
14418TIP3    H264670   4.421   2.148   2.643 -1.4378  1.1319  0.9509
14419TIP3   OH264671   3.274   2.792  12.067  0.0244 -0.0562  1.0159
14419TIP3    H164672   3.223   2.779  11.987  1.9608 -1.6972 -0.0307
14419TIP3    H264673   3.229   2.739  12.132 -0.8976  0.3534  0.7337
14420TIP3   OH264674   4.081   0.100   2.072 -0.3202 -0.1548 -0.3451
14420TIP3    H164675   4.050   0.023   2.023  0.4993 -1.9395  1.7735
14420TIP3    H264676   4.165   0.121   2.031  0.8209 -2.2185  0.7560
14421TIP3   OH264677   4.777   3.730   6.445  0.2671 -0.3306  0.7103
14421TIP3    H164678   4.775   3.686   6.360  2.6083  0.1150  0.3526
14421TIP3    H264679   4.695   3.778   6.450 -0.8248 -1.9932 -0.3689
14422TIP3   OH264680   3.234   3.903   5.207 -0.9306 -0.3401 -0.3141
14422TIP3    H164681   3.203   3.814   5.224  1.4585 -1.1230  0.3543
14422TIP3    H264682   3.266   3.901   5.117  0.2520 -0.5377  0.0970
14423TIP3   OH264683   2.834   0.304  11.764  0.6174  0.2997 -0.2794
14423TIP3    H164684   2.883   0.383  11.740  1.5074 -0.1802 -0.1261
14423TIP3    H264685   2.902   0.236  11.771  0.2151  0.0267  1.8378
14424TIP3   OH264686   1.472   4.589   0.453 -0.1535 -0.3698  0.0594
14424TIP3    H164687   1.388   4.611   0.414 -1.1125 -1.6437  1.2921
14424TIP3    H264688   1.488   4.498   0.428  0.5703 -0.3285  0.3313
14425TIP3   OH264689   1.617   6.492  15.302  0.0076  0.4068 -0.2378
14425TIP3    H164690   1.703   6.472  15.265 -0.4118  1.3839 -1.8360
14425TIP3    H264691   1.626   6.471  15.395  1.5891 -0.6808 -0.5829
14426TIP3   OH264692   5.429   2.208  13.825  0.1189  0.1855 -0.2145
14426TIP3    H164693   5.469   2.282  13.870 -0.9163  0.8294 -0.3115
14426TIP3    H264694   5.487   2.189  13.752  0.5659  0.6823  0.0086
14427TIP3   OH264695   6.469   1.543   1.681 -0.1174  0.0600 -0.3176
14427TIP3    H164696   6.427   1.541   1.595  0.6318  0.5990 -0.7131
14427TIP3    H264697   6.504   1.455   1.694 -0.9010 -0.2476 -0.2072
14428TIP3   OH264698   1.085   4.001   4.719  0.1875  0.3356  0.6831
14428TIP3    H164699   1.033   4.019   4.797  1.5334  0.6002  1.5456
14428TIP3    H264700   1.101   3.906   4.722 -1.0251  0.0834 -0.1086
14429TIP3   OH264701   6.398   6.563  11.483  0.3612 -0.4249 -0.2292
14429TIP3    H164702   6.346   6.490  11.517  1.1876 -0.1901  1.6660
14429TIP3    H264703   6.467   6.521  11.431 -0.2450 -0.8754 -0.6773
14430TIP3   OH264704   0.306   2.630  11.788  0.0955  0.1879  0.2725
14430TIP3    H164705   0.334   2.559  11.847  0.3417 -0.2443 -0.3573
14430TIP3    H264706   0.386   2.655  11.742  0.0848  1.1368  0.7531
14431TIP3   OH264707   5.587   0.072   5.974  0.6864 -0.1891 -0.2818
14431TIP3    H164708   5.592   0.128   5.896 -1.4642 -0.9805 -1.0711
14431TIP3    H264709   5.497   0.038   5.973  0.4423  0.1222  2.8285
14432TIP3   OH264710   6.259   2.078  16.713 -0.5948  0.0352 -0.1684
14432TIP3    H164711   6.333   2.070  16.653 -0.7037  0.0922 -0.3101
14432TIP3    H264712   6.272   2.162  16.757 -0.5399  0.0156 -0.1482
14433TIP3   OH264713   0.508   3.811  14.863  0.3342  0.0234 -0.2847
14433TIP3    H164714   0.585   3.862  14.835 -0.0429  0.4920 -0.4884
14433TIP3    H264715   0.451   3.876  14.904 -0.7654  0.0391 -1.7624
14434TIP3   OH264716   2.494   5.205   2.472 -0.1970  1.0487  0.0967
14434TIP3    H164717   2.526   5.252   2.395 -0.2691  0.2930 -0.4146
14434TIP3    H264718   2.450   5.271   2.524 -1.1157  1.3896 -1.0599
14435TIP3   OH264719   3.019   2.071  16.474 -0.0912  0.2499  0.6094
14435TIP3    H164720   2.944   2.074  16.415 -0.7775  0.5564  1.4888
14435TIP3    H264721   3.057   1.984  16.460 -0.2983  0.2842 -0.2038
14436TIP3   OH264722   2.011   4.877  14.776  0.4404  0.0717 -0.0154
14436TIP3    H164723   1.933   4.823  14.790  0.5510 -0.0862 -0.0112
14436TIP3    H264724   1.983   4.966  14.800 -0.2951  0.3647 -1.8436
14437TIP3   OH264725   3.536   3.222  11.255 -0.3531 -0.0541 -0.4313
14437TIP3    H164726   3.557   3.142  11.305 -0.8635 -1.7427 -2.7627
14437TIP3    H264727   3.602   3.225  11.186 -1.8233  0.1201 -1.8777
14438TIP3   OH264728   0.475   3.363  13.175  0.1036 -0.0940 -0.3828
14438TIP3    H164729   0.428   3.297  13.125 -0.3382  0.7878 -1.1460
14438TIP3    H264730   0.552   3.384  13.122 -0.5674  1.1231 -0.9062
14439TIP3   OH264731   3.045   2.846  11.012  0.0984  0.8821  0.3720
14439TIP3    H164732   3.079   2.935  11.000  0.2510  0.7259 -0.4475
14439TIP3    H264733   3.085   2.796  10.940 -0.4199  0.2804  0.4992
14440TIP3   OH264734   0.841   2.573   3.830 -0.4249  0.1474  0.1149
14440TIP3    H164735   0.823   2.483   3.856  0.3624 -0.1516 -0.3323
14440TIP3    H264736   0.861   2.569   3.737 -0.9879  0.8818 -0.0515
14441TIP3   OH264737   1.859   5.246   4.386 -0.3169 -0.5194 -0.5126
14441TIP3    H164738   1.803   5.318   4.415  0.7501 -0.2906  1.1107
14441TIP3    H264739   1.854   5.181   4.456 -0.3199 -1.4992 -1.4003
14442TIP3   OH264740   1.847   4.431  16.157  0.2913 -0.1874  0.3040
14442TIP3    H164741   1.930   4.402  16.119 -0.2925  1.0181 -2.0971
14442TIP3    H264742   1.807   4.352  16.193  1.4673 -1.1822 -0.5258
14443TIP3   OH264743   3.678   4.134   6.165 -0.6007 -0.1434  0.0238
14443TIP3    H164744   3.708   4.070   6.101  0.1474  0.6223 -0.4127
14443TIP3    H264745   3.757   4.160   6.213 -0.9143  0.3589  0.2824
14444TIP3   OH264746   1.453   3.068  13.606 -0.1799 -0.2886  0.2735
14444TIP3    H164747   1.432   3.098  13.695  0.8390 -0.0279  0.4300
14444TIP3    H264748   1.545   3.089  13.595 -0.2021 -0.6943 -0.7064
14445TIP3   OH264749   1.540   2.290   6.175  0.1743 -0.3618 -1.2599
14445TIP3    H164750   1.567   2.310   6.264  0.2865 -4.4712 -0.1738
14445TIP3    H264751   1.444   2.295   6.177  0.0650 -2.1272 -0.3327
14446TIP3   OH264752   4.805   0.313   5.118  0.2197 -0.1855  0.2899
14446TIP3    H164753   4.761   0.233   5.090 -2.1596  2.2724 -4.0616
14446TIP3    H264754   4.888   0.314   5.070  0.3939 -0.1525  0.5854
14447TIP3   OH264755   1.222   0.667   4.758  0.7163 -0.1578 -0.2822
14447TIP3    H164756   1.155   0.725   4.794  0.3015 -0.4966 -0.4940
14447TIP3    H264757   1.202   0.662   4.665  1.0808 -0.2043 -0.3586
14448TIP3   OH264758   4.903   2.503   0.455  0.8972 -0.8545  0.1069
14448TIP3    H164759   4.966   2.520   0.525  1.9853 -1.6424 -0.6406
14448TIP3    H264760   4.883   2.590   0.419 -0.0608 -0.3796  1.6591
14449TIP3   OH264761   0.787   2.787   5.312  0.2798  0.2828 -0.1651
14449TIP3    H164762   0.831   2.714   5.270  0.5398 -0.3799  1.2173
14449TIP3    H264763   0.811   2.781   5.404 -0.6667  1.3995  0.1884
14450TIP3   OH264764   3.769   1.621   0.259  0.3308  0.1554  0.0531
14450TIP3    H164765   3.683   1.652   0.232  1.5362  0.9967 -3.2776
14450TIP3    H264766   3.810   1.697   0.301 -0.7158 -0.4591  2.3180
14451TIP3   OH264767   2.634   1.722   3.137  0.3820  0.5610 -0.6054
14451TIP3    H164768   2.551   1.733   3.183 -0.6670 -2.2397 -1.5859
14451TIP3    H264769   2.679   1.653   3.185  2.1418  1.9452 -0.1686
14452TIP3   OH264770   3.987   2.246  14.534  0.0919  0.1313 -0.0331
14452TIP3    H164771   3.983   2.165  14.484 -2.4926  0.0527  0.1475
14452TIP3    H264772   4.067   2.289  14.504 -0.8134 -0.3160 -3.6640
14453TIP3   OH264773   1.650   4.960  14.885 -0.2921 -0.6850 -0.1408
14453TIP3    H164774   1.590   4.890  14.912 -0.3120 -0.0443  1.6398
14453TIP3    H264775   1.636   5.029  14.950  2.0656 -0.3439  0.0924
14454TIP3   OH264776   2.916   1.938   0.878  0.0606 -0.3760  0.3909
14454TIP3    H164777   3.005   1.950   0.910 -0.1734  1.0377  0.5927
14454TIP3    H264778   2.885   2.027   0.861 -1.1248 -0.8814 -0.1859
14455TIP3   OH264779   2.930   2.780   3.636 -0.0704  0.0185 -0.5088
14455TIP3    H164780   2.896   2.795   3.725 -0.1154  0.5350 -0.6107
14455TIP3    H264781   2.944   2.685   3.632  0.6732  0.0719  0.3185
14456TIP3   OH264782   2.603   6.606   5.483  0.0095 -0.0187 -0.0014
14456TIP3    H164783   2.522   6.641   5.446  1.3080  2.3020 -0.8753
14456TIP3    H264784   2.619   6.658   5.562  1.0472  0.1159 -0.2820
14457TIP3   OH264785   1.057   4.679   0.222 -0.3758 -0.6171 -0.7522
14457TIP3    H164786   1.044   4.723   0.139 -1.2772  0.4984 -0.0400
14457TIP3    H264787   0.970   4.650   0.248  0.0427 -1.8692 -0.6682
14458TIP3   OH264788   6.103   5.405   5.672  0.6021 -0.5696  0.2269
14458TIP3    H164789   6.031   5.467   5.656 -0.5740 -2.0652 -0.5594
14458TIP3    H264790   6.178   5.443   5.627  0.6509  1.5448  1.9061
14459TIP3   OH264791   1.299   6.480   4.303 -0.0851  0.3829 -0.6744
14459TIP3    H164792   1.379   6.514   4.263  0.4294  1.6589  1.2661
14459TIP3    H264793   1.329   6.409   4.359 -0.2924  0.7992 -0.0209
14460TIP3   OH264794   0.671   3.425   2.092 -0.1972 -0.0661  0.8499
14460TIP3    H164795   0.711   3.346   2.056  0.4448 -0.8306  3.0836
14460TIP3    H264796   0.643   3.475   2.015  0.1694 -2.0383 -0.6434
14461TIP3   OH264797   1.588   3.437   4.405 -0.3147 -0.4905  0.2296
14461TIP3    H164798   1.612   3.487   4.483  0.6811  1.0787 -1.0287
14461TIP3    H264799   1.586   3.346   4.435  0.4505  0.0254  1.9818
14462TIP3   OH264800   4.580   5.100  12.839  0.1727 -0.3955  0.3150
14462TIP3    H164801   4.613   5.187  12.859  1.5291 -0.5408 -1.1098
14462TIP3    H264802   4.557   5.104  12.746 -0.1363 -1.4503  0.3285
14463TIP3   OH264803   4.781   0.424   1.987 -0.1351 -0.4519  0.5606
14463TIP3    H164804   4.721   0.389   2.054 -0.6951  0.3937  0.5274
14463TIP3    H264805   4.764   0.519   1.989 -0.1437 -0.4149 -0.7656
14464TIP3   OH264806   6.192   6.369  11.532  0.1050  0.2917 -0.3764
14464TIP3    H164807   6.251   6.294  11.517  2.5296  1.7758  1.1211
14464TIP3    H264808   6.154   6.352  11.618  0.1224  0.4429 -0.3399
14465TIP3   OH264809   3.820   0.944   5.173 -0.1995  0.6586  0.2501
14465TIP3    H164810   3.803   1.010   5.240 -1.0366 -0.2063  0.9355
14465TIP3    H264811   3.746   0.952   5.113  0.8535  1.8316 -0.9415
14466TIP3   OH264812   3.201   0.247  15.227  0.1584 -0.0517  0.1091
14466TIP3    H164813   3.158   0.164  15.243  1.3777 -0.3560  2.1630
14466TIP3    H264814   3.294   0.227  15.230  0.5006  1.0289 -1.6736
14467TIP3   OH264815   2.852   0.060   0.851  0.8651  0.0917 -0.2225
14467TIP3    H164816   2.924   0.078   0.912  1.0131  1.5699 -0.7985
14467TIP3    H264817   2.803   0.142   0.847  1.4335  0.3821 -2.8448
14468TIP3   OH264818   6.416   6.094  16.523  0.1533 -0.1658 -0.1161
14468TIP3    H164819   6.493   6.094  16.466  0.6741  1.2295  0.5277
14468TIP3    H264820   6.379   6.182  16.513  0.1651  0.0645  1.5411
14469TIP3   OH264821   1.393   5.377  14.343  0.2202 -0.2833  0.2940
14469TIP3    H164822   1.301   5.404  14.341  0.9083  2.2996  0.6436
14469TIP3    H264823   1.436   5.432  14.277  1.3192 -2.5210 -0.9803
14470TIP3   OH264824   5.123   0.030  12.833  0.3902 -0.4588  0.1234
14470TIP3    H164825   5.128   0.002  12.924 -1.6567 -1.1434  0.0736
14470TIP3    H264826   5.056  -0.027  12.794 -0.5212  1.4118 -1.1880
14471TIP3   OH264827   5.025   4.082  12.341  0.0561 -0.1359  0.3403
14471TIP3    H164828   5.002   4.083  12.248 -0.5979 -2.2486  0.4303
14471TIP3    H264829   5.121   4.074  12.341 -0.1171 -4.4707 -0.3455
14472TIP3   OH264830   4.301   2.698   3.830  0.3015 -0.1315  0.7089
14472TIP3    H164831   4.297   2.781   3.782  0.6295  0.4288  1.6341
14472TIP3    H264832   4.248   2.713   3.908  0.8941 -0.5821  1.1993
14473TIP3   OH264833   0.577   2.178   0.060 -0.2962 -0.1343 -0.8290
14473TIP3    H164834   0.646   2.118   0.089 -0.7520 -0.0837  0.4200
14473TIP3    H264835   0.623   2.260   0.042  0.0615 -0.2881 -0.6298
14474TIP3   OH264836   2.499   6.717   0.098 -0.1039  0.4635  0.4645
14474TIP3    H164837   2.487   6.790   0.037  2.4318  0.4449 -0.2020
14474TIP3    H264838   2.570   6.746   0.156 -1.1478 -0.2888  2.2077
14475TIP3   OH264839   3.264   4.669   4.465 -0.5028 -0.1805 -0.3955
14475TIP3    H164840   3.212   4.678   4.545 -1.6202 -2.2461 -0.8263
14475TIP3    H264841   3.256   4.754   4.422 -2.8240 -0.1165  0.0141
14476TIP3   OH264842   2.639   5.423   1.304 -0.1033  0.9165  0.1640
14476TIP3    H164843   2.641   5.514   1.276  0.2570  0.7295 -0.4100
14476TIP3    H264844   2.565   5.419   1.366  1.0544  2.0144  1.6808
14477TIP3   OH264845   3.467   0.190  17.156 -0.1315  0.0095  0.4772
14477TIP3    H164846   3.558   0.222  17.152 -0.0213 -0.1708  1.3305
14477TIP3    H264847   3.426   0.226  17.078  1.3691 -2.0871 -1.4245
14478TIP3   OH264848   5.646   2.578   2.498 -0.6745 -0.9649  0.4381
14478TIP3    H164849   5.581   2.616   2.557 -0.3547  0.1740  0.0838
14478TIP3    H264850   5.730   2.594   2.542 -0.2023  1.9009 -1.2548
14479TIP3   OH264851   0.908   4.271  17.384 -0.3731  0.1828  0.1068
14479TIP3    H164852   0.983   4.245  17.439 -0.9157 -0.8540  0.3847
14479TIP3    H264853   0.914   4.366  17.380  0.7503  0.1521  0.4346
14480TIP3   OH264854   6.728   4.910   3.077  0.3849  0.2738 -0.2540
14480TIP3    H164855   6.741   5.002   3.053 -2.1221  0.6750 -0.3831
14480TIP3    H264856   6.683   4.872   3.002  0.4848 -0.7968  0.2137
14481TIP3   OH264857   3.345   1.749   2.714  0.3906  0.3373  0.3246
14481TIP3    H164858   3.423   1.770   2.765 -0.3593  0.6002  1.4046
14481TIP3    H264859   3.293   1.830   2.716 -1.7814 -0.9469  3.1174
14482TIP3   OH264860   0.631   1.971  12.548 -0.7214 -0.4875  0.3794
14482TIP3    H164861   0.706   2.018  12.584  1.1922 -2.0493 -1.3164
14482TIP3    H264862   0.634   1.991  12.454 -3.1030  0.2589  0.4123
14483TIP3   OH264863   1.685   0.078  12.856  0.0966  0.5131  0.1438
14483TIP3    H164864   1.765   0.098  12.903  0.1441 -0.0555  0.3124
14483TIP3    H264865   1.714   0.058  12.766  0.1959 -0.0898  0.3033
14484TIP3   OH264866   0.112   2.437  15.444 -0.0112 -0.1376  0.3437
14484TIP3    H164867   0.111   2.530  15.467 -2.0789 -0.3555  1.3591
14484TIP3    H264868   0.045   2.427  15.376  0.0606 -0.9061  0.3692
14485TIP3   OH264869   3.841   1.083  12.441 -0.2534  0.0319  0.5757
14485TIP3    H164870   3.920   1.029  12.447  0.7903  1.4484 -0.0384
14485TIP3    H264871   3.813   1.094  12.531  1.7419  1.6136  1.0642
14486TIP3   OH264872   3.663   4.231   4.629  0.7911  0.2311 -0.1342
14486TIP3    H164873   3.697   4.313   4.665  1.2683  0.1557 -0.3906
14486TIP3    H264874   3.654   4.173   4.704  1.1402  0.2890 -0.0435
14487TIP3   OH264875   6.503   1.920   2.130  0.7813  0.0619  0.1503
14487TIP3    H164876   6.573   1.973   2.091  1.5130  1.7254  3.3956
14487TIP3    H264877   6.425   1.941   2.079  1.6481  2.1446 -0.3826
14488TIP3   OH264878   1.383   6.476   5.652  0.1502  0.4343 -0.1112
14488TIP3    H164879   1.436   6.433   5.720  0.7779  0.5811 -0.4967
14488TIP3    H264880   1.413   6.435   5.570 -1.9938 -1.1993 -0.1660
14489TIP3   OH264881   0.606   0.417   0.440 -0.1234 -0.1673 -0.1960
14489TIP3    H164882   0.551   0.489   0.410  0.0586 -0.3179 -0.9319
14489TIP3    H264883   0.663   0.398   0.365  0.1356 -0.7742  0.1435
14490TIP3   OH264884   5.486   4.426   2.387 -0.0034 -0.0972  0.0681
14490TIP3    H164885   5.466   4.460   2.300 -2.3703  0.4408  0.7441
14490TIP3    H264886   5.453   4.336   2.387  0.5560 -0.3041  0.2096
14491TIP3   OH264887   1.815   4.432  14.745 -0.0776  0.3319  0.3326
14491TIP3    H164888   1.860   4.386  14.674  1.8539  1.4664  0.7491
14491TIP3    H264889   1.733   4.385  14.755 -0.2385 -0.1439 -2.3554
14492TIP3   OH264890   1.110   1.030   3.103 -1.0012  0.2787  0.0895
14492TIP3    H164891   1.106   0.943   3.064 -1.6571  0.0331  0.6767
14492TIP3    H264892   1.139   1.087   3.032  1.1104 -0.6546  0.1252
14493TIP3   OH264893   3.216   5.437   4.007 -0.5360  0.3545  0.1149
14493TIP3    H164894   3.137   5.479   3.973  0.0925  1.9353  0.5263
14493TIP3    H264895   3.252   5.500   4.069  0.6329 -0.6768  0.5306
14494TIP3   OH264896   4.536   2.687   4.294  0.0379 -0.0743  0.4157
14494TIP3    H164897   4.539   2.676   4.199  1.1305  0.6737  0.3425
14494TIP3    H264898   4.592   2.618   4.328 -1.7258 -1.4566  0.6631
14495TIP3   OH264899   5.365   0.069  10.871 -0.6567  0.9494 -0.0545
14495TIP3    H164900   5.399   0.001  10.813  1.0420  1.7177  0.0009
14495TIP3    H264901   5.283   0.097  10.830 -1.1824 -0.8338 -0.2795
14496TIP3   OH264902   4.215   0.497  14.626  0.4083 -0.1064  0.3879
14496TIP3    H164903   4.128   0.517  14.593  0.6073 -0.1115 -0.1494
14496TIP3    H264904   4.248   0.580  14.661  0.1178 -0.1464  0.7571
14497TIP3   OH264905   1.684   3.031   4.750 -0.2287 -0.1639  0.3736
14497TIP3    H164906   1.653   2.984   4.827  0.2787  0.6259  1.0738
14497TIP3    H264907   1.742   2.970   4.705 -0.7525 -0.7290  0.4463
14498TIP3   OH264908   5.021   5.971  11.520  0.6882 -0.7242  0.2369
14498TIP3    H164909   4.983   5.994  11.435 -1.4282 -0.6153  1.1451
14498TIP3    H264910   5.092   6.035  11.533 -0.3932  0.6792 -0.4886
14499TIP3   OH264911   2.185   2.639   6.000  0.4224 -0.3941  0.4400
14499TIP3    H164912   2.168   2.722   6.043 -0.6491  0.1476 -0.9608
14499TIP3    H264913   2.278   2.622   6.017  0.5594  0.8721  1.0813
14500TIP3   OH264914   4.613   0.798  15.643 -0.1719 -0.4987 -0.0877
14500TIP3    H164915   4.618   0.776  15.550 -0.8152 -0.7651 -0.0624
14500TIP3    H264916   4.607   0.894  15.645 -0.5332 -0.5159 -0.3361
14501TIP3   OH264917   2.628   1.905   4.049  0.5523 -0.2738 -0.2293
14501TIP3    H164918   2.697   1.839   4.051  0.2602 -0.7283 -2.4687
14501TIP3    H264919   2.561   1.869   3.991 -2.7770 -0.8882  3.5307
14502TIP3   OH264920   0.239   5.714   1.819  0.0902  0.8190 -0.0710
14502TIP3    H164921   0.307   5.661   1.860  0.8263  1.8364  0.0449
14502TIP3    H264922   0.205   5.659   1.748  1.9401  0.7865 -0.9722
14503TIP3   OH264923   4.533   4.065  16.769  0.7875 -0.2104 -0.1239
14503TIP3    H164924   4.564   4.013  16.694  2.5684 -0.6298  0.8394
14503TIP3    H264925   4.557   4.155  16.747 -1.3245  0.1305 -1.3080
14504TIP3   OH264926   6.305   5.056  11.707  0.2782  0.2623 -0.4106
14504TIP3    H164927   6.343   5.123  11.649  0.2616  1.2737  0.7077
14504TIP3    H264928   6.340   5.077  11.793  1.5955 -2.1974 -0.2650
14505TIP3   OH264929   6.526   6.545  14.742  0.1624 -0.3666 -0.0331
14505TIP3    H164930   6.460   6.479  14.721  0.6262 -0.3854 -1.4884
14505TIP3    H264931   6.564   6.570  14.658  3.2492 -1.6013  0.8475
14506TIP3   OH264932   1.507   4.062  11.347 -0.0816 -0.4693 -0.0316
14506TIP3    H164933   1.470   4.150  11.340  0.2871 -0.3696 -0.8793
14506TIP3    H264934   1.591   4.069  11.303 -0.8342 -1.6913 -1.7435
14507TIP3   OH264935   0.374   3.660  10.741 -0.0179  0.6058 -0.2739
14507TIP3    H164936   0.391   3.616  10.658 -0.3560  1.2531 -0.6981
14507TIP3    H264937   0.450   3.716  10.755  0.3678 -0.0326  0.2159
14508TIP3   OH264938   4.728   6.464  15.127 -0.3419 -0.4352 -0.5544
14508TIP3    H164939   4.787   6.442  15.055  1.1300 -1.0162  0.7643
14508TIP3    H264940   4.736   6.559  15.136 -0.1358 -0.4246 -0.8276
14509TIP3   OH264941   2.158   0.090  14.821 -0.1601  0.0737 -0.5217
14509TIP3    H164942   2.172   0.006  14.865 -0.8346 -0.2862 -0.9708
14509TIP3    H264943   2.241   0.108  14.777 -0.5155 -1.1796 -1.7820
14510TIP3   OH264944   0.476   0.313   1.334 -0.8444 -0.0516 -0.1275
14510TIP3    H164945   0.491   0.407   1.322 -0.2068  0.1383  1.7668
14510TIP3    H264946   0.554   0.283   1.382 -0.3998 -1.8342 -1.8479
14511TIP3   OH264947   2.200   1.793  12.354  0.1470 -0.4457  0.3674
14511TIP3    H164948   2.201   1.747  12.438 -0.0676 -0.4198  0.3850
14511TIP3    H264949   2.107   1.811  12.338  0.0261 -1.7577 -0.5930
14512TIP3   OH264950   1.136   5.991  12.973 -0.3785  0.1038  0.3535
14512TIP3    H164951   1.151   5.954  12.886 -0.0493 -1.5540  1.0849
14512TIP3    H264952   1.064   6.053  12.960 -1.2523 -1.1126 -0.8572
14513TIP3   OH264953   1.399   3.602  13.333 -0.1104  0.4851 -0.0918
14513TIP3    H164954   1.340   3.565  13.399 -1.5877 -2.3363 -2.6909
14513TIP3    H264955   1.481   3.617  13.380 -1.3953 -0.2322  2.6050
14514TIP3   OH264956   3.857   1.632   6.018 -0.2046 -0.6122  0.1052
14514TIP3    H164957   3.938   1.636   5.967  0.9950  0.1178  1.9592
14514TIP3    H264958   3.817   1.718   6.008 -0.5685 -0.8508 -0.5149
14515TIP3   OH264959   0.762   0.657  15.025  0.2574 -0.0059 -0.3130
14515TIP3    H164960   0.810   0.687  15.102 -1.7458  0.7212  0.7359
14515TIP3    H264961   0.819   0.591  14.986  2.0822  0.8080  0.8158
14516TIP3   OH264962   2.357   2.023  11.367  0.1996 -0.4410 -0.9145
14516TIP3    H164963   2.407   2.081  11.310 -1.8498  0.9915 -1.3561
14516TIP3    H264964   2.305   1.969  11.307  0.5358 -1.3014 -0.4517
14517TIP3   OH264965   6.112   6.516  13.003  0.3778 -0.3255 -0.3519
14517TIP3    H164966   6.160   6.501  13.084 -0.3191  0.3657  0.1975
14517TIP3    H264967   6.121   6.610  12.986 -0.6696 -0.2001 -0.3003
14518TIP3   OH264968   4.315   3.356  14.332  0.0648  0.0677 -0.4377
14518TIP3    H164969   4.360   3.271  14.333  0.8478  0.4728  0.0402
14518TIP3    H264970   4.323   3.386  14.241 -1.9365 -1.2226 -1.1215
14519TIP3   OH264971   3.767   2.933  11.105  0.3959  0.4482 -0.1593
14519TIP3    H164972   3.855   2.950  11.069  1.3243 -1.1088  1.2161
14519TIP3    H264973   3.767   2.977  11.190 -1.3957  3.1848 -1.4453
14520TIP3   OH264974   3.188   0.766  17.099  0.2715 -0.0961  0.2982
14520TIP3    H164975   3.168   0.681  17.059 -0.8694 -0.3275  1.2673
14520TIP3    H264976   3.261   0.800  17.049  1.7396 -2.3103  0.7841
14521TIP3   OH264977   4.432   5.789  16.740 -0.7190 -0.4214 -0.5910
14521TIP3    H164978   4.520   5.809  16.708  0.0140  0.9358  2.0353
14521TIP3    H264979   4.444   5.716  16.800 -1.5241 -0.6836 -0.7316
14522TIP3   OH264980   2.634   4.445   4.979 -0.2883 -0.4148  0.2954
14522TIP3    H164981   2.660   4.518   5.036  2.6114 -0.7087 -0.4954
14522TIP3    H264982   2.716   4.402   4.956 -1.6858 -2.4140 -1.3474
14523TIP3   OH264983   3.499   5.079  16.990 -0.2651 -0.2031  0.1170
14523TIP3    H164984   3.473   5.108  17.077  0.3169  0.4508  0.0822
14523TIP3    H264985   3.527   4.989  17.002  0.4995  0.1108  0.7511
14524TIP3   OH264986   4.630   3.854  14.436  0.0285  0.6654  0.0505
14524TIP3    H164987   4.712   3.903  14.428  0.7377 -0.2689  1.1218
14524TIP3    H264988   4.649   3.769  14.397 -0.9432  0.9382 -1.0891
14525TIP3   OH264989   0.795   4.913   5.172 -0.3865  0.0439 -0.1178
14525TIP3    H164990   0.856   4.988   5.169 -1.3440  0.8258 -0.6107
14525TIP3    H264991   0.852   4.836   5.179  0.6082  0.8372  0.8589
14526TIP3   OH264992   0.622   3.895  14.027  0.4908  0.2191  0.7493
14526TIP3    H164993   0.580   3.965  13.977  0.8370 -1.8568 -2.8779
14526TIP3    H264994   0.550   3.849  14.070 -0.2817  0.2997 -0.4094
14527TIP3   OH264995   5.524   3.019  16.442  0.7216  0.4841  0.3270
14527TIP3    H164996   5.448   2.960  16.439  0.8635  0.3159 -1.9661
14527TIP3    H264997   5.489   3.102  16.473  0.2328 -0.3637  2.1987
14528TIP3   OH264998   4.688   4.606   1.314 -0.4008 -0.5089  0.2139
14528TIP3    H164999   4.655   4.695   1.298 -2.2825 -0.3648  3.8416
14528TIP3    H265000   4.782   4.613   1.298 -0.4619  2.1955  0.4697
14529TIP3   OH265001   4.800   0.160   6.023 -0.2730 -0.1073  0.1214
14529TIP3    H165002   4.742   0.124   6.090 -0.0720  0.0623  0.3899
14529TIP3    H265003   4.886   0.123   6.043  0.0624  0.9880  0.7679
14530TIP3   OH265004   6.400   1.338  13.121  0.0989  0.7673  0.4727
14530TIP3    H165005   6.446   1.288  13.053  0.9627  2.1916 -0.0494
14530TIP3    H265006   6.416   1.289  13.202  1.2026  0.3735  0.0382
14531TIP3   OH265007   0.011   3.052   4.925 -0.0540  0.0831  0.3859
14531TIP3    H165008  -0.033   3.129   4.962  1.1790  0.1826  1.7436
14531TIP3    H265009   0.044   3.082   4.840 -3.0869 -0.1956 -0.9993
14532TIP3   OH265010   3.569   2.812   2.870  0.0041 -0.4755 -0.5804
14532TIP3    H165011   3.608   2.772   2.947  0.8193 -0.7292 -1.1043
14532TIP3    H265012   3.500   2.869   2.904  2.9416  2.6429  0.7339
14533TIP3   OH265013   5.953   3.181  12.194  1.0297 -0.7322 -0.4560
14533TIP3    H165014   6.028   3.220  12.240  0.6260 -1.5514  0.9827
14533TIP3    H265015   5.992   3.121  12.130  1.6108  0.2077 -1.0016
14534TIP3   OH265016   0.518   3.535  11.027  0.6396 -0.1750 -0.3340
14534TIP3    H165017   0.517   3.449  10.984  0.5840 -0.0700 -0.5452
14534TIP3    H265018   0.461   3.589  10.972 -2.2289 -0.9093  1.6729
14535TIP3   OH265019   5.113   0.932  12.839 -0.1287 -0.0104  0.5903
14535TIP3    H165020   5.194   0.942  12.889 -0.8915  1.5695  1.6288
14535TIP3    H265021   5.142   0.914  12.750  1.3758  0.5108  0.9308
14536TIP3   OH265022   3.747   4.444  12.478  0.0681 -0.1962  0.6737
14536TIP3    H165023   3.815   4.407  12.535 -0.0649 -1.1133  0.2626
14536TIP3    H265024   3.666   4.430  12.528  0.2194  1.4141  1.4175
14537TIP3   OH265025   4.726   1.366  13.660 -0.3230 -0.4598  0.0724
14537TIP3    H165026   4.684   1.371  13.574 -0.6313 -0.0212  0.2470
14537TIP3    H265027   4.780   1.445  13.665  0.2140 -0.8164  0.0154
14538TIP3   OH265028   5.523   3.268   0.594  0.3566 -0.5654 -0.0015
14538TIP3    H165029   5.521   3.224   0.509  1.3326 -0.4213 -0.1083
14538TIP3    H265030   5.469   3.212   0.650 -0.5195 -0.5185 -0.7675
14539TIP3   OH265031   4.168   6.236   6.078  0.1661 -0.5517 -0.2799
14539TIP3    H165032   4.092   6.263   6.129  0.6387  0.3247  0.0012
14539TIP3    H265033   4.243   6.270   6.128  0.6490  0.1551 -1.4331
14540TIP3   OH265034   6.281   4.829  15.742  0.4373 -0.2148  0.7378
14540TIP3    H165035   6.318   4.851  15.827 -0.0107  0.2926  0.8037
14540TIP3    H265036   6.351   4.849  15.680  1.9933 -3.5620  1.1719
14541TIP3   OH265037   0.895   6.509  15.688  0.2726  0.2300  0.4574
14541TIP3    H165038   0.851   6.488  15.605 -0.1255  1.0518  0.4522
14541TIP3    H265039   0.983   6.536  15.662  0.2510  0.1834  0.3309
14542TIP3   OH265040   3.004   6.493   2.304  0.1731  0.1955 -0.1047
14542TIP3    H165041   2.974   6.424   2.363 -0.8158  2.2157  1.8967
14542TIP3    H265042   2.924   6.534   2.272  0.7363  0.8578 -0.7089
14543TIP3   OH265043   0.012   1.631  11.581  0.0664 -0.3114 -0.0449
14543TIP3    H165044  -0.016   1.634  11.672  0.2447 -2.8619  0.1792
14543TIP3    H265045  -0.036   1.556  11.544  2.0802 -1.0995 -1.2252
14544TIP3   OH265046   5.140   0.392   2.899  0.2062 -0.0171 -0.2097
14544TIP3    H165047   5.106   0.474   2.935  1.4467  1.8455 -2.9168
14544TIP3    H265048   5.202   0.360   2.965  0.1918  1.5949  0.6341
14545TIP3   OH265049   3.995   6.555  13.077 -0.0054  0.5240 -0.8731
14545TIP3    H165050   3.971   6.545  12.985  0.3036  0.7152 -0.9787
14545TIP3    H265051   3.921   6.518  13.126 -0.3584  0.8023 -1.1903
14546TIP3   OH265052   3.748   5.101  11.928 -0.2442  0.3117  0.0143
14546TIP3    H165053   3.683   5.098  11.997 -1.3603  0.5742 -0.9962
14546TIP3    H265054   3.817   5.158  11.963 -0.7720  0.4238  0.9089
14547TIP3   OH265055   4.845   4.819   4.075  0.0259 -0.1957  0.6207
14547TIP3    H165056   4.924   4.856   4.037  0.4223  0.0608  1.6496
14547TIP3    H265057   4.870   4.797   4.165 -0.9788 -0.4141  0.8573
14548TIP3   OH265058   2.262   5.240   5.442  0.0617 -0.1128  0.2646
14548TIP3    H165059   2.224   5.325   5.418 -1.0128 -1.2855 -2.6108
14548TIP3    H265060   2.223   5.219   5.526 -0.5251  1.7196  0.4880
14549TIP3   OH265061   5.126   5.382   6.389  0.2104 -0.4919 -0.0836
14549TIP3    H165062   5.151   5.474   6.395  0.9538 -0.7744  1.7734
14549TIP3    H265063   5.194   5.342   6.336  2.2393 -0.6779  2.4332
14550TIP3   OH265064   4.427   1.127  13.976  0.2991 -0.7102 -0.0742
14550TIP3    H165065   4.371   1.153  13.903 -0.3799 -3.2400 -0.5450
14550TIP3    H265066   4.502   1.187  13.971 -0.7110  0.5193 -1.5263
14551TIP3   OH265067   3.035   4.027  11.204  0.0971 -0.1158 -0.8292
14551TIP3    H165068   2.940   4.026  11.212  0.2503 -0.4987  1.5091
14551TIP3    H265069   3.053   4.101  11.146 -1.4774  2.4363  1.6996
14552TIP3   OH265070   3.912   2.921  15.985  0.1535  0.2891  0.0574
14552TIP3    H165071   3.855   2.851  15.951  0.7933 -0.5056  0.5902
14552TIP3    H265072   3.976   2.935  15.915  0.7932 -0.5610  0.4575
14553TIP3   OH265073   6.184   1.222   2.442 -0.4321  0.1147  0.1016
14553TIP3    H165074   6.196   1.127   2.438 -1.7425 -0.1423  1.2693
14553TIP3    H265075   6.130   1.243   2.366 -1.8247 -0.4059  0.9195
14554TIP3   OH265076   6.724   1.925  15.248 -0.1117 -0.3846  0.1711
14554TIP3    H165077   6.818   1.937  15.262 -0.4720  1.2333  1.5911
14554TIP3    H265078   6.708   1.960  15.161  0.7586 -1.7653 -0.5739
14555TIP3   OH265079   3.790   5.501   4.405 -0.5425 -0.5059  0.0107
14555TIP3    H165080   3.760   5.411   4.395  0.2069 -0.8870  0.9928
14555TIP3    H265081   3.776   5.541   4.319 -2.3027 -1.1035 -0.0158
14556TIP3   OH265082   3.880   5.074  17.123 -0.6059 -0.1394 -0.6927
14556TIP3    H165083   3.845   5.022  17.051  1.2830 -0.7718 -1.2194
14556TIP3    H265084   3.846   5.032  17.202 -0.2578 -1.3276 -1.1499
14557TIP3   OH265085   1.526   2.226  13.718 -0.0098 -0.1486 -0.5274
14557TIP3    H165086   1.590   2.280  13.671 -0.7812 -0.8251 -2.4252
14557TIP3    H265087   1.459   2.287  13.747  1.2097  0.5040  1.1027
14558TIP3   OH265088   1.792   2.755  16.803  0.2103  0.1832  0.2083
14558TIP3    H165089   1.885   2.754  16.824  0.6453  0.9495 -1.4495
14558TIP3    H265090   1.751   2.699  16.869  1.9530 -0.9073  0.4261
14559TIP3   OH265091   4.270   3.199  17.057 -0.2398 -0.5652 -0.1534
14559TIP3    H165092   4.312   3.282  17.076 -0.3937 -0.3418 -0.7697
14559TIP3    H265093   4.188   3.222  17.014 -0.7639 -1.0101  0.5902
14560TIP3   OH265094   4.604   1.685   4.369 -0.0682  0.0272 -0.1363
14560TIP3    H165095   4.638   1.597   4.350 -0.2240  0.0100 -0.3398
14560TIP3    H265096   4.578   1.682   4.461 -1.2690 -0.5355 -0.4740
14561TIP3   OH265097   1.211   0.376   3.135 -0.8607  0.1825 -0.3819
14561TIP3    H165098   1.257   0.304   3.178 -1.3275  0.8097  1.2539
14561TIP3    H265099   1.126   0.339   3.110 -0.7915 -0.0439 -0.2789
14562TIP3   OH265100   1.840   2.905  12.396  0.5635 -0.1949 -0.0106
14562TIP3    H165101   1.935   2.893  12.392  0.6862  0.8406 -0.6387
14562TIP3    H265102   1.811   2.897  12.305  0.0891 -0.1361  0.1316
14563TIP3   OH265103   3.107   2.413   2.753 -0.6419  0.9025  0.5527
14563TIP3    H165104   3.069   2.361   2.682  0.2022  0.4670  0.3997
14563TIP3    H265105   3.032   2.454   2.795 -1.2376  0.4389 -0.0207
14564TIP3   OH265106   2.000   2.728   5.218 -0.4752 -0.4582  0.0708
14564TIP3    H165107   2.086   2.726   5.261 -0.9519  1.0362  1.1465
14564TIP3    H265108   1.985   2.637   5.191  0.6458 -1.0933  1.4689
14565TIP3   OH265109   3.541   5.968  14.780 -0.1592 -1.0868 -0.0616
14565TIP3    H165110   3.623   5.922  14.764  0.6581  0.3213 -0.0317
14565TIP3    H265111   3.554   6.012  14.864 -1.1874 -1.3849  0.2603
14566TIP3   OH265112   3.275   1.637   0.987 -0.0817  0.2231  0.0551
14566TIP3    H165113   3.258   1.591   1.069  0.3713 -1.6973 -0.8771
14566TIP3    H265114   3.248   1.576   0.919  3.5575 -0.0505 -1.3358
14567TIP3   OH265115   4.452   0.723   6.373  0.4219  0.4800 -0.0931
14567TIP3    H165116   4.470   0.630   6.388 -0.2631  0.4270  0.4987
14567TIP3    H265117   4.533   0.759   6.338  1.2524 -0.0014  1.2545
14568TIP3   OH265118   0.816   3.259  17.227  0.1547 -0.3138  0.1073
14568TIP3    H165119   0.847   3.241  17.138  0.5930  0.4230  0.1025
14568TIP3    H265120   0.895   3.285  17.275 -0.0385 -0.9413  0.7781
14569TIP3   OH265121   2.638   6.306  16.807 -0.3499 -0.2648 -0.2481
14569TIP3    H165122   2.572   6.299  16.875 -0.3328  0.9134 -0.0810
14569TIP3    H265123   2.602   6.260  16.732 -0.5865 -1.1406  0.3973
14570TIP3   OH265124   4.602   1.565   0.717 -0.5040  0.2158  0.4182
14570TIP3    H165125   4.549   1.644   0.728 -2.2732 -0.5834 -1.4013
14570TIP3    H265126   4.631   1.542   0.805 -1.4673  1.8868  1.2216
14571TIP3   OH265127   2.464   2.831  14.014  0.6243  0.2703 -0.3730
14571TIP3    H165128   2.536   2.809  14.073  0.4466  0.5161 -0.0607
14571TIP3    H265129   2.506   2.854  13.932  0.8053 -1.6149 -0.8468
14572TIP3   OH265130   4.952   0.427   2.335  0.6371  0.6978 -0.7186
14572TIP3    H165131   4.933   0.353   2.277 -0.6132  1.3373 -1.1624
14572TIP3    H265132   4.990   0.387   2.413 -0.9191 -0.5375 -0.5379
14573TIP3   OH265133   4.207   6.293  12.109 -0.0238  0.1532  0.3672
14573TIP3    H165134   4.180   6.335  12.027  0.2772  0.3047  0.3452
14573TIP3    H265135   4.137   6.317  12.171  1.8580  3.8654  1.3694
14574TIP3   OH265136   5.611   4.355   0.919 -0.1915  0.1308 -0.0520
14574TIP3    H165137   5.611   4.273   0.968 -2.3126 -0.2306 -0.5511
14574TIP3    H265138   5.685   4.348   0.859  1.6383  0.0193  2.1278
14575TIP3   OH265139   3.572   0.889   1.395 -0.5012 -0.1075  0.7074
14575TIP3    H165140   3.584   0.827   1.467 -1.9411  1.0082  1.9485
14575TIP3    H265141   3.631   0.961   1.415 -1.3731  0.4955  1.1148
14576TIP3   OH265142   2.362   5.082   4.696  0.6756  0.0489  0.6691
14576TIP3    H165143   2.363   5.145   4.768  0.5397  0.2006  0.5405
14576TIP3    H265144   2.442   5.031   4.708  0.6263  0.0369  0.9590
14577TIP3   OH265145   2.746   1.928  14.807  0.0524  0.2359  0.3925
14577TIP3    H165146   2.716   1.850  14.854  2.2713 -1.3847 -0.7251
14577TIP3    H265147   2.711   1.918  14.718  2.1121 -0.6745 -0.3684
14578TIP3   OH265148   1.423   3.264  15.888 -0.4394 -0.4269  0.7881
14578TIP3    H165149   1.418   3.352  15.849  2.5671 -0.1798  0.6852
14578TIP3    H265150   1.450   3.280  15.978  1.9118 -1.1986  0.3025
14579TIP3   OH265151   0.176   2.708   0.489  0.2156 -0.4182 -0.0370
14579TIP3    H165152   0.260   2.713   0.442  0.6337  0.5228  0.7630
14579TIP3    H265153   0.199   2.728   0.580 -0.7366 -1.1652  0.3818
14580TIP3   OH265154   1.627   5.598   1.424  0.2323  0.0925  0.0301
14580TIP3    H165155   1.532   5.603   1.416  0.3328  0.7745 -1.0176
14580TIP3    H265156   1.652   5.526   1.366  0.4086  0.3854 -0.2596
14581TIP3   OH265157   3.273   3.605  16.556  0.3455 -0.3721 -0.3249
14581TIP3    H165158   3.270   3.510  16.571  0.5673 -0.3759 -0.3061
14581TIP3    H265159   3.365   3.628  16.569  0.2205 -0.0895  0.0880
14582TIP3   OH265160   6.099   3.948   4.658  0.1295 -0.1741  0.4219
14582TIP3    H165161   6.047   4.025   4.638  1.4529  0.4823 -0.7029
14582TIP3    H265162   6.169   3.948   4.592  1.6004 -0.9402  1.8849
14583TIP3   OH265163   0.404   4.763   5.064 -0.2296  0.0304  0.2127
14583TIP3    H165164   0.435   4.758   5.155  0.3481  0.9088  0.0760
14583TIP3    H265165   0.484   4.779   5.013 -0.2215 -2.4211 -0.6979
14584TIP3   OH265166   2.632   6.454   0.420 -0.7206 -0.3920 -0.3108
14584TIP3    H165167   2.697   6.385   0.423  0.9372  0.9865  4.3572
14584TIP3    H265168   2.681   6.534   0.439 -3.1838  1.4015 -0.9548
14585TIP3   OH265169   6.735   3.283   0.926 -0.1791  0.1918  0.2225
14585TIP3    H165170   6.764   3.210   0.871  1.6724  1.4383 -0.5301
14585TIP3    H265171   6.639   3.277   0.923 -0.1225 -0.7950 -1.7775
14586TIP3   OH265172   2.326   3.898   4.680  0.2118  0.1436  0.0486
14586TIP3    H165173   2.325   3.986   4.643 -2.4673  0.8440  1.5298
14586TIP3    H265174   2.386   3.849   4.624  2.8319  3.1663 -0.0829
14587TIP3   OH265175   5.078   3.649  15.846 -0.6119  0.2318  0.1013
14587TIP3    H165176   5.013   3.611  15.787 -0.8402  0.8628 -0.0702
14587TIP3    H265177   5.161   3.641  15.800 -0.5926 -0.4455  0.2554
14588TIP3   OH265178   6.443   2.720   5.893 -0.2085  0.3460  0.1352
14588TIP3    H165179   6.487   2.762   5.967  0.9608 -1.4450  0.5145
14588TIP3    H265180   6.470   2.771   5.816  0.4628  0.8033  0.6694
14589TIP3   OH265181   5.483   1.473  13.041  0.3449  0.1507 -0.3072
14589TIP3    H165182   5.513   1.494  12.953  2.7411 -2.5881 -0.2884
14589TIP3    H265183   5.519   1.543  13.096  1.8437  0.0189 -1.0790
14590TIP3   OH265184   5.622   0.836  16.555 -0.1516  0.1157  0.8293
14590TIP3    H165185   5.613   0.748  16.518  0.7715  0.6638 -0.7917
14590TIP3    H265186   5.575   0.832  16.638  0.4062 -2.0954  1.1004
14591TIP3   OH265187   5.631   3.829   4.479 -0.0035  0.1351  0.2114
14591TIP3    H165188   5.622   3.748   4.528  1.6417 -0.2855 -0.1092
14591TIP3    H265189   5.698   3.878   4.526 -2.5585  2.4165  1.7585
14592TIP3   OH265190   1.742   2.827   6.476 -0.1960 -0.5605 -0.3331
14592TIP3    H165191   1.659   2.873   6.487  0.5060  0.5976  0.2302
14592TIP3    H265192   1.782   2.868   6.399 -0.5868 -1.8190 -1.2400
14593TIP3   OH265193   6.448   3.656   5.126 -0.3493  0.4594 -0.3095
14593TIP3    H165194   6.527   3.709   5.113  0.0140  0.0774  0.3075
14593TIP3    H265195   6.473   3.568   5.097 -0.0346 -0.0301  1.3161
14594TIP3   OH265196   2.466   2.096  13.953 -0.3169 -0.1029  0.3367
14594TIP3    H165197   2.557   2.116  13.979 -0.1309 -0.5601  0.0480
14594TIP3    H265198   2.468   2.094  13.857 -0.8646  0.9366  0.2959
14595TIP3   OH265199   3.384   4.847   0.762 -0.4520  0.0926  0.1481
14595TIP3    H165200   3.325   4.921   0.749 -1.5774 -0.6053  1.0076
14595TIP3    H265201   3.327   4.776   0.792  0.6720 -0.9599 -0.1094
14596TIP3   OH265202   1.410   2.060  11.012 -0.1421 -0.0920  0.0209
14596TIP3    H165203   1.498   2.077  10.978 -0.1222  0.1867  0.2173
14596TIP3    H265204   1.362   2.142  10.999 -0.0246  0.1427  1.0091
14597TIP3   OH265205   6.237   5.390  16.981 -0.1048  0.0714  0.4893
14597TIP3    H165206   6.246   5.299  17.010  4.4916 -0.1201 -0.7921
14597TIP3    H265207   6.182   5.385  16.902 -0.7973 -1.3786  1.0244
14598TIP3   OH265208   1.565   5.532  11.977  1.0722  0.2891 -0.0675
14598TIP3    H165209   1.660   5.519  11.978  0.8227 -1.9721 -1.1089
14598TIP3    H265210   1.533   5.487  12.056  1.0044  3.1349  1.6673
14599TIP3   OH265211   3.867   2.751  15.424 -0.2136 -0.2755 -0.2635
14599TIP3    H165212   3.837   2.733  15.335  0.0034 -0.8080 -0.2294
14599TIP3    H265213   3.798   2.716  15.480 -1.2872  1.7490 -0.2311
14600TIP3   OH265214   0.859   0.971  11.916  0.1643 -0.5692  0.4980
14600TIP3    H165215   0.849   0.887  11.872 -0.1303 -0.4056  0.2490
14600TIP3    H265216   0.929   1.016  11.869  0.6246 -0.8504  0.9048
14601TIP3   OH265217   3.654   0.260   0.771  0.0564 -0.4732 -0.4979
14601TIP3    H165218   3.661   0.355   0.773  1.6521 -0.5366 -1.4149
14601TIP3    H265219   3.742   0.229   0.791 -0.3104 -1.7619 -0.7897
14602TIP3   OH265220   4.384   2.850   0.926 -0.2684  0.2771 -0.6360
14602TIP3    H165221   4.465   2.891   0.957  0.0850  0.3571 -1.6348
14602TIP3    H265222   4.387   2.761   0.962  0.2004  0.3163 -0.5694
14603TIP3   OH265223   1.016   5.736  17.196 -0.3689 -0.2456  0.3783
14603TIP3    H165224   1.061   5.715  17.114  0.1565  0.6740  0.4167
14603TIP3    H265225   0.957   5.808  17.174  0.0094  0.2246  0.8724
14604TIP3   OH265226   0.722   0.708   1.435  0.4571 -0.2635 -0.5897
14604TIP3    H165227   0.717   0.784   1.492 -0.1087 -1.2774  0.7818
14604TIP3    H265228   0.800   0.723   1.381  2.2970 -0.2193  1.9284
14605TIP3   OH265229   3.407   5.219  12.919 -0.1212  0.9139  0.0340
14605TIP3    H165230   3.377   5.196  12.831 -2.0771  1.6212  0.4476
14605TIP3    H265231   3.426   5.313  12.913  0.9054  0.7213  0.0944
14606TIP3   OH265232   4.019   4.501  12.333  0.2701  0.4791 -0.1008
14606TIP3    H165233   4.029   4.549  12.416  0.9675  0.3650 -0.1078
14606TIP3    H265234   3.995   4.412  12.359  0.2373  0.5069 -0.0338
14607TIP3   OH265235   1.570   4.839   2.527  0.7508  0.0002  0.3173
14607TIP3    H165236   1.591   4.764   2.584 -0.8481  0.4776  1.6284
14607TIP3    H265237   1.486   4.815   2.487  0.2348  1.0535  0.7311
14608TIP3   OH265238   0.529   2.485  11.925 -0.7509 -0.2182  0.3539
14608TIP3    H165239   0.602   2.531  11.883  0.2464 -1.3994  0.7147
14608TIP3    H265240   0.505   2.540  11.999  0.4545 -0.2722  0.8117
14609TIP3   OH265241   3.111   2.476   2.128  0.2435 -0.1258 -0.3324
14609TIP3    H165242   3.158   2.449   2.049 -0.7923 -0.1797 -0.9569
14609TIP3    H265243   3.150   2.560   2.152  0.2649  0.1141 -1.1782
14610TIP3   OH265244   1.247   0.217   2.718 -0.5230  0.1214  0.5957
14610TIP3    H165245   1.162   0.225   2.763 -0.8965 -1.6662  0.2896
14610TIP3    H265246   1.228   0.241   2.627 -0.3673  1.0499  0.7903
14611TIP3   OH265247   3.899   2.940   3.036  0.5112  0.3348 -0.0282
14611TIP3    H165248   3.820   2.992   3.052  0.2269  0.1008 -0.6204
14611TIP3    H265249   3.877   2.853   3.068  1.7284  1.0006  2.9534
14612TIP3   OH265250   0.621   0.250  17.312  0.5158  0.0529 -0.6661
14612TIP3    H165251   0.631   0.189  17.238 -0.2574  2.5575 -3.0011
14612TIP3    H265252   0.711   0.273  17.336  0.7972  0.2024 -1.7728
14613TIP3   OH265253   5.956   3.953  14.119  0.0640  0.2852  0.0967
14613TIP3    H165254   5.948   3.962  14.213  1.2588 -1.4331  0.4115
14613TIP3    H265255   6.050   3.953  14.102 -0.0923 -0.6201 -0.9349
14614TIP3   OH265256   3.830   2.019  11.892 -0.8704 -0.1034 -0.1808
14614TIP3    H165257   3.855   2.050  11.804 -1.0641 -0.9046 -0.5210
14614TIP3    H265258   3.771   1.946  11.876 -0.5733 -0.5324  0.6194
14615TIP3   OH265259   5.637   3.276   5.377  0.2715  0.1506  0.2819
14615TIP3    H165260   5.714   3.252   5.327 -0.0433 -0.0094 -0.1312
14615TIP3    H265261   5.602   3.354   5.334  1.1726  1.2698  1.5038
14616TIP3   OH265262   2.617   2.922  16.720  0.4512 -0.1088  0.4881
14616TIP3    H165263   2.638   2.980  16.646 -0.6132 -0.0381  0.2255
14616TIP3    H265264   2.590   2.840  16.680  2.6672 -1.0942  0.8744
14617TIP3   OH265265   4.783   4.770   3.395  0.1294 -0.1184  0.0554
14617TIP3    H165266   4.760   4.863   3.406  1.4740  0.2047  0.3627
14617TIP3    H265267   4.878   4.771   3.380 -0.2378 -1.1810 -3.1798
14618TIP3   OH265268   2.512   5.783  16.813  0.1446  0.1727  0.0555
14618TIP3    H165269   2.455   5.859  16.810 -0.1859 -0.0272  1.0045
14618TIP3    H265270   2.600   5.818  16.798 -0.0094  0.7367  0.4473
14619TIP3   OH265271   0.566   5.856  15.356 -0.3929 -0.1205  0.5972
14619TIP3    H165272   0.528   5.919  15.294  1.0759  0.3893  0.1603
14619TIP3    H265273   0.511   5.778  15.348 -0.1688 -0.1348 -1.5087
14620TIP3   OH265274   4.183   6.510  16.790 -0.5868 -0.7093  0.0202
14620TIP3    H165275   4.123   6.585  16.792  0.9371  0.5479  0.4298
14620TIP3    H265276   4.177   6.476  16.701 -0.1035  0.9110 -0.6499
14621TIP3   OH265277   5.558   2.479  15.755 -0.3549 -0.1166  0.3551
14621TIP3    H165278   5.516   2.531  15.824 -0.6483 -0.8475  0.7446
14621TIP3    H265279   5.557   2.390  15.789  0.2987 -0.3536 -0.2262
14622TIP3   OH265280   2.924   4.046  15.455 -0.4867  0.0971 -0.1495
14622TIP3    H165281   2.880   4.069  15.373  0.3871  1.7828 -0.1984
14622TIP3    H265282   2.885   4.104  15.520 -0.3137 -0.3812  0.3839
14623TIP3   OH265283   2.385   6.228   0.656 -0.4642  0.7741 -0.2518
14623TIP3    H165284   2.437   6.295   0.700  1.0227 -0.9633  0.7799
14623TIP3    H265285   2.450   6.174   0.610 -1.2947 -1.2949  0.8346
14624TIP3   OH265286   4.699   2.258  10.941 -0.3033 -0.1831  0.1806
14624TIP3    H165287   4.764   2.328  10.937  0.2801 -0.6906  0.5937
14624TIP3    H265288   4.729   2.193  10.877 -1.4076  0.3901 -0.9734
14625TIP3   OH265289   6.081   2.894   5.821  0.1106 -0.4568  0.1252
14625TIP3    H165290   6.100   2.802   5.838  3.1688 -0.2130 -1.3377
14625TIP3    H265291   6.111   2.908   5.731 -0.5420  1.9102  0.2155
14626TIP3   OH265292   3.208   0.908  15.377 -0.4222 -0.1375  0.5310
14626TIP3    H165293   3.231   0.996  15.406 -1.0224  0.4902 -0.8397
14626TIP3    H265294   3.255   0.896  15.295 -1.5283 -0.5144 -0.0588
14627TIP3   OH265295   2.832   3.007   0.903 -0.5393  0.4417  0.0171
14627TIP3    H165296   2.869   3.092   0.881  1.1068 -0.4962 -1.0709
14627TIP3    H265297   2.841   3.001   0.998 -1.2949  1.7134  0.1953
14628TIP3   OH265298   5.719   0.422   1.051  0.1067  0.2402  0.0433
14628TIP3    H165299   5.735   0.346   0.994 -0.5611  1.6040 -2.0972
14628TIP3    H265300   5.645   0.467   1.010  0.9085  2.4106  0.8436
14629TIP3   OH265301   2.299   1.227   1.761  0.1095 -0.3176  0.5752
14629TIP3    H165302   2.286   1.142   1.803 -0.1692 -0.5281  0.0794
14629TIP3    H265303   2.237   1.285   1.805  0.7657 -0.2111  1.3650
14630TIP3   OH265304   1.845   6.106  17.247 -0.2478 -0.5929 -0.3318
14630TIP3    H165305   1.800   6.184  17.214 -1.2551 -0.6195  0.8578
14630TIP3    H265306   1.818   6.036  17.188  0.5913 -0.0789 -1.3553
14631TIP3   OH265307   5.620   3.392  15.228  0.4405  0.1309 -0.0445
14631TIP3    H165308   5.584   3.372  15.314 -0.1535 -1.5388 -0.6337
14631TIP3    H265309   5.711   3.417  15.245 -0.0097  1.0311  1.1569
14632TIP3   OH265310   5.173   3.474  14.898 -0.3156  0.7136  0.3287
14632TIP3    H165311   5.133   3.413  14.837  1.2237  0.5951 -0.6075
14632TIP3    H265312   5.182   3.424  14.979 -0.5750  0.2329  0.0625
14633TIP3   OH265313   2.370   1.844   2.575 -0.1768 -0.5123  1.0797
14633TIP3    H165314   2.407   1.837   2.663  0.7105  1.8474  0.9620
14633TIP3    H265315   2.446   1.848   2.517 -0.6874  0.5420  0.4593
14634TIP3   OH265316   4.679   0.385   0.354  0.0279 -0.3305  0.1750
14634TIP3    H165317   4.638   0.457   0.401 -0.4593 -0.6614  0.2636
14634TIP3    H265318   4.620   0.367   0.281  0.8639  0.3021 -0.6899
14635TIP3   OH265319   1.438   2.318  16.257 -0.7209 -1.0141 -0.6871
14635TIP3    H165320   1.392   2.401  16.271 -0.0578 -0.4528 -1.6731
14635TIP3    H265321   1.408   2.288  16.171  1.4772 -0.0865 -1.8535
14636TIP3   OH265322   3.080   1.818   0.642  0.2447 -0.1076  0.2717
14636TIP3    H165323   2.998   1.845   0.681 -0.2455  1.8579 -1.9000
14636TIP3    H265324   3.054   1.756   0.573  0.4002  1.3394 -1.1473
14637TIP3   OH265325   2.409   5.766  14.709  0.3396 -0.1569 -0.1954
14637TIP3    H165326   2.435   5.674  14.705  1.2401  0.0041  1.1770
14637TIP3    H265327   2.360   5.781  14.629 -0.7454 -2.1119  0.0513
14638TIP3   OH265328   5.245   2.171   3.888 -0.2226  0.0822  0.1112
14638TIP3    H165329   5.307   2.145   3.820 -1.0294  0.6001 -0.8423
14638TIP3    H265330   5.298   2.218   3.952  0.5147 -0.2681 -0.2350
14639TIP3   OH265331   5.622   5.134   0.427 -0.6822 -0.5815 -0.1721
14639TIP3    H165332   5.577   5.211   0.393  1.3582  0.8303  0.1242
14639TIP3    H265333   5.602   5.065   0.364 -2.2455  0.2616 -0.6577
14640TIP3   OH265334   1.673   4.378  13.828 -0.0597 -0.3749  0.1636
14640TIP3    H165335   1.748   4.406  13.775 -0.7376  1.2555  0.0138
14640TIP3    H265336   1.606   4.445  13.812 -0.7338 -0.5328  2.1163
14641TIP3   OH265337   4.933   3.896  13.098  0.1967 -0.2838  0.7469
14641TIP3    H165338   4.995   3.965  13.122 -1.6654  1.6990  0.1991
14641TIP3    H265339   4.978   3.846  13.030  1.0869  1.3347  0.0854
14642TIP3   OH265340   3.989   4.241   2.818  0.2706 -0.4048 -0.4699
14642TIP3    H165341   4.075   4.237   2.861 -0.6422 -0.6171  1.4657
14642TIP3    H265342   3.997   4.182   2.744  1.1471 -2.2174  0.9771
14643TIP3   OH265343   1.485   1.901   4.075 -0.2174 -0.7471  0.1546
14643TIP3    H165344   1.538   1.855   4.010 -0.5716  1.0065 -1.4751
14643TIP3    H265345   1.529   1.985   4.087 -0.5196 -0.7804  1.7487
14644TIP3   OH265346   1.965   2.952  11.506  0.4865  0.2228  0.2011
14644TIP3    H165347   2.011   2.940  11.589  2.1537  0.7376 -0.6068
14644TIP3    H265348   1.946   2.862  11.476  0.4525  0.0202  0.8253
14645TIP3   OH265349   2.206   3.240  11.609 -0.0434 -0.9692  0.5919
14645TIP3    H165350   2.278   3.244  11.546 -0.2106 -2.0882  0.3139
14645TIP3    H265351   2.163   3.326  11.601 -1.2023 -1.7030 -2.2237
14646TIP3   OH265352   0.237   4.814  13.641  0.3512 -0.1573 -0.2494
14646TIP3    H165353   0.200   4.812  13.730 -0.6087 -2.4183 -0.6233
14646TIP3    H265354   0.274   4.902  13.632 -0.3668  0.4454  2.0415
14647TIP3   OH265355   4.957   4.943   2.922  0.5590 -0.3102  0.0042
14647TIP3    H165356   4.976   4.853   2.894  4.7599  0.5564 -0.7280
14647TIP3    H265357   4.995   4.997   2.853 -0.8450  2.0653  0.9928
14648TIP3   OH265358   3.630   2.864  10.889 -0.0092 -0.7938 -0.0323
14648TIP3    H165359   3.683   2.879  10.967  0.2187  1.3151 -0.5145
14648TIP3    H265360   3.689   2.881  10.816 -0.8799 -0.0524 -0.6007
14649TIP3   OH265361   5.617   4.592   0.670  0.3983 -0.4881  0.4712
14649TIP3    H165362   5.656   4.505   0.658  0.9984 -0.2863  0.9150
14649TIP3    H265363   5.537   4.575   0.721 -1.4140 -1.1824 -2.3614
14650TIP3   OH265364   0.499   4.890  13.792 -0.3913  0.4177 -0.5670
14650TIP3    H165365   0.466   4.953  13.856 -0.2937  0.1308 -0.2346
14650TIP3    H265366   0.515   4.810  13.842 -3.0107 -0.7503 -1.3966
14651TIP3   OH265367   4.828   0.406  13.972 -0.4135  0.0300  0.4548
14651TIP3    H165368   4.899   0.453  14.017  0.6944 -0.6936 -0.4846
14651TIP3    H265369   4.849   0.414  13.879 -2.6767  1.5141 -0.0022
14652TIP3   OH265370   5.523   1.250   2.880 -0.4534 -0.1062  1.0233
14652TIP3    H165371   5.613   1.268   2.907  0.2747 -0.4413 -1.0135
14652TIP3    H265372   5.503   1.318   2.815 -1.7556  0.0817  1.5903
14653TIP3   OH265373   3.856   6.481  15.362  0.6572 -0.3916 -0.5081
14653TIP3    H165374   3.872   6.416  15.431  0.3826  0.2392  0.1568
14653TIP3    H265375   3.822   6.430  15.289 -1.2987 -0.8060  0.6238
14654TIP3   OH265376   2.323   4.554   4.557  0.0790 -0.2822 -0.0496
14654TIP3    H165377   2.228   4.566   4.550  0.0964  0.6644  1.0639
14654TIP3    H265378   2.351   4.534   4.468 -1.5855 -4.1598  0.0852
14655TIP3   OH265379   4.569   6.161  14.574 -0.2321  0.1600 -0.1439
14655TIP3    H165380   4.484   6.166  14.618 -1.0295 -1.1981 -1.4191
14655TIP3    H265381   4.550   6.178  14.482  1.0130  0.5944 -0.3466
14656TIP3   OH265382   5.523   6.362  16.803 -0.0250  0.2776  0.2830
14656TIP3    H165383   5.579   6.400  16.871 -0.8812  0.6950  0.7680
14656TIP3    H265384   5.564   6.390  16.721  1.4897 -0.9100  0.5853
14657TIP3   OH265385   3.306   3.127   1.891 -0.0792  0.0382 -0.2461
14657TIP3    H165386   3.260   3.091   1.966 -0.1556  1.4575  0.4124
14657TIP3    H265387   3.335   3.214   1.919 -1.7309  1.4028 -2.4690
14658TIP3   OH265388   4.285   5.528  17.427  0.2589 -0.1642  0.0514
14658TIP3    H165389   4.360   5.485  17.385 -0.1548 -0.4316 -0.4284
14658TIP3    H265390   4.244   5.577  17.356  0.5544  0.7968  0.5290
14659TIP3   OH265391   1.221   6.035   0.700 -0.8463 -0.3218  0.2547
14659TIP3    H165392   1.215   5.957   0.645 -0.2152 -0.8293  0.8833
14659TIP3    H265393   1.186   6.007   0.785  0.7856 -0.3967  0.9400
14660TIP3   OH265394   4.602   3.264  14.922 -0.0136  0.3551  0.1373
14660TIP3    H165395   4.545   3.252  14.847  1.5580 -0.5162 -0.9892
14660TIP3    H265396   4.674   3.318  14.889  1.2769 -0.9665  0.6591
14661TIP3   OH265397   4.399   2.776   5.506  0.1763 -0.1774  0.1956
14661TIP3    H165398   4.472   2.834   5.485 -0.4085  0.9936  1.2123
14661TIP3    H265399   4.437   2.708   5.561  0.5085  0.4432  0.7453
14662TIP3   OH265400   4.073   2.543   3.747 -0.0693  0.2332  0.2405
14662TIP3    H165401   4.029   2.604   3.688 -0.1736 -0.0136  0.0619
14662TIP3    H265402   4.166   2.554   3.729 -0.0682  0.6072  0.4720
14663TIP3   OH265403   2.272   5.589   4.453 -0.0672 -0.2807  0.1655
14663TIP3    H165404   2.283   5.582   4.547  0.1323  1.8401  0.3647
14663TIP3    H265405   2.199   5.531   4.432 -1.4969  0.7480  1.9762
14664TIP3   OH265406   1.725   1.597   2.617 -0.2065 -0.3491  0.4801
14664TIP3    H165407   1.665   1.558   2.553  0.1320  0.6399 -0.4572
14664TIP3    H265408   1.672   1.664   2.661  0.3167  0.8677 -0.6908
14665TIP3   OH265409   1.240   5.694  11.447 -0.2841  0.0203  0.1549
14665TIP3    H165410   1.145   5.694  11.454 -0.2337 -0.0687  0.9960
14665TIP3    H265411   1.258   5.727  11.359 -1.0842  0.2539  0.0718
14666TIP3   OH265412   3.014   5.790  17.337  0.0819 -0.1809  0.0554
14666TIP3    H165413   3.084   5.854  17.346  0.1037 -0.0097 -1.2121
14666TIP3    H265414   2.936   5.842  17.319 -0.0258 -0.4786 -0.3386
14667TIP3   OH265415   6.016   1.693  15.314  0.2404 -0.4163  0.3868
14667TIP3    H165416   5.953   1.764  15.302  0.5279 -0.0457  1.0370
14667TIP3    H265417   6.094   1.721  15.266  0.5769  0.0089  1.1605
14668TIP3   OH265418   0.018   4.816  15.652 -0.3000  0.4431  0.5820
14668TIP3    H165419   0.033   4.802  15.746 -0.9887  0.1276  0.6490
14668TIP3    H265420  -0.075   4.838  15.646 -0.4202 -0.2135 -0.0950
14669TIP3   OH265421   1.175   6.545  17.326 -0.3718 -0.2026 -0.1884
14669TIP3    H165422   1.225   6.580  17.400 -2.1200  0.2993  0.8075
14669TIP3    H265423   1.106   6.492  17.366 -1.3492  0.0631 -1.4595
14670TIP3   OH265424   1.310   3.376  16.851 -0.1408 -0.1782 -0.3556
14670TIP3    H165425   1.328   3.421  16.934  0.3393  1.6929 -1.4061
14670TIP3    H265426   1.391   3.384  16.801 -0.8098 -0.1928 -1.4702
14671TIP3   OH265427   4.535   5.250  13.151 -0.5580 -0.2849  0.4168
14671TIP3    H165428   4.486   5.257  13.069 -1.0806 -0.0203  0.7455
14671TIP3    H265429   4.524   5.335  13.193  1.7991  0.4811 -0.3852
14672TIP3   OH265430   3.169   0.158  13.972  0.3325  0.4046 -0.2242
14672TIP3    H165431   3.130   0.090  14.028  0.0472 -0.0366 -0.9437
14672TIP3    H265432   3.128   0.145  13.886  1.8847  0.0431 -0.9658
14673TIP3   OH265433   5.182   3.373  14.098 -0.3226  0.0416  0.2518
14673TIP3    H165434   5.179   3.342  14.008  1.1540  0.1524  0.1325
14673TIP3    H265435   5.092   3.365  14.130 -0.5050 -1.8494 -0.5991
14674TIP3   OH265436   1.196   4.856   2.572  0.5683 -0.0190 -0.3753
14674TIP3    H165437   1.248   4.792   2.621 -0.7596 -1.2093 -0.4714
14674TIP3    H265438   1.260   4.900   2.516  1.8975  0.3787  1.3346
14675TIP3   OH265439   2.275   1.834  15.753  0.5165  0.2170  0.3656
14675TIP3    H165440   2.316   1.867  15.833  3.0306 -0.7598 -0.4301
14675TIP3    H265441   2.340   1.848  15.684 -0.7487 -0.8465 -1.1330
14676TIP3   OH265442   2.827   2.233  13.087  0.1209  0.0665 -0.0823
14676TIP3    H165443   2.832   2.325  13.115 -1.6949 -0.0806  0.8724
14676TIP3    H265444   2.867   2.233  13.000  2.2020  1.3129  0.7932
14677TIP3   OH265445   0.231   2.594  10.565 -0.1564 -0.2433  0.1076
14677TIP3    H165446   0.301   2.659  10.559  0.2725 -0.6389  0.7144
14677TIP3    H265447   0.238   2.543  10.484  0.2321 -0.2541  0.1472
14678TIP3   OH265448   2.393   5.176   1.022 -0.3087 -0.9938  0.4552
14678TIP3    H165449   2.352   5.173   0.936 -1.2433 -1.4976  0.8943
14678TIP3    H265450   2.467   5.234   1.012  0.7464 -2.5196 -1.1828
14679TIP3   OH265451   0.977   1.356   3.813 -0.0452  0.2543  0.0050
14679TIP3    H165452   0.946   1.445   3.794 -1.2860 -0.0631  0.4339
14679TIP3    H265453   0.900   1.301   3.799  0.6167 -0.7117  0.1089
14680TIP3   OH265454   5.020   5.501   1.073  0.1298  0.1990  0.5026
14680TIP3    H165455   4.953   5.536   1.132 -1.5133 -0.6204 -0.7687
14680TIP3    H265456   4.980   5.421   1.037  1.6894 -0.1529 -0.5401
14681TIP3   OH265457   5.219   3.733   2.741  0.3537  0.1930 -0.0030
14681TIP3    H165458   5.305   3.703   2.711  1.0902  1.4708  0.7176
14681TIP3    H265459   5.239   3.803   2.803 -1.1804 -0.2468  1.0650
14682TIP3   OH265460   2.767   3.927  12.511 -0.5681  0.0638  0.8424
14682TIP3    H165461   2.695   3.888  12.463 -1.1056  1.3630  0.5754
14682TIP3    H265462   2.739   3.926  12.602 -0.2671 -0.8205  0.9369
14683TIP3   OH265463   3.607   6.582   5.761  0.1611 -0.1803  0.5613
14683TIP3    H165464   3.540   6.642   5.729  0.2864 -0.5168 -0.3506
14683TIP3    H265465   3.558   6.505   5.790  0.1002 -0.1323  0.5864
14684TIP3   OH265466   5.874   4.438  15.504  0.0547 -0.1739  0.2458
14684TIP3    H165467   5.802   4.490  15.539  0.6312 -0.4215  1.8584
14684TIP3    H265468   5.869   4.355  15.551  0.6680 -0.6634 -0.5133
14685TIP3   OH265469   0.455   4.549   3.252 -0.7811 -0.0698 -0.6757
14685TIP3    H165470   0.374   4.597   3.238 -0.4151  0.8466  0.2155
14685TIP3    H265471   0.494   4.541   3.165 -1.4737  0.1097 -1.0079
14686TIP3   OH265472   6.737   2.126   3.315  0.3963  0.4400 -0.1155
14686TIP3    H165473   6.758   2.077   3.235  0.3724 -0.9924  0.7255
14686TIP3    H265474   6.764   2.069   3.386 -1.4405  0.8251  0.9400
14687TIP3   OH265475   1.726   0.987   4.178 -0.2728  0.1566  0.3994
14687TIP3    H165476   1.794   0.925   4.154 -0.7365  0.5290 -2.1370
14687TIP3    H265477   1.644   0.938   4.168 -0.5216  0.4271  1.0225
14688TIP3   OH265478   0.810   4.497  11.583 -0.2653  0.1590 -0.1424
14688TIP3    H165479   0.819   4.445  11.504  2.3625 -1.5175  1.1298
14688TIP3    H265480   0.728   4.468  11.622 -1.4628  0.8136 -2.0065
14689TIP3   OH265481   6.443   2.637  14.758 -0.6512  0.8681  0.0371
14689TIP3    H165482   6.533   2.646  14.726 -0.8245  1.0407 -0.4099
14689TIP3    H265483   6.420   2.724  14.790 -0.4241  0.6592  0.7942
14690TIP3   OH265484   4.235   3.418  15.173 -0.0242 -0.3379 -0.1474
14690TIP3    H165485   4.234   3.326  15.147  1.7863 -0.4590  0.0727
14690TIP3    H265486   4.279   3.418  15.258 -2.7919  0.4263  1.4093
14691TIP3   OH265487   2.818   5.771   1.044 -0.1783 -0.1987  0.1963
14691TIP3    H165488   2.818   5.788   0.950  2.8021  3.2861  0.5680
14691TIP3    H265489   2.878   5.697   1.055 -1.2134 -1.1905 -0.6392
14692TIP3   OH265490   5.828   5.120  17.219 -0.0516  0.4487  0.4756
14692TIP3    H165491   5.753   5.133  17.278 -0.9340  0.7760 -0.6940
14692TIP3    H265492   5.860   5.208  17.200 -0.9614  0.4937 -1.0061
14693TIP3   OH265493   1.632   0.883   2.606  0.0853  0.3836 -0.1877
14693TIP3    H165494   1.727   0.873   2.592  0.3213  1.1235  0.8142
14693TIP3    H265495   1.622   0.971   2.642 -1.0142  0.3900 -0.4810
14694TIP3   OH265496   5.745   2.664  13.196  0.2352 -0.3899 -0.1803
14694TIP3    H165497   5.676   2.659  13.130  1.3073  1.4222 -1.5162
14694TIP3    H265498   5.810   2.599  13.168 -0.7919 -2.0276  1.0255
14695TIP3   OH265499   5.028   4.268   0.192 -0.4892  0.1997 -0.4300
14695TIP3    H165500   5.092   4.334   0.165 -0.9753  0.7240 -0.3221
14695TIP3    H265501   4.945   4.315   0.192 -0.6803 -0.1077  0.8115
14696TIP3   OH265502   0.890   5.417  15.518 -0.5299 -0.2273  0.0470
14696TIP3    H165503   0.883   5.392  15.426 -1.2663  1.0288 -0.2599
14696TIP3    H265504   0.974   5.463  15.524 -0.8284  0.3511 -0.1675
14697TIP3   OH265505   3.060   2.061  13.484  0.4197  0.0443  0.0545
14697TIP3    H165506   3.153   2.044  13.500  0.6841  0.9692 -0.4515
14697TIP3    H265507   3.041   2.012  13.404 -0.1073 -1.9432  1.3061
14698TIP3   OH265508   1.683   1.674  14.290 -0.3934 -0.4138 -0.8302
14698TIP3    H165509   1.710   1.765  14.278 -1.9175  0.2801  0.5371
14698TIP3    H265510   1.597   1.668  14.248 -0.9451 -0.7956  0.2821
14699TIP3   OH265511   4.866   4.668   0.802  0.0431  0.1214  0.2719
14699TIP3    H165512   4.839   4.654   0.892  0.7770  0.2155  0.5121
14699TIP3    H265513   4.785   4.690   0.756 -0.4752 -0.8061  0.7184
14700TIP3   OH265514   2.974   4.845   5.122  1.0211  0.3028  0.1870
14700TIP3    H165515   3.059   4.813   5.153  1.4150  0.5700 -0.5717
14700TIP3    H265516   2.974   4.938   5.143  2.2842  1.0398 -2.5402
14701TIP3   OH265517   5.246   1.464  13.823  0.4738  0.4619 -0.1684
14701TIP3    H165518   5.156   1.437  13.843  0.5026 -0.0576 -0.7000
14701TIP3    H265519   5.262   1.429  13.735  1.2958  0.3094  0.0367
14702TIP3   OH265520   0.112   0.137   0.613  0.2558 -0.0187 -0.0957
14702TIP3    H165521   0.162   0.217   0.602  0.4966 -0.3062 -1.2858
14702TIP3    H265522   0.122   0.114   0.705  0.4427  1.1363  0.1865
14703TIP3   OH265523   4.823   2.519  11.195  0.1796 -0.0824  0.2707
14703TIP3    H165524   4.800   2.438  11.240 -1.6726  0.0198 -0.4115
14703TIP3    H265525   4.917   2.513  11.182  0.1614 -1.8702  0.7166
14704TIP3   OH265526   6.059   1.754  11.947  0.1473  0.3071  0.0440
14704TIP3    H165527   5.963   1.753  11.944  0.1590 -1.0345 -2.0338
14704TIP3    H265528   6.085   1.818  11.881  0.6390 -1.2620 -1.3504
14705TIP3   OH265529   5.059   3.596   2.172 -0.1146  0.2257 -0.6366
14705TIP3    H165530   5.118   3.588   2.246  1.2275  0.2750 -1.6659
14705TIP3    H265531   5.021   3.683   2.181  0.5692  0.5008 -0.3739
14706TIP3   OH265532   4.027   5.128   5.123  0.2697 -0.4451 -0.2880
14706TIP3    H165533   4.030   5.099   5.214 -0.8838  1.4083  0.3958
14706TIP3    H265534   4.052   5.051   5.072  2.7480 -1.0297  1.6548
14707TIP3   OH265535   4.574   5.077  11.535  0.3660 -0.0488  0.4306
14707TIP3    H165536   4.604   5.166  11.517  1.0595 -0.1796  0.9307
14707TIP3    H265537   4.612   5.055  11.620  1.1525 -1.2579 -0.2160
14708TIP3   OH265538   0.044   2.117  13.175  0.0523  0.1585 -0.2581
14708TIP3    H165539   0.124   2.151  13.214  0.4413  0.8904 -1.6320
14708TIP3    H265540  -0.004   2.078  13.248  1.4208  0.1602  0.6715
14709TIP3   OH265541   3.735   4.587  13.897  0.0257  0.0614 -0.0946
14709TIP3    H165542   3.717   4.503  13.939 -1.4342  1.5237  2.4782
14709TIP3    H265543   3.669   4.593  13.828  1.4937 -1.7415 -1.7566
14710TIP3   OH265544   6.254   4.660   0.392 -0.0007  0.1574  0.0916
14710TIP3    H165545   6.266   4.626   0.480 -0.5582  1.2845  0.6157
14710TIP3    H265546   6.181   4.609   0.356  0.7518 -0.8719 -0.0459
14711TIP3   OH265547   0.474   2.983   3.816  0.3772 -0.0163 -0.4987
14711TIP3    H165548   0.453   2.892   3.837  1.9226 -0.2354  0.2384
14711TIP3    H265549   0.399   3.014   3.765 -1.4264 -0.8850  1.4846
14712TIP3   OH265550   3.754   1.446   1.594  0.2241 -0.3569 -0.4847
14712TIP3    H165551   3.765   1.527   1.644 -0.6245 -0.4845 -0.0776
14712TIP3    H265552   3.659   1.438   1.581  0.3662 -0.7932 -1.3419
14713TIP3   OH265553   5.977   4.354  12.382 -0.1950  0.1611  0.6572
14713TIP3    H165554   5.963   4.353  12.288 -1.9403 -2.2020  0.8480
14713TIP3    H265555   5.930   4.432  12.413 -1.6713 -0.3640 -0.1928
14714TIP3   OH265556   1.800   0.151  13.792 -0.1186 -0.5231 -0.2916
14714TIP3    H165557   1.725   0.124  13.844  0.5798 -2.5602 -0.2489
14714TIP3    H265558   1.769   0.226  13.742 -2.1885 -1.3358 -0.3120
14715TIP3   OH265559   5.746   3.526   4.198 -0.6338 -0.1633  0.1944
14715TIP3    H165560   5.685   3.600   4.191 -1.1243 -0.5925 -0.1780
14715TIP3    H265561   5.832   3.567   4.201 -0.6491  0.3708 -3.1167
14716TIP3   OH265562   3.438   2.072  17.037  0.2839 -0.4285 -0.2548
14716TIP3    H165563   3.463   2.128  16.964 -0.6824 -1.8531 -1.7681
14716TIP3    H265564   3.520   2.048  17.079  0.7722  1.3692 -0.1029
14717TIP3   OH265565   0.912   0.815   6.786 -0.1185  0.5007 -0.1294
14717TIP3    H165566   1.004   0.841   6.782  0.4175 -0.8356  1.8965
14717TIP3    H265567   0.871   0.881   6.842  0.4097 -0.7001  1.7887
14718TIP3   OH265568   4.017   0.706  14.527  0.1114  0.6249 -0.0663
14718TIP3    H165569   3.980   0.783  14.569 -0.3790  0.5661 -0.3716
14718TIP3    H265570   3.940   0.660  14.490  0.1919 -0.8578  1.4899
14719TIP3   OH265571   6.107   4.404   1.894 -0.2321 -0.7317  0.1401
14719TIP3    H165572   6.145   4.354   1.967 -0.2310 -1.1933 -0.1719
14719TIP3    H265573   6.110   4.344   1.820 -1.1141 -0.5974 -0.0133
14720TIP3   OH265574   4.534   5.388  11.017 -0.3419  0.1640 -0.2177
14720TIP3    H165575   4.596   5.461  11.020 -0.5448  0.3083  0.6607
14720TIP3    H265576   4.544   5.344  11.101 -1.6534  0.3851  0.0852
14721TIP3   OH265577   4.740   0.667  14.010 -0.0464 -0.1347 -0.0824
14721TIP3    H165578   4.762   0.754  14.043 -0.7907 -0.0142  0.1046
14721TIP3    H265579   4.749   0.610  14.086  0.2406 -0.1934 -0.1577
14722TIP3   OH265580   6.444   4.627   0.100  0.5332 -0.0624  0.2390
14722TIP3    H165581   6.356   4.596   0.080  0.9042  0.3854 -2.4077
14722TIP3    H265582   6.501   4.552   0.084  0.7782  0.0596  0.5238
14723TIP3   OH265583   1.793   4.751   6.843  0.3658 -0.1938 -0.0792
14723TIP3    H165584   1.808   4.666   6.800  1.5845  0.7195 -1.5403
14723TIP3    H265585   1.760   4.807   6.773 -0.6867  0.5055  0.9350
14724TIP3   OH265586   5.329   0.313   3.087  0.5409  0.4914 -0.2163
14724TIP3    H165587   5.417   0.346   3.067 -0.1562  1.7730 -1.2995
14724TIP3    H265588   5.300   0.365   3.161  0.9263 -0.3743  0.5567
14725TIP3   OH265589   1.756   0.053  12.587 -0.0255 -0.1905  0.0361
14725TIP3    H165590   1.695   0.085  12.521  2.1809  0.4744 -1.8142
14725TIP3    H265591   1.823   0.005  12.538  2.4021  1.3964  1.5346
14726TIP3   OH265592   0.261   4.742   3.145 -0.1900  0.0410  0.6444
14726TIP3    H165593   0.271   4.796   3.067 -1.1043  0.4484  0.7852
14726TIP3    H265594   0.239   4.804   3.214 -1.3951 -0.5079  0.7847
14727TIP3   OH265595   6.609   6.739   3.150 -0.1784 -0.1640  0.0190
14727TIP3    H165596   6.602   6.759   3.057  1.2252  0.5509  0.0453
14727TIP3    H265597   6.520   6.717   3.176 -0.9304  1.4134 -1.0784
14728TIP3   OH265598   4.518   2.057  15.144 -0.2425  0.6116  0.1496
14728TIP3    H165599   4.435   2.105  15.148 -0.6443 -0.0678  0.2145
14728TIP3    H265600   4.585   2.124  15.151 -0.7915  1.1386  0.4905
14729TIP3   OH265601   4.292   2.592   4.423 -0.2714 -0.4716  0.0397
14729TIP3    H165602   4.364   2.644   4.389 -1.9629  1.3522 -0.8974
14729TIP3    H265603   4.309   2.504   4.390  0.0126  0.5107 -2.6490
14730TIP3   OH265604   0.256   0.913   2.656 -0.2155  0.0396 -0.1820
14730TIP3    H165605   0.340   0.907   2.611 -0.3103  2.7565 -0.8596
14730TIP3    H265606   0.209   0.835   2.628  2.0553 -1.6257  0.3045
14731TIP3   OH265607   5.636   3.608  11.700  0.0780  0.2973  0.0185
14731TIP3    H165608   5.554   3.656  11.698  0.7668  1.4987 -1.1454
14731TIP3    H265609   5.640   3.564  11.615  0.0292 -0.8573  0.5954
14732TIP3   OH265610   1.530   5.956  16.662 -0.5422 -0.0285 -0.0822
14732TIP3    H165611   1.605   5.920  16.614  0.2311  3.1523 -1.4993
14732TIP3    H265612   1.563   5.966  16.752 -0.5980 -2.1373  0.2181
14733TIP3   OH265613   6.672   1.744   3.490  0.4926 -0.4717 -0.0502
14733TIP3    H165614   6.741   1.793   3.444 -0.5653  1.2454  0.1166
14733TIP3    H265615   6.592   1.769   3.445 -0.0997 -2.1106  0.0400
14734TIP3   OH265616   1.964   1.146   2.782  0.0341  0.2922 -0.4228
14734TIP3    H165617   1.975   1.122   2.873  0.1296  0.4011 -0.4057
14734TIP3    H265618   2.051   1.174   2.753 -0.0757  0.6256 -0.4372
14735TIP3   OH265619   3.809   5.286  12.742 -0.1718 -0.1497 -0.4061
14735TIP3    H165620   3.889   5.256  12.700 -0.2566 -0.1750 -0.5511
14735TIP3    H265621   3.773   5.209  12.785 -0.1004 -0.1303 -0.3100
14736TIP3   OH265622   3.886   0.105  11.391  0.3154 -0.5471 -0.8243
14736TIP3    H165623   3.899   0.120  11.297  1.0412 -1.6119 -0.9126
14736TIP3    H265624   3.837   0.182  11.421 -2.4491 -1.4605 -2.6082
14737TIP3   OH265625   5.002   2.902   1.000  0.0499  0.2346  0.1548
14737TIP3    H165626   4.956   2.825   0.967  1.7734 -0.5156 -0.6006
14737TIP3    H265627   4.981   2.905   1.093 -1.0692 -0.3748 -0.0567
14738TIP3   OH265628   2.571   1.787   1.300 -0.1079  0.1396 -0.0144
14738TIP3    H165629   2.568   1.696   1.269 -1.6458 -0.3712  1.5271
14738TIP3    H265630   2.655   1.793   1.346  0.4557 -0.1891 -0.9629
14739TIP3   OH265631   1.689   1.366   3.576 -0.0199 -0.2240 -0.0032
14739TIP3    H165632   1.780   1.379   3.550  0.2633  2.0803  1.8762
14739TIP3    H265633   1.658   1.452   3.602 -2.6316 -1.0296 -0.1024
14740TIP3   OH265634   4.765   4.617  17.351 -0.0488 -0.4644 -0.0462
14740TIP3    H165635   4.790   4.695  17.301 -0.8324 -0.7077 -0.8387
14740TIP3    H265636   4.761   4.547  17.286 -0.7871 -0.8525  0.4056
14741TIP3   OH265637   5.154   1.946   2.039  0.2270 -0.3021 -0.1414
14741TIP3    H165638   5.147   1.852   2.020 -0.3005 -0.0941 -1.0382
14741TIP3    H265639   5.178   1.950   2.132 -1.2053 -1.3057  0.3036
14742TIP3   OH265640   3.438   3.646   5.086 -0.8203 -0.2105  0.3948
14742TIP3    H165641   3.439   3.550   5.084 -1.9841 -0.2263  0.0502
14742TIP3    H265642   3.487   3.668   5.166  0.9170 -1.0142 -0.3761
14743TIP3   OH265643   0.070   2.072   1.340  0.2930 -0.0219  0.4803
14743TIP3    H165644   0.093   2.031   1.423 -0.0056 -1.3489 -0.0767
14743TIP3    H265645   0.143   2.051   1.281  0.3584  0.6502  0.3110
14744TIP3   OH265646   1.918   0.655  15.069 -0.2546 -0.2414  0.0861
14744TIP3    H165647   1.923   0.570  15.114  0.6565  0.3542  1.1875
14744TIP3    H265648   1.864   0.709  15.127 -0.8038 -0.0598 -0.5938
14745TIP3   OH265649   1.503   1.733   2.093 -0.3452  0.9878 -0.2523
14745TIP3    H165650   1.548   1.817   2.090 -1.5260  1.7644  1.6940
14745TIP3    H265651   1.489   1.709   2.002  0.6327  2.5501 -0.8460
14746TIP3   OH265652   1.295   1.782  15.211 -0.1182  0.5212  0.6068
14746TIP3    H165653   1.345   1.818  15.284 -0.2066  3.3930 -0.6407
14746TIP3    H265654   1.362   1.748  15.151  0.2222  1.8972  0.1799
14747TIP3   OH265655   0.885   4.681   4.803  0.3514  0.0865 -0.4004
14747TIP3    H165656   0.829   4.757   4.820 -1.4718 -0.5899 -2.8676
14747TIP3    H265657   0.855   4.614   4.865  0.9705  0.8662  0.7734
14748TIP3   OH265658   0.845   3.587  12.569  0.5714  0.1392 -0.5222
14748TIP3    H165659   0.893   3.508  12.592  0.8297  0.9393  2.1245
14748TIP3    H265660   0.753   3.565  12.584  0.7959  1.2053  4.1478
14749TIP3   OH265661   1.070   0.662   1.451  0.1753  0.1596  0.0359
14749TIP3    H165662   1.032   0.733   1.399  0.5814 -0.2053 -0.7767
14749TIP3    H265663   1.015   0.657   1.530 -1.4346 -0.3147 -1.0709
14750TIP3   OH265664   4.140   3.843  15.575  0.1526  0.2712 -0.5596
14750TIP3    H165665   4.162   3.861  15.667  1.0279 -1.6709 -0.3367
14750TIP3    H265666   4.093   3.921  15.546 -2.3364 -0.0007  2.2329
14751TIP3   OH265667   0.059   2.792  13.174  0.2783  0.2399 -0.1735
14751TIP3    H165668   0.119   2.859  13.205  1.6527 -1.2127  0.4906
14751TIP3    H265669   0.056   2.728  13.245 -1.1241 -0.3310 -0.7028
14752TIP3   OH265670   2.348   0.930  12.354  0.1704 -0.5741 -0.3347
14752TIP3    H165671   2.307   0.867  12.294  0.5831 -1.5216  0.3534
14752TIP3    H265672   2.435   0.945  12.316  1.1292 -2.5529  0.9090
14753TIP3   OH265673   4.977   6.611  11.469 -0.2782 -0.0751 -0.1183
14753TIP3    H165674   4.907   6.654  11.519  0.1076  1.8547 -1.1362
14753TIP3    H265675   4.952   6.624  11.377  1.5563  1.0041 -0.5226
14754TIP3   OH265676   0.992   3.747  11.114 -0.0997 -0.0801  0.1186
14754TIP3    H165677   0.943   3.814  11.161 -0.7286 -1.3789  1.3830
14754TIP3    H265678   0.928   3.677  11.099  0.9050 -1.0238  0.1540
14755TIP3   OH265679   4.536   0.013   3.955  0.3156 -0.7044 -0.9203
14755TIP3    H165680   4.462   0.060   3.918 -0.4167 -1.0753  0.0375
14755TIP3    H265681   4.613   0.061   3.923 -0.2410 -1.1388 -3.0759
14756TIP3   OH265682   2.135   1.372   2.756 -0.3641 -0.3313  0.6991
14756TIP3    H165683   2.146   1.406   2.845  0.3301 -1.8808  1.2346
14756TIP3    H265684   2.061   1.422   2.721  1.3814  2.6544  0.9069
14757TIP3   OH265685   2.843   1.643  11.886 -0.0216  0.0168 -0.1250
14757TIP3    H165686   2.852   1.664  11.979 -0.7313 -0.9655  0.1813
14757TIP3    H265687   2.792   1.716  11.851 -1.6949 -0.6778  0.7433
14758TIP3   OH265688   5.261   0.483  11.542 -0.1136  0.1774 -0.0964
14758TIP3    H165689   5.217   0.452  11.464 -0.1734 -1.3581  0.5241
14758TIP3    H265690   5.325   0.415  11.563  0.7220  1.1135  0.5392
14759TIP3   OH265691   2.851   1.984  15.164  0.1786 -0.0777 -0.1804
14759TIP3    H165692   2.907   2.001  15.088  1.5170  0.1986  0.8441
14759TIP3    H265693   2.764   2.015  15.137  0.2464 -1.4373 -2.1627
14760TIP3   OH265694   5.805   4.967   1.350 -0.8802 -0.4274 -0.4106
14760TIP3    H165695   5.878   4.930   1.301  0.1462  0.8257  0.1181
14760TIP3    H265696   5.727   4.943   1.299  0.2096  2.2737 -3.7298
14761TIP3   OH265697   0.066   1.596   4.017  0.1436 -0.1134  0.1431
14761TIP3    H165698   0.102   1.534   3.954  2.2373  1.3681 -0.2264
14761TIP3    H265699   0.098   1.566   4.102  1.0232  0.3424 -0.0181
14762TIP3   OH265700   5.516   3.153   4.454  0.1102  0.0917  0.2704
14762TIP3    H165701   5.607   3.163   4.482  0.7941  1.2932 -2.0888
14762TIP3    H265702   5.466   3.210   4.513  1.4237  2.2737 -0.6284
14763TIP3   OH265703   6.698   6.059  12.474  0.2475 -0.0084 -0.1176
14763TIP3    H165704   6.751   6.081  12.550 -1.0736 -1.6536  1.3820
14763TIP3    H265705   6.621   6.115  12.482 -0.6358 -1.2764  0.7247
14764TIP3   OH265706   1.769   5.724  15.905 -0.4335 -0.2276  0.0438
14764TIP3    H165707   1.754   5.807  15.858  0.1643  0.4603  1.0292
14764TIP3    H265708   1.828   5.675  15.848  2.0689  1.5098  0.9704
14765TIP3   OH265709   2.963   3.684  14.007  0.3019  0.2414 -0.4016
14765TIP3    H165710   3.009   3.645  14.082  0.8129  0.1704 -0.7479
14765TIP3    H265711   2.920   3.761  14.044 -0.5692 -0.5350  0.2476
14766TIP3   OH265712   4.287   0.232   5.044  0.4004 -0.8303  0.2512
14766TIP3    H165713   4.278   0.296   5.116 -3.2468 -1.3573  0.4371
14766TIP3    H265714   4.267   0.148   5.084 -2.6383 -1.0371 -1.4000
14767TIP3   OH265715   2.392   5.008  10.930 -0.0145  0.1442 -0.0256
14767TIP3    H165716   2.479   5.014  10.971  0.1827 -0.0207 -0.4158
14767TIP3    H265717   2.385   5.087  10.876  0.3779 -0.4163 -0.9165
14768TIP3   OH265718   2.974   5.498   1.590 -0.2115  0.0650  0.0419
14768TIP3    H165719   3.000   5.538   1.674 -0.0331 -0.1679  0.0982
14768TIP3    H265720   2.930   5.569   1.543 -0.1866  0.2380  0.2750
14769TIP3   OH265721   2.791   4.377  16.265  0.3512  0.6697 -0.2990
14769TIP3    H165722   2.771   4.323  16.188  0.1081  0.7443 -0.2885
14769TIP3    H265723   2.710   4.426  16.282 -0.3518 -0.8775  1.2519
14770TIP3   OH265724   3.798   4.778  15.983 -0.0324 -0.2987  0.0712
14770TIP3    H165725   3.813   4.863  15.943  0.2947 -0.1166  0.5731
14770TIP3    H265726   3.727   4.739  15.932 -0.9645  0.7421  0.5343
14771TIP3   OH265727   5.863   0.987  16.448  0.2588 -0.3215 -0.2397
14771TIP3    H165728   5.944   0.937  16.451  0.3880 -0.2445 -1.8404
14771TIP3    H265729   5.799   0.932  16.494  1.3990  0.0599  1.9351
14772TIP3   OH265730   0.029   1.019  14.049  0.3728 -0.8523  0.2697
14772TIP3    H165731   0.071   1.039  13.965  0.3676 -0.9113  0.2530
14772TIP3    H265732  -0.064   1.035  14.033  0.2335 -1.8974 -0.0528
14773TIP3   OH265733   6.310   4.175  16.834  0.4788 -0.2914 -0.3742
14773TIP3    H165734   6.303   4.241  16.764 -0.7324 -1.4035 -1.3563
14773TIP3    H265735   6.219   4.150  16.853  0.9168 -2.4860 -0.8526
14774TIP3   OH265736   0.375   3.772   0.734  0.1866 -0.0820  0.0100
14774TIP3    H165737   0.285   3.805   0.731  0.1996  0.0216  0.5976
14774TIP3    H265738   0.405   3.776   0.644 -0.6339 -0.7593 -0.3159
14775TIP3   OH265739   6.073   5.868   2.264  0.0369 -0.0149 -0.3452
14775TIP3    H165740   6.096   5.807   2.334 -1.4545 -0.1775  0.0312
14775TIP3    H265741   6.157   5.893   2.226  0.8522 -0.3296  1.1604
14776TIP3   OH265742   0.789   5.300   1.419  0.0853  0.0426 -0.1871
14776TIP3    H165743   0.821   5.389   1.434  0.1189 -0.1331  0.8869
14776TIP3    H265744   0.749   5.276   1.502 -1.3367 -0.3703 -0.9649
14777TIP3   OH265745   5.948   2.438   4.827 -0.2034  0.1218 -0.4285
14777TIP3    H165746   5.886   2.493   4.875 -1.2969  0.5924 -2.2479
14777TIP3    H265747   6.031   2.485   4.831  0.3411 -0.9002  2.7179
14778TIP3   OH265748   5.997   2.161  11.871 -0.1829  0.4830  0.1251
14778TIP3    H165749   5.902   2.164  11.876 -0.3875 -0.1051 -2.0944
14778TIP3    H265750   6.020   2.234  11.813  0.7414  0.7409  0.8039
14779TIP3   OH265751   1.300   2.257  11.378  0.4716  0.4376 -0.1632
14779TIP3    H165752   1.387   2.221  11.393  0.6436  1.1261  0.5907
14779TIP3    H265753   1.240   2.187  11.402  0.7766  0.9103  2.2194
14780TIP3   OH265754   3.746   4.117   2.520  0.1948  0.5087 -0.2943
14780TIP3    H165755   3.658   4.156   2.521 -0.7144 -1.4129 -0.0090
14780TIP3    H265756   3.739   4.046   2.456  0.4078 -1.9956  2.2517
14781TIP3   OH265757   1.980   5.078   4.928 -0.1808 -0.2972 -0.1892
14781TIP3    H165758   1.983   5.026   4.848 -0.3503 -0.7576  0.1000
14781TIP3    H265759   2.070   5.077   4.961 -0.1758 -0.3710 -0.2058
14782TIP3   OH265760   5.776   1.701  10.776 -0.0553  0.0054 -0.5368
14782TIP3    H165761   5.730   1.642  10.835  1.0066  1.3924  1.8181
14782TIP3    H265762   5.867   1.671  10.777  0.1515  0.6025 -0.7577
14783TIP3   OH265763   3.857   6.681   5.096  0.2475  0.2429  0.5052
14783TIP3    H165764   3.808   6.640   5.025  0.0602  0.4740  0.5026
14783TIP3    H265765   3.829   6.634   5.175 -0.0704  0.4589  0.5205
14784TIP3   OH265766   6.734   4.181  17.341 -0.3077  0.2647  0.8302
14784TIP3    H165767   6.668   4.159  17.407 -3.1003 -0.8173 -1.9972
14784TIP3    H265768   6.738   4.103  17.285  1.3843  1.3440 -0.6678
14785TIP3   OH265769   0.650   3.154   2.679  0.3485 -0.2339  0.1618
14785TIP3    H165770   0.663   3.243   2.646  0.2540 -0.2913 -0.0368
14785TIP3    H265771   0.561   3.155   2.715  0.1569 -0.3791 -0.2912
14786TIP3   OH265772   5.218   6.380  13.584  0.3855  1.0639  0.0822
14786TIP3    H165773   5.296   6.433  13.597  0.0609  1.5469  0.1065
14786TIP3    H265774   5.146   6.443  13.583  0.0835  0.7277 -0.8520
14787TIP3   OH265775   4.492   1.255   4.703  0.2155 -0.1475  0.1915
14787TIP3    H165776   4.536   1.329   4.744  2.1947  0.0855 -2.1403
14787TIP3    H265777   4.429   1.225   4.768  2.0984  1.1140  2.7487
14788TIP3   OH265778   5.324   5.480  16.630 -0.0889 -0.2141  0.0030
14788TIP3    H165779   5.406   5.526  16.645 -0.6517  0.5141  0.9174
14788TIP3    H265780   5.271   5.540  16.578  0.7366 -1.5465 -2.5120
14789TIP3   OH265781   4.403   4.204  14.466 -0.0907  0.3389  0.2638
14789TIP3    H165782   4.394   4.201  14.561 -1.1315  0.8045  0.1892
14789TIP3    H265783   4.315   4.223  14.434  0.3057  0.4729 -0.7788
14790TIP3   OH265784   6.455   5.369  17.288  0.0307 -0.0908 -0.3603
14790TIP3    H165785   6.532   5.319  17.258 -0.7765 -1.7171  0.1567
14790TIP3    H265786   6.403   5.305  17.337 -1.1987  1.2218  0.0957
14791TIP3   OH265787   4.824   4.796  15.161  0.2083  0.4774  0.4399
14791TIP3    H165788   4.901   4.815  15.108  0.1059  1.2116  0.5345
14791TIP3    H265789   4.852   4.726  15.220  0.5473  0.1739 -0.0709
14792TIP3   OH265790   3.268   3.679  15.100  0.3093  0.2292  0.1992
14792TIP3    H165791   3.210   3.752  15.081  0.0993  0.4433  1.5741
14792TIP3    H265792   3.211   3.603  15.108  0.3154  0.2676  0.6309
14793TIP3   OH265793   0.873   4.387  13.249 -0.2527 -0.0114 -0.3096
14793TIP3    H165794   0.799   4.343  13.208 -1.6222  0.4743  1.5262
14793TIP3    H265795   0.906   4.446  13.181 -2.1866  0.4877 -0.8628
14794TIP3   OH265796   4.784   1.626  10.489 -0.1017 -0.0654  1.0940
14794TIP3    H165797   4.768   1.532  10.497 -0.4836 -0.2042 -0.9643
14794TIP3    H265798   4.698   1.666  10.501 -0.5497 -0.2320 -1.1365
14795TIP3   OH265799   6.430   2.301   0.437  0.0000  0.7315  0.0879
14795TIP3    H165800   6.367   2.324   0.368 -0.0572  0.7428  0.1433
14795TIP3    H265801   6.435   2.379   0.492  0.4892  0.9315 -0.2335
14796TIP3   OH265802   2.960   6.001  12.726 -0.4022  0.0486  0.1007
14796TIP3    H165803   2.867   6.006  12.701 -0.1552  1.4627 -0.6171
14796TIP3    H265804   2.988   6.092  12.735  1.1347 -0.3274 -0.5459
14797TIP3   OH265805   3.529   4.178  13.982 -0.5446 -0.2007 -0.2420
14797TIP3    H165806   3.599   4.131  14.028 -2.1034 -1.9025  0.5467
14797TIP3    H265807   3.491   4.112  13.923 -1.3249  0.7418 -0.8318
14798TIP3   OH265808   5.144   0.687  12.192  0.2328  0.5061  0.5955
14798TIP3    H165809   5.097   0.769  12.201 -0.2624  0.3774 -0.6055
14798TIP3    H265810   5.104   0.629  12.257  0.3503  1.1063  1.2061
14799TIP3   OH265811   4.200   1.021   5.996  0.4714  0.3341  0.8558
14799TIP3    H165812   4.207   1.034   6.091  0.1686 -0.8772  1.0615
14799TIP3    H265813   4.106   1.010   5.980  0.6504 -1.0617  0.6608
14800TIP3   OH265814   2.515   4.084  15.344  0.6340 -0.3848 -0.1945
14800TIP3    H165815   2.588   4.031  15.377  0.5552 -0.9540 -0.9092
14800TIP3    H265816   2.557   4.160  15.304  0.8480 -0.7564 -0.6835
14801TIP3   OH265817   2.597   0.914   6.390 -0.0720 -0.2285 -0.5593
14801TIP3    H165818   2.602   0.970   6.468 -2.5766 -1.1087  0.3251
14801TIP3    H265819   2.647   0.836   6.413 -0.4128 -0.2858  0.0038
14802TIP3   OH265820   1.383   4.965  12.449 -0.0159  0.1909  0.7286
14802TIP3    H165821   1.452   4.904  12.422  1.0971  2.1507 -1.1665
14802TIP3    H265822   1.317   4.957  12.380 -0.0487  0.8150  0.6833
14803TIP3   OH265823   6.145   1.163  13.004 -0.1045  0.1729  0.4337
14803TIP3    H165824   6.162   1.254  12.981  0.8893  0.2496  1.3876
14803TIP3    H265825   6.175   1.113  12.927  1.4402  0.5320  0.7684
14804TIP3   OH265826   3.341   4.823   1.684 -0.0633 -0.2676 -0.6808
14804TIP3    H165827   3.253   4.859   1.672  0.2534  1.2201  1.0572
14804TIP3    H265828   3.394   4.866   1.618 -0.5917 -1.1386 -1.7093
14805TIP3   OH265829   5.520   5.642  11.574 -0.1322  0.2096 -0.4554
14805TIP3    H165830   5.480   5.661  11.490  0.5544 -1.1080 -1.1192
14805TIP3    H265831   5.492   5.552  11.594  0.4210  0.1868  0.2934
14806TIP3   OH265832   4.562   3.932   5.671  0.1021 -0.3179 -0.0590
14806TIP3    H165833   4.656   3.930   5.688  0.2393  2.7585  0.2249
14806TIP3    H265834   4.523   3.882   5.743  1.4441  0.1730  1.0522
14807TIP3   OH265835   4.640   4.097  12.549 -0.1228  0.3848 -0.2493
14807TIP3    H165836   4.639   4.102  12.454 -1.2651  0.5440 -0.2404
14807TIP3    H265837   4.590   4.018  12.570 -0.9648  1.0287  0.2385
14808TIP3   OH265838   0.182   6.228  12.895  0.5718  0.2798 -0.4453
14808TIP3    H165839   0.115   6.180  12.846 -0.5815  1.5766 -0.2287
14808TIP3    H265840   0.136   6.306  12.927  1.5486 -0.0125  1.8414
14809TIP3   OH265841   1.563   0.242  14.290 -0.0246  0.1515  0.2977
14809TIP3    H165842   1.625   0.290  14.235 -1.2376 -0.3982 -1.6630
14809TIP3    H265843   1.482   0.292  14.285 -0.2921 -0.1633  1.2320
14810TIP3   OH265844   6.227   2.469  13.550  0.1997  0.0007  0.0020
14810TIP3    H165845   6.208   2.396  13.491 -1.5534  0.8431 -0.5762
14810TIP3    H265846   6.305   2.511  13.513  0.4818 -0.8429 -0.3731
14811TIP3   OH265847   1.416   5.774  11.754 -0.3512  0.1317  0.0016
14811TIP3    H165848   1.406   5.773  11.850 -1.7540  2.0821 -0.0508
14811TIP3    H265849   1.472   5.850  11.737 -0.0804 -0.2296 -0.7263
14812TIP3   OH265850   3.737   6.506   6.940  0.6773 -0.5329  0.3744
14812TIP3    H165851   3.734   6.410   6.942  0.7077 -0.5279  0.9042
14812TIP3    H265852   3.829   6.528   6.950  0.7511 -0.4521 -0.4135
14813TIP3   OH265853   6.575   3.465  15.598  0.0211  0.3567 -0.4098
14813TIP3    H165854   6.483   3.443  15.583 -0.3959 -0.1012  2.3837
14813TIP3    H265855   6.611   3.476  15.510 -2.1131 -1.7604 -1.6676
14814TIP3   OH265856   5.173   2.990   6.682 -0.1281  0.6874 -0.4596
14814TIP3    H165857   5.233   3.065   6.685  2.2049 -1.0377 -0.8723
14814TIP3    H265858   5.142   2.988   6.591  2.0650 -0.4048 -1.2635
14815TIP3   OH265859   0.355   5.131   4.153  0.0534 -0.6380  0.8360
14815TIP3    H165860   0.274   5.179   4.138  1.1573  1.9001  2.3328
14815TIP3    H265861   0.365   5.130   4.248  0.6405 -3.0174  0.8186
14816TIP3   OH265862   0.940   2.315  13.398 -0.1377  0.1948  0.5390
14816TIP3    H165863   0.965   2.269  13.318  0.7908 -0.8268  1.3753
14816TIP3    H265864   0.931   2.406  13.372  1.1438  0.0446 -0.5288
14817TIP3   OH265865   1.017   5.815   2.056  0.1583  0.8389 -0.2156
14817TIP3    H165866   0.935   5.810   2.006  0.3001  0.8276 -0.4533
14817TIP3    H265867   1.014   5.739   2.114  1.0364 -0.5255 -1.8594
14818TIP3   OH265868   0.695   5.587  14.885  0.3116  0.4271 -0.0461
14818TIP3    H165869   0.786   5.559  14.875  0.4237 -0.5257  2.8086
14818TIP3    H265870   0.647   5.507  14.905 -1.0843  1.0040 -0.9314
14819TIP3   OH265871   6.433   3.770  15.693  0.2213  0.5596  0.2179
14819TIP3    H165872   6.389   3.738  15.613 -0.9147  0.3458  0.9078
14819TIP3    H265873   6.488   3.842  15.662 -0.8579  1.0531 -0.6500
14820TIP3   OH265874   4.229   4.160   5.192 -0.3433 -0.4109  0.8673
14820TIP3    H165875   4.310   4.120   5.223  0.6169  0.2748 -0.6278
14820TIP3    H265876   4.252   4.199   5.107 -1.8024  1.2886  1.1760
14821TIP3   OH265877   3.578   6.501   0.673 -0.3581  0.4385 -0.3230
14821TIP3    H165878   3.499   6.555   0.676 -0.7831 -0.2042  1.4193
14821TIP3    H265879   3.552   6.419   0.716  1.3687  0.3973  0.7345
14822TIP3   OH265880   1.131   6.137   4.274  0.3366  0.4701 -0.6009
14822TIP3    H165881   1.075   6.194   4.326  0.2174  0.7328 -1.0109
14822TIP3    H265882   1.094   6.049   4.286 -0.7164  0.7553 -1.5642
14823TIP3   OH265883   1.403   0.976   4.288  0.0197 -0.2410 -0.1133
14823TIP3    H165884   1.404   1.060   4.241  0.2569  0.8612  1.7758
14823TIP3    H265885   1.312   0.967   4.318  0.4985  0.5910  1.7415
14824TIP3   OH265886   2.456   3.372  13.103  0.3521  0.5911 -0.4040
14824TIP3    H165887   2.405   3.348  13.180  0.0843 -0.2151 -0.8125
14824TIP3    H265888   2.403   3.438  13.059  0.4233  0.9259  0.0106
14825TIP3   OH265889   5.103   2.348   6.558 -0.3025  0.2368 -0.1483
14825TIP3    H165890   5.008   2.354   6.546 -0.9619 -1.4654  2.9077
14825TIP3    H265891   5.134   2.299   6.482 -1.8207  1.0182 -1.3241
14826TIP3   OH265892   5.194   0.609  16.783  0.4212 -0.0847 -0.0911
14826TIP3    H165893   5.160   0.632  16.696 -2.1516  0.4520  0.9944
14826TIP3    H265894   5.232   0.522  16.770  1.3076  0.5131 -2.0117
14827TIP3   OH265895   5.603   4.071  14.033 -0.1677 -0.2527  0.5396
14827TIP3    H165896   5.542   4.010  14.074 -2.0875  0.2514 -1.3474
14827TIP3    H265897   5.627   4.132  14.103 -0.9544 -1.1279  1.6143
14828TIP3   OH265898   4.154   1.381   6.742  0.0971  0.0926  0.1241
14828TIP3    H165899   4.157   1.462   6.691  0.8388 -0.1845 -0.2962
14828TIP3    H265900   4.122   1.407   6.828 -0.4871  0.6883 -0.2623
14829TIP3   OH265901   0.028   5.179   3.005 -0.2038  0.3833 -0.3762
14829TIP3    H165902   0.116   5.174   3.043 -0.4886 -1.3356  0.1495
14829TIP3    H265903  -0.007   5.263   3.035  0.5024  0.1709  1.1124
14830TIP3   OH265904   5.449   0.377   4.009  0.3670 -0.0653 -0.7154
14830TIP3    H165905   5.530   0.428   4.010  1.9797 -2.5079 -0.6541
14830TIP3    H265906   5.391   0.427   3.951  1.6443  2.0735 -0.2663
14831TIP3   OH265907   1.605   4.261  15.655 -0.0245  0.5617 -0.7536
14831TIP3    H165908   1.693   4.297  15.659 -0.6880  2.1072  0.8978
14831TIP3    H265909   1.549   4.336  15.638 -1.1813 -0.1161 -0.0642
14832TIP3   OH265910   4.937   0.503   6.081  0.1691 -0.5488 -0.0875
14832TIP3    H165911   5.003   0.467   6.139  1.2284  0.7266 -0.4610
14832TIP3    H265912   4.932   0.440   6.009  0.8345 -0.7579  0.0427
14833TIP3   OH265913   5.820   1.710  14.089  0.0444 -0.1477  0.2298
14833TIP3    H165914   5.743   1.766  14.088 -0.3200 -0.5737  1.5120
14833TIP3    H265915   5.806   1.648  14.018 -0.3968  0.2989 -0.0730
14834TIP3   OH265916   2.747   5.541  13.429  0.5730 -0.1115  0.5007
14834TIP3    H165917   2.707   5.625  13.450 -0.0775  0.1435 -1.5183
14834TIP3    H265918   2.678   5.477  13.441  0.3883 -0.0459 -0.1615
14835TIP3   OH265919   5.885   3.802   0.941  0.1685  0.1134  0.2657
14835TIP3    H165920   5.923   3.767   1.021  1.2508  0.3186 -0.1361
14835TIP3    H265921   5.930   3.754   0.870 -0.1577  0.5253 -0.2267
14836TIP3   OH265922   3.540   4.696   2.860 -0.6065  0.5900  0.3161
14836TIP3    H165923   3.491   4.763   2.907  0.2686  2.9651 -1.9915
14836TIP3    H265924   3.611   4.672   2.920 -0.8762  1.7800  1.1325
14837TIP3   OH265925   1.358   5.444   3.912 -0.1783  0.0889 -0.6928
14837TIP3    H165926   1.332   5.362   3.953  0.2026  0.0925 -0.4376
14837TIP3    H265927   1.409   5.419   3.836 -0.0513  0.0869 -0.6078
14838TIP3   OH265928   1.102   1.378   3.080  0.8021  0.2445 -0.3566
14838TIP3    H165929   1.100   1.323   3.002  0.2569  0.5339 -0.5518
14838TIP3    H265930   1.186   1.358   3.121  0.0787 -1.6762  0.2688
14839TIP3   OH265931   2.286   0.937   6.513 -0.0659 -0.3807 -0.2955
14839TIP3    H165932   2.368   0.893   6.535 -1.2074 -1.7581  1.4995
14839TIP3    H265933   2.294   1.024   6.552  0.5371 -0.4927 -0.1624
14840TIP3   OH265934   1.917   4.751  17.283 -0.0659  0.2331  0.7298
14840TIP3    H165935   1.902   4.838  17.248 -0.3703 -0.8541 -2.0330
14840TIP3    H265936   1.830   4.715  17.297  0.0204 -0.4706 -0.4460
14841TIP3   OH265937   6.026   4.367   0.584  0.4206  0.1461 -0.3355
14841TIP3    H165938   6.010   4.373   0.490  0.9238  0.0288 -0.4338
14841TIP3    H265939   6.031   4.457   0.614 -0.6678  0.1872 -0.2518
14842TIP3   OH265940   2.097   6.232  13.856  0.0425 -0.5113  0.5194
14842TIP3    H165941   2.139   6.309  13.894  0.1278  0.3352 -1.2110
14842TIP3    H265942   2.170   6.179  13.823 -0.0494 -1.1060  1.2254
14843TIP3   OH265943   4.217   2.814   0.681 -0.2947 -0.5598  0.3282
14843TIP3    H165944   4.166   2.738   0.656 -1.3205 -0.0692  0.8724
14843TIP3    H265945   4.249   2.794   0.769 -1.0307 -0.1367  0.6953
14844TIP3   OH265946   4.800   2.000  16.685 -0.7024  0.2578 -0.1491
14844TIP3    H165947   4.779   2.041  16.601  0.0543  1.3023  0.1492
14844TIP3    H265948   4.725   1.944  16.704 -0.5699 -0.5697 -1.8644
14845TIP3   OH265949   0.182   4.704  11.360 -0.3946  0.4357 -0.4843
14845TIP3    H165950   0.259   4.661  11.321 -0.7746 -0.7528  0.0431
14845TIP3    H265951   0.111   4.685  11.299 -0.2214  1.9123 -1.2059
14846TIP3   OH265952   2.462   3.140  11.439 -0.0907  0.2996 -0.2825
14846TIP3    H165953   2.435   3.048  11.435  2.0554 -0.3568 -1.5910
14846TIP3    H265954   2.521   3.144  11.515 -1.3880  1.0007  0.7229
14847TIP3   OH265955   5.590   2.548  17.112  0.5190 -0.2322 -0.1895
14847TIP3    H165956   5.610   2.576  17.201  0.9390  1.7767 -0.8797
14847TIP3    H265957   5.595   2.452  17.116 -0.8584 -0.3039  2.2430
14848TIP3   OH265958   3.821   4.357  13.656  0.4013 -0.0515  0.3719
14848TIP3    H165959   3.879   4.432  13.670  0.1036  0.4610 -0.9499
14848TIP3    H265960   3.825   4.308  13.738  0.3723  1.5588  1.3790
14849TIP3   OH265961   3.323   6.133   0.947  0.6755  0.3167 -0.1081
14849TIP3    H165962   3.323   6.147   1.042  0.5793  1.0903 -0.2144
14849TIP3    H265963   3.233   6.107   0.927  0.7329  0.0036  0.0275
14850TIP3   OH265964   5.544   1.513  17.375 -0.1898  0.0176  0.1353
14850TIP3    H165965   5.498   1.457  17.437  0.1459 -0.5737 -0.1475
14850TIP3    H265966   5.480   1.528  17.305  0.0991 -0.9608 -0.3524
14851TIP3   OH265967   1.990   6.049   5.177 -0.5125  0.4950  0.0037
14851TIP3    H165968   2.055   6.014   5.239 -1.4292 -2.9363 -0.7589
14851TIP3    H265969   2.037   6.054   5.094 -0.7682 -0.6128 -0.2324
14852TIP3   OH265970   5.448   4.007   3.987  0.7334  0.0247 -0.6799
14852TIP3    H165971   5.514   4.002   3.919  1.2288  1.4075 -0.3397
14852TIP3    H265972   5.460   4.093   4.026 -0.3692 -0.2375  0.3156
14853TIP3   OH265973   5.692   1.124  13.230  0.0815  0.4260 -0.3740
14853TIP3    H165974   5.719   1.072  13.307 -0.3750  0.4578 -0.1894
14853TIP3    H265975   5.772   1.132  13.178 -0.1745 -1.8654 -1.2277
14854TIP3   OH265976   2.704   3.902  15.870  0.4562  0.3642 -0.8328
14854TIP3    H165977   2.743   3.884  15.956 -2.9684  0.0128  0.8134
14854TIP3    H265978   2.730   3.827  15.817 -0.8611 -1.7329  1.2789
14855TIP3   OH265979   1.090   3.594   3.892  0.0434 -0.3538 -0.3162
14855TIP3    H165980   1.113   3.685   3.908 -1.1167 -0.3163  1.5077
14855TIP3    H265981   1.033   3.596   3.816  0.1340  0.4338 -0.3674
14856TIP3   OH265982   6.409   2.599   5.603  0.4092 -0.0032 -0.1170
14856TIP3    H165983   6.441   2.627   5.689 -1.3254 -0.2570  0.6504
14856TIP3    H265984   6.437   2.507   5.596  0.2199 -0.1018  0.3630
14857TIP3   OH265985   1.973   0.860  12.086 -0.2829 -0.0828  0.4246
14857TIP3    H165986   2.042   0.911  12.129 -1.8607  1.4075  1.3041
14857TIP3    H265987   2.007   0.842  11.999  2.2873 -1.6593  1.6361
14858TIP3   OH265988   0.733   5.665   2.607  0.2780  0.2948 -0.1016
14858TIP3    H165989   0.755   5.575   2.585  1.9993  0.3281  1.2983
14858TIP3    H265990   0.641   5.662   2.632  0.2032 -0.9847 -0.4640
14859TIP3   OH265991   0.604   1.652  12.289  0.6163  0.3301  0.3470
14859TIP3    H165992   0.609   1.731  12.235  2.2892 -0.2839 -0.5000
14859TIP3    H265993   0.547   1.593  12.239 -0.4788  0.9055  0.8867
14860TIP3   OH265994   4.290   5.820  15.303 -0.3707 -0.4938  0.4212
14860TIP3    H165995   4.345   5.882  15.351 -1.4598  0.5714  0.3281
14860TIP3    H265996   4.353   5.759  15.264  0.6434 -0.3350  1.7161
14861TIP3   OH265997   3.505   3.495   4.260 -0.3639  0.1506 -0.1881
14861TIP3    H165998   3.462   3.443   4.192  0.5252  0.4474 -1.0101
14861TIP3    H265999   3.591   3.454   4.271  0.2292  1.2211 -0.6282
14862TIP3   OH266000   4.164   1.111   1.206  0.2563 -0.5120  0.0114
14862TIP3    H166001   4.211   1.184   1.247 -2.2627  1.6205 -0.6060
14862TIP3    H266002   4.156   1.045   1.274  0.9803  0.5909  1.1979
14863TIP3   OH266003   1.027   5.509  13.081  0.0306 -0.0265  0.6505
14863TIP3    H166004   1.051   5.482  12.992  0.4638 -1.2244  1.1090
14863TIP3    H266005   1.036   5.429  13.133 -0.8576  0.5108  1.6490
14864TIP3   OH266006   5.978   2.137   5.494  1.0324 -0.0440 -0.4394
14864TIP3    H166007   5.963   2.229   5.516 -0.2121 -0.1663 -0.7052
14864TIP3    H266008   5.890   2.101   5.482  1.4910 -1.4073  0.1978
14865TIP3   OH266009   0.420   2.781  10.558  0.3592  0.3651 -0.4865
14865TIP3    H166010   0.413   2.876  10.547 -1.9936  0.1367 -1.5889
14865TIP3    H266011   0.487   2.770  10.625  0.3403  2.8215  0.0484
14866TIP3   OH266012   3.095   6.063   3.680  0.3831  0.4593 -0.4687
14866TIP3    H166013   3.081   6.153   3.650  0.7925  0.1448 -1.6819
14866TIP3    H266014   3.056   6.008   3.611  0.6844 -0.2922 -0.0545
14867TIP3   OH266015   1.011   5.324  16.874 -0.4520  0.3146  0.3871
14867TIP3    H166016   1.030   5.352  16.784 -0.9429 -0.6312 -0.0228
14867TIP3    H266017   1.035   5.232  16.876 -0.4544  0.3253  1.2331
14868TIP3   OH266018   4.537   1.038   5.944 -0.0004 -0.4039 -0.3463
14868TIP3    H166019   4.442   1.034   5.960  0.0490  0.7060  0.3210
14868TIP3    H266020   4.572   1.081   6.022  1.2123 -1.8681 -0.0434
14869TIP3   OH266021   2.853   5.195  14.801  0.3316  0.4140 -0.6270
14869TIP3    H166022   2.886   5.283  14.780  0.0866  0.4408 -0.9185
14869TIP3    H266023   2.767   5.191  14.759 -0.4119  0.6376  0.8124
14870TIP3   OH266024   1.053   0.324   5.275 -0.2746  0.0071  0.1720
14870TIP3    H166025   1.077   0.411   5.242  0.6656 -0.8022 -1.4226
14870TIP3    H266026   0.962   0.313   5.249 -0.8316  1.0223  1.5813
14871TIP3   OH266027   4.348   3.972   6.043  0.4205  1.2339  0.3415
14871TIP3    H166028   4.263   4.003   6.076  1.5966  1.8901  3.0377
14871TIP3    H266029   4.401   4.052   6.034  0.4713  0.9857 -2.5388
14872TIP3   OH266030   6.241   4.926   2.402 -0.4709 -0.1585 -0.8099
14872TIP3    H166031   6.151   4.912   2.432 -0.6404 -0.0724 -1.2711
14872TIP3    H266032   6.248   4.873   2.323 -0.4039  0.5587 -1.2920
14873TIP3   OH266033   6.438   6.486   5.400 -0.2661  0.0369 -0.0384
14873TIP3    H166034   6.517   6.485   5.346  0.0871  1.7525  0.3746
14873TIP3    H266035   6.412   6.394   5.407  2.2753 -0.7063  0.6970
14874TIP3   OH266036   6.181   1.177   1.321  0.1605 -0.8415 -0.2007
14874TIP3    H166037   6.147   1.249   1.374  1.2825 -0.0745 -0.4892
14874TIP3    H266038   6.266   1.157   1.359  0.4843 -1.0470 -1.0128
14875TIP3   OH266039   0.302   2.217  17.407  0.7419 -0.7963 -0.7352
14875TIP3    H166040   0.378   2.193  17.460  0.8848  1.7297  0.3269
14875TIP3    H266041   0.228   2.208  17.466  0.6054 -0.2396 -0.8196
14876TIP3   OH266042   5.792   4.513   1.144  0.0249  0.3574 -0.1540
14876TIP3    H166043   5.744   4.595   1.141 -1.9603 -0.6174  1.6652
14876TIP3    H266044   5.737   4.455   1.198  3.0998 -0.9757  1.8540
14877TIP3   OH266045   0.236   2.555  16.954  0.4334 -0.4815 -0.8298
14877TIP3    H166046   0.224   2.460  16.947  1.8122 -0.7436 -0.0170
14877TIP3    H266047   0.245   2.571  17.048  1.4116  0.2773 -1.0396
14878TIP3   OH266048   1.438   2.320   4.882  0.2518 -0.1891 -0.3145
14878TIP3    H166049   1.346   2.314   4.906 -0.0200  1.3878 -0.8477
14878TIP3    H266050   1.477   2.239   4.915 -0.8238  0.1726  2.0490
14879TIP3   OH266051   6.117   4.240   2.743  0.3128 -0.6958  0.2967
14879TIP3    H166052   6.079   4.328   2.746 -1.2779 -1.1828 -2.3382
14879TIP3    H266053   6.053   4.185   2.790 -0.7219 -1.0117 -1.4149
14880TIP3   OH266054   6.047   4.931  11.843  0.3543 -0.1104  0.0874
14880TIP3    H166055   5.981   4.997  11.864  0.0130 -0.1267 -0.8999
14880TIP3    H266056   6.122   4.981  11.811  0.0694 -0.1944 -0.7297
14881TIP3   OH266057   5.563   4.491  14.796 -0.1684 -0.0688 -0.1283
14881TIP3    H166058   5.482   4.538  14.773  0.1601  1.2990  1.3584
14881TIP3    H266059   5.534   4.418  14.851 -0.4614 -0.0794 -0.2962
14882TIP3   OH266060   2.896   3.174   1.277  0.7456  0.2219  0.2428
14882TIP3    H166061   2.937   3.102   1.229  0.1683  1.0563 -1.5923
14882TIP3    H266062   2.862   3.134   1.356  0.1935 -1.5923 -0.8573
14883TIP3   OH266063   1.829   4.521  14.288  0.6427 -0.7360 -0.3291
14883TIP3    H166064   1.751   4.563  14.325  0.7333 -0.5414 -0.3598
14883TIP3    H266065   1.901   4.551  14.342  0.5309 -1.9784  0.5376
14884TIP3   OH266066   5.788   1.258   4.917  0.0431 -0.0013  0.2579
14884TIP3    H166067   5.868   1.261   4.969 -0.0397  0.4949  0.3634
14884TIP3    H266068   5.807   1.317   4.843 -0.3166  0.3226  0.4218
14885TIP3   OH266069   5.078   4.819  11.718 -0.0774 -0.2000 -0.2592
14885TIP3    H166070   5.144   4.830  11.787  0.1689 -0.2005 -0.4910
14885TIP3    H266071   5.019   4.893  11.729  0.3486  0.1809 -0.4676
14886TIP3   OH266072   1.990   4.306  13.172  0.3692 -0.3130 -0.4813
14886TIP3    H166073   2.041   4.352  13.237  0.6001  0.6971 -1.3522
14886TIP3    H266074   2.025   4.217  13.172  0.3327 -0.3448  0.7749
14887TIP3   OH266075   4.159   6.666   1.167 -0.2309  0.3058  0.0213
14887TIP3    H166076   4.214   6.739   1.138 -1.3677  0.8062 -0.9673
14887TIP3    H266077   4.122   6.695   1.250 -0.5420  0.7962 -0.2830
14888TIP3   OH266078   2.205   3.337  16.137  0.1007  0.0831 -0.1946
14888TIP3    H166079   2.138   3.356  16.071 -0.1927 -0.8766 -0.1932
14888TIP3    H266080   2.248   3.257  16.105 -1.3671 -1.5794  1.7158
14889TIP3   OH266081   5.337   5.597   4.097  0.0116 -0.0101 -0.6436
14889TIP3    H166082   5.415   5.652   4.083 -0.8761  1.0328 -1.8004
14889TIP3    H266083   5.359   5.513   4.056  0.6215  0.1987 -0.7495
14890TIP3   OH266084   2.972   5.578   1.159 -0.2635 -0.1450  0.0377
14890TIP3    H166085   2.965   5.513   1.229 -0.4494 -0.2183 -0.0497
14890TIP3    H266086   3.018   5.533   1.088 -0.8524 -0.3421 -0.2196
14891TIP3   OH266087   1.740   2.894  13.605  0.4108 -0.2880 -0.3563
14891TIP3    H166088   1.783   2.979  13.612  0.6137 -0.3102 -1.2304
14891TIP3    H266089   1.685   2.901  13.527  0.0713 -0.8110 -0.1743
14892TIP3   OH266090   6.409   1.824  13.609 -0.1498 -0.1948  0.0030
14892TIP3    H166091   6.427   1.750  13.551 -1.5744 -1.0207  0.5712
14892TIP3    H266092   6.409   1.786  13.697 -0.8665  0.4798  0.3041
14893TIP3   OH266093   1.315   2.345   5.416 -0.0232 -0.1148  0.1690
14893TIP3    H166094   1.371   2.313   5.345 -1.6974  1.3389 -1.9836
14893TIP3    H266095   1.241   2.284   5.416  1.6015 -2.3220  3.3226
14894TIP3   OH266096   5.404   2.048  17.119  0.0264 -0.1565 -0.1982
14894TIP3    H166097   5.401   2.030  17.025 -1.8055 -2.1775  0.1707
14894TIP3    H266098   5.313   2.039  17.148  0.4234  1.1901  1.6633
14895TIP3   OH266099   4.618   4.958  13.052  0.4231  0.5758  0.3527
14895TIP3    H166100   4.540   4.973  13.105  0.5755 -0.3651  0.8668
14895TIP3    H266101   4.596   4.992  12.966 -1.1013 -0.9924  0.0797
14896TIP3   OH266102   1.120   5.067  15.814  0.2775  0.3226  0.0547
14896TIP3    H166103   1.092   4.980  15.842  0.3091  0.4474  0.4819
14896TIP3    H266104   1.068   5.128  15.867 -0.7974  0.5942 -1.2576
14897TIP3   OH266105   2.960   6.672  11.671  0.3562 -0.1944 -0.2724
14897TIP3    H166106   2.961   6.704  11.761 -2.9669 -1.1199  0.2476
14897TIP3    H266107   2.999   6.742  11.620  0.2732  1.3453  1.6462
14898TIP3   OH266108   0.233   3.762  13.632 -0.0201  0.6322 -0.1415
14898TIP3    H166109   0.204   3.673  13.651 -0.0920  0.4665 -0.9762
14898TIP3    H266110   0.156   3.817  13.650  0.0615  0.5479  0.4894
14899TIP3   OH266111   3.084   0.506   3.319 -0.1328 -0.0423  0.2934
14899TIP3    H166112   3.017   0.505   3.388 -1.0964 -1.1099 -0.6305
14899TIP3    H266113   3.043   0.554   3.247  0.9571  1.2726  0.5178
14900TIP3   OH266114   2.333   5.151   0.032 -0.3639  0.1235  0.4887
14900TIP3    H166115   2.307   5.116   0.117 -1.1306  0.2682  0.3220
14900TIP3    H266116   2.407   5.096   0.005 -0.6462 -0.4559  0.8698
14901TIP3   OH266117   5.675   6.070  11.832  0.5651 -0.5223 -0.3838
14901TIP3    H166118   5.756   6.021  11.849  1.0438  0.5371  0.5516
14901TIP3    H266119   5.606   6.017  11.872  1.1522 -0.1548  1.2051
14902TIP3   OH266120   3.721   5.187   4.770 -0.5727  0.6504 -0.2895
14902TIP3    H166121   3.770   5.176   4.688 -0.1443  2.1161 -0.2679
14902TIP3    H266122   3.663   5.262   4.754 -1.4302  0.1429  0.3312
14903TIP3   OH266123   1.186   4.874   4.738  0.1654  0.7058 -0.3270
14903TIP3    H166124   1.107   4.916   4.772  0.2844  2.1916 -1.8053
14903TIP3    H266125   1.244   4.946   4.716  1.4236 -0.3295 -0.5117
14904TIP3   OH266126   0.541   1.017   3.759  0.4347 -0.4494 -0.2945
14904TIP3    H166127   0.543   0.994   3.852  1.0506 -0.5236 -0.3233
14904TIP3    H266128   0.456   0.986   3.728  1.0446 -2.2630 -0.2314
14905TIP3   OH266129   3.010   3.818  15.772 -0.5293 -0.4593  0.2592
14905TIP3    H166130   3.005   3.777  15.685  3.9016  0.5911 -0.7506
14905TIP3    H266131   2.987   3.909  15.757 -0.7224 -0.4863  0.3950
14906TIP3   OH266132   5.917   6.504  13.993  0.5521  0.1641  0.2754
14906TIP3    H166133   5.870   6.438  14.044  0.3289 -0.6065 -0.8847
14906TIP3    H266134   5.939   6.460  13.911 -0.4444  1.8064 -0.9424
14907TIP3   OH266135   4.776   0.111  17.200  0.2549  0.0612 -0.1263
14907TIP3    H166136   4.828   0.104  17.280 -1.2313  0.3407  0.8849
14907TIP3    H266137   4.840   0.096  17.130  1.4682 -0.8227  1.1062
14908TIP3   OH266138   2.738   0.881  13.204 -0.5654  0.1060 -0.7224
14908TIP3    H166139   2.681   0.941  13.252 -1.3614  0.7656 -2.4013
14908TIP3    H266140   2.681   0.807  13.181 -0.0589 -0.4525 -0.2284
14909TIP3   OH266141   1.570   1.168   3.727  0.1544 -0.5189 -0.6851
14909TIP3    H166142   1.513   1.207   3.794 -1.2500 -1.7433 -1.1094
14909TIP3    H266143   1.608   1.243   3.681 -0.4607  0.3368  0.1545
14910TIP3   OH266144   1.076   5.584   6.077  0.1504 -0.1884  0.6696
14910TIP3    H166145   1.042   5.667   6.042  0.3355 -0.0145  0.8993
14910TIP3    H266146   1.092   5.530   6.000 -1.5646 -0.6344  0.5923
14911TIP3   OH266147   0.989   3.261   2.031 -0.0929 -0.6571 -0.0915
14911TIP3    H166148   1.050   3.299   2.095  0.4821 -1.3099 -0.2412
14911TIP3    H266149   1.045   3.210   1.973 -0.9962 -3.2236  1.1539
14912TIP3   OH266150   1.574   3.499   2.178  0.1924 -0.1614  0.4626
14912TIP3    H166151   1.579   3.476   2.086 -1.1745  1.3688 -0.0409
14912TIP3    H266152   1.639   3.443   2.221  0.3462 -1.3964 -1.3065
14913TIP3   OH266153   3.790   3.053   6.668 -0.2767 -0.3189  0.7239
14913TIP3    H166154   3.749   2.995   6.733 -2.5638  1.0138  0.6070
14913TIP3    H266155   3.810   3.133   6.717  0.1805 -0.1717  0.2953
14914TIP3   OH266156   0.882   5.583  12.601 -0.3120 -0.3747 -0.3591
14914TIP3    H166157   0.878   5.604  12.694  1.0490 -0.4609 -0.2575
14914TIP3    H266158   0.877   5.487  12.598  3.8260 -0.7759  0.0284
14915TIP3   OH266159   1.860   2.674  10.843 -0.2316  0.3697 -0.1074
14915TIP3    H166160   1.944   2.649  10.882 -0.7373  1.8838  2.0974
14915TIP3    H266161   1.883   2.713  10.759  1.0036 -1.8044 -0.8650
14916TIP3   OH266162   4.756   6.460   2.364  0.2681  0.7301 -0.2766
14916TIP3    H166163   4.784   6.385   2.312  0.1030  0.6694 -0.2782
14916TIP3    H266164   4.663   6.470   2.344 -0.6689 -1.2842  2.4101
14917TIP3   OH266165   2.079   4.805  11.444  0.1706  0.0419 -0.2885
14917TIP3    H166166   2.085   4.898  11.466  2.2231  0.1542 -1.0739
14917TIP3    H266167   2.050   4.763  11.525  0.3079  1.2490  0.4121
14918TIP3   OH266168   2.091   1.924  16.893  0.4896  0.1679  0.3444
14918TIP3    H166169   2.092   2.018  16.874 -0.1562  0.1479  0.1640
14918TIP3    H266170   2.001   1.907  16.922 -0.0699 -0.8059 -1.8135
14919TIP3   OH266171   2.691   4.885  16.786 -0.2753 -0.1512  0.3221
14919TIP3    H166172   2.643   4.957  16.826  0.1088  0.7368 -0.7916
14919TIP3    H266173   2.743   4.925  16.717  0.0572 -1.4755 -0.2292
14920TIP3   OH266174   2.639   1.657  13.052  0.4069  0.3342  0.3366
14920TIP3    H166175   2.722   1.661  13.099  0.3989  0.0796  0.3747
14920TIP3    H266176   2.594   1.581  13.090 -0.5002  1.3751  1.4002
14921TIP3   OH266177   2.180   2.155   1.076 -0.2870  0.3518  0.5392
14921TIP3    H166178   2.105   2.096   1.076 -0.8114  1.0028 -0.0108
14921TIP3    H266179   2.236   2.123   1.147  0.5158 -2.1166 -1.0795
14922TIP3   OH266180   6.667   6.387   2.590 -0.0539 -1.0410 -0.3674
14922TIP3    H166181   6.686   6.384   2.496 -0.7016  1.8093 -0.6654
14922TIP3    H266182   6.580   6.350   2.599 -0.4925 -0.2152 -1.0914
14923TIP3   OH266183   5.488   6.695   1.267  0.9120 -0.0691  0.1067
14923TIP3    H166184   5.451   6.760   1.326  2.8820  1.5201 -0.2964
14923TIP3    H266185   5.503   6.618   1.321 -0.8299  0.0025  0.7534
14924TIP3   OH266186   1.646   4.678  17.308  0.0242 -0.3134  0.8219
14924TIP3    H166187   1.697   4.597  17.311  1.0436  0.2376 -0.3963
14924TIP3    H266188   1.604   4.677  17.222  0.5884  0.7478  0.5173
14925TIP3   OH266189   1.406   1.385   2.650  0.2312 -0.5007  0.2326
14925TIP3    H166190   1.369   1.471   2.672 -1.9161 -1.7473  1.8747
14925TIP3    H266191   1.456   1.359   2.727  0.5494 -0.8953 -0.1012
14926TIP3   OH266192   5.380   3.899  12.137  0.2277 -0.5988 -0.2403
14926TIP3    H166193   5.453   3.838  12.143 -0.0771 -1.0036 -0.6356
14926TIP3    H266194   5.302   3.844  12.135 -0.1527 -0.1514  1.0336
14927TIP3   OH266195   4.771   1.330   2.841 -0.1256 -1.0079 -0.1777
14927TIP3    H166196   4.831   1.396   2.807 -0.3479  0.3518  1.9011
14927TIP3    H266197   4.683   1.366   2.825 -0.3048 -1.5815 -0.5112
14928TIP3   OH266198   5.148   4.773   0.906 -0.4469  0.2371  0.4524
14928TIP3    H166199   5.074   4.713   0.895 -2.7600  3.0650 -0.9724
14928TIP3    H266200   5.107   4.857   0.928  2.3158  2.0788 -0.8660
14929TIP3   OH266201   2.638   2.651  11.947 -0.2710 -0.5827 -0.4592
14929TIP3    H166202   2.716   2.614  11.988  0.0367 -0.8636 -1.2947
14929TIP3    H266203   2.570   2.642  12.014  0.3505 -0.5489  0.1861
14930TIP3   OH266204   6.221   3.121  12.692  0.0715 -0.7156  0.2196
14930TIP3    H166205   6.304   3.080  12.667 -0.5659 -1.6692 -0.4261
14930TIP3    H266206   6.155   3.077  12.638 -0.5639  1.8396 -1.2792
14931TIP3   OH266207   4.799   2.668  12.496 -0.0163  0.9037 -0.2697
14931TIP3    H166208   4.706   2.645  12.500  0.1377  0.2596 -0.2301
14931TIP3    H266209   4.834   2.643  12.582  0.6630 -1.0248 -1.0598
14932TIP3   OH266210   5.732   5.922   3.304 -0.3992  0.3047 -0.2254
14932TIP3    H166211   5.709   6.012   3.325 -2.2931  0.2168 -1.6703
14932TIP3    H266212   5.651   5.873   3.314  0.7281 -1.3898  1.0986
14933TIP3   OH266213   2.941   5.913  14.469  0.2893 -0.4111  0.0953
14933TIP3    H166214   2.948   5.962  14.551  0.9961  1.3728 -0.9736
14933TIP3    H266215   3.011   5.848  14.474  3.1532  2.2933 -0.6765
14934TIP3   OH266216   3.492   0.821  17.106 -0.2365  0.0630 -0.1469
14934TIP3    H166217   3.436   0.896  17.087  1.2493  0.9022 -1.5368
14934TIP3    H266218   3.580   0.851  17.082  0.4171 -2.0958 -0.6732
14935TIP3   OH266219   2.122   2.868   6.147  0.2194  0.7540 -0.4508
14935TIP3    H166220   2.058   2.934   6.120 -0.8086  0.2308  0.6078
14935TIP3    H266221   2.105   2.856   6.241  0.9400 -0.4015 -0.4543
14936TIP3   OH266222   6.197   4.901   4.471 -0.6428  0.1711  0.9003
14936TIP3    H166223   6.130   4.923   4.535 -1.3365 -0.0864  0.2673
14936TIP3    H266224   6.254   4.839   4.517 -1.8803 -1.0431  0.8712
14937TIP3   OH266225   0.728   3.760   4.958  0.1008  0.1347  0.1096
14937TIP3    H166226   0.783   3.837   4.946  0.1177  0.6804  2.9330
14937TIP3    H266227   0.783   3.687   4.931  0.7838  0.9397 -0.7748
14938TIP3   OH266228   1.006   5.132   4.825 -0.0322 -0.0282 -0.2357
14938TIP3    H166229   1.076   5.192   4.801 -0.1225 -0.1544 -0.8128
14938TIP3    H266230   0.948   5.130   4.749  0.3244 -1.3527 -0.4936
14939TIP3   OH266231   6.226   0.551  16.656  0.6243  0.3394 -0.4908
14939TIP3    H166232   6.187   0.596  16.731  1.1530 -1.2998  0.8181
14939TIP3    H266233   6.217   0.458  16.677  2.5069 -0.1193 -1.5724
14940TIP3   OH266234   3.203   4.659   0.816 -0.5147  0.3407 -0.3237
14940TIP3    H166235   3.254   4.620   0.887  0.0565  2.1087  0.3081
14940TIP3    H266236   3.191   4.588   0.753  2.3456 -0.2946 -0.2792
14941TIP3   OH266237   2.104   4.496  12.189 -0.2114 -0.1048  0.2717
14941TIP3    H166238   2.052   4.492  12.269 -1.5813  0.1696 -0.5760
14941TIP3    H266239   2.193   4.474  12.217 -0.9905 -1.8337  1.5582
14942TIP3   OH266240   1.180   0.930   6.758 -0.4409  0.2299  0.2073
14942TIP3    H166241   1.239   0.961   6.690  1.1490 -2.3050  0.3066
14942TIP3    H266242   1.238   0.895   6.826 -2.0431 -0.9863  1.0148
14943TIP3   OH266243   4.065   4.454   2.649  0.2812 -0.1952 -0.2822
14943TIP3    H166244   4.002   4.433   2.580  1.7829 -1.3358 -1.3483
14943TIP3    H266245   4.041   4.396   2.721  0.1376 -0.6667 -0.7027
14944TIP3   OH266246   6.481   1.078   1.798  0.2196 -0.4558  0.7832
14944TIP3    H166247   6.395   1.088   1.757  0.8789  2.1563 -0.2098
14944TIP3    H266248   6.467   1.101   1.890 -0.4221 -1.7749  1.0382
14945TIP3   OH266249   3.038   4.976  16.761 -0.0671 -0.0941 -0.1248
14945TIP3    H166250   3.067   5.032  16.833  0.9997 -0.9761  0.1711
14945TIP3    H266251   3.035   4.888  16.799 -1.2073 -0.3237 -0.7063
14946TIP3   OH266252   0.774   3.574   5.490  0.1361  0.4414 -0.3527
14946TIP3    H166253   0.760   3.643   5.425 -0.2929 -0.4349 -1.2215
14946TIP3    H266254   0.866   3.580   5.513  0.5099  0.1872 -1.7318
14947TIP3   OH266255   2.090   1.812   1.986  0.3023  0.4046 -0.1243
14947TIP3    H166256   2.165   1.810   2.046  0.1011  2.9057  0.3112
14947TIP3    H266257   2.125   1.780   1.903  0.9824 -1.5974  0.8482
14948TIP3   OH266258   5.186   5.688  12.263 -0.2016 -0.6549  0.0491
14948TIP3    H166259   5.250   5.759  12.273  1.0379 -1.8075  0.5354
14948TIP3    H266260   5.157   5.695  12.172 -1.6208  1.6957  0.5945
14949TIP3   OH266261   2.316   4.280  15.150 -0.0787  0.4391 -0.0209
14949TIP3    H166262   2.224   4.271  15.176 -0.1115  0.9831  0.0730
14949TIP3    H266263   2.319   4.363  15.102 -0.0973 -0.7535 -2.1889
14950TIP3   OH266264   2.403   1.119  17.029 -0.4618 -0.1472 -0.3743
14950TIP3    H166265   2.350   1.150  16.955 -0.4469  0.0003 -0.3235
14950TIP3    H266266   2.482   1.084  16.989 -0.7105 -0.6093 -0.4730
14951TIP3   OH266267   6.631   0.843  13.482  0.1392 -0.5055 -0.9215
14951TIP3    H166268   6.674   0.892  13.412  1.1912 -1.3985 -0.9312
14951TIP3    H266269   6.702   0.816  13.540 -0.9229  2.4602  2.0534
14952TIP3   OH266270   5.783   5.577  15.807  0.1569  0.3143 -0.0898
14952TIP3    H166271   5.823   5.657  15.774  0.5783  0.4174  0.6449
14952TIP3    H266272   5.689   5.590  15.795  0.2645  0.5919 -0.6770
14953TIP3   OH266273   4.762   0.179  15.514 -0.1329  0.0510  0.4731
14953TIP3    H166274   4.806   0.108  15.561 -0.8811 -0.9657 -0.2874
14953TIP3    H266275   4.692   0.207  15.573 -0.0695 -0.1015  0.6211
14954TIP3   OH266276   6.268   4.910  14.494  0.1666 -0.0838  0.7226
14954TIP3    H166277   6.218   4.908  14.413 -0.5597  1.4435  1.1078
14954TIP3    H266278   6.202   4.922  14.563  0.9374  0.5707  1.3651
14955TIP3   OH266279   3.949   5.232   3.054  0.4607 -0.0594 -0.4192
14955TIP3    H166280   3.930   5.239   3.148  0.0129  2.9877 -0.6355
14955TIP3    H266281   3.904   5.151   3.027  1.1118 -1.3602  2.0512
14956TIP3   OH266282   5.127   1.544  16.976  0.1995  0.4276 -0.7513
14956TIP3    H166283   5.053   1.600  16.954  0.0404 -0.2225 -1.9675
14956TIP3    H266284   5.178   1.595  17.040 -0.2681  1.6911 -1.3470
14957TIP3   OH266285   2.316   4.313   0.083 -0.2536 -0.3663  0.4219
14957TIP3    H166286   2.227   4.332   0.111  0.3628  2.2058  0.8680
14957TIP3    H266287   2.372   4.351   0.151  1.2273  1.8156 -1.8353
14958TIP3   OH266288   3.510   3.567  17.079  0.2199 -0.0166 -0.8052
14958TIP3    H166289   3.494   3.660  17.070  1.5564  0.5051  1.3190
14958TIP3    H266290   3.423   3.526  17.078 -0.7075  1.6741  1.8211
14959TIP3   OH266291   6.236   0.844   3.152 -0.0841  0.3197  0.2215
14959TIP3    H166292   6.174   0.829   3.080  0.8315  0.8613 -0.7118
14959TIP3    H266293   6.312   0.791   3.130  0.3102  0.6930  0.6561
14960TIP3   OH266294   4.161   1.537   2.895  0.4750 -0.8752  0.4021
14960TIP3    H166295   4.103   1.482   2.948 -0.9335 -0.1540 -0.3357
14960TIP3    H266296   4.213   1.474   2.844  0.1754 -1.5417  0.9035
14961TIP3   OH266297   0.370   4.042  15.979  0.3996  0.1583 -0.4404
14961TIP3    H166298   0.330   4.129  15.988 -0.7571 -0.4358  0.5492
14961TIP3    H266299   0.459   4.052  16.014  0.2679  0.9462 -0.3204
14962TIP3   OH266300   0.786   6.083  14.336 -0.2636  0.4110  0.2803
14962TIP3    H166301   0.845   6.008  14.332 -0.5520  0.1899  0.1377
14962TIP3    H266302   0.769   6.105  14.244  0.0307  0.8224  0.3189
14963TIP3   OH266303   3.311   1.756  11.288  0.3341 -0.0861 -0.0598
14963TIP3    H166304   3.332   1.789  11.200  1.4235  0.4158  0.3731
14963TIP3    H266305   3.217   1.738  11.285  0.5153 -0.9586 -1.6183
14964TIP3   OH266306   4.129   3.979   2.376 -0.2019  0.3648 -0.1228
14964TIP3    H166307   4.082   3.899   2.355  0.7372 -0.1207 -0.4547
14964TIP3    H266308   4.072   4.050   2.348 -1.4811 -0.1480  1.0674
14965TIP3   OH266309   4.753   3.687   0.860 -0.8431 -0.3719 -0.5800
14965TIP3    H166310   4.659   3.688   0.879 -0.6863 -0.9277  0.2464
14965TIP3    H266311   4.759   3.641   0.776 -1.2148 -1.5024 -0.0096
14966TIP3   OH266312   2.347   1.331   2.520  0.1785  0.3120  0.2772
14966TIP3    H166313   2.275   1.377   2.563 -0.0476  0.5840 -0.3699
14966TIP3    H266314   2.320   1.240   2.517  0.3242  0.2464  0.9625
14967TIP3   OH266315   2.951   1.160  12.731  0.0154  0.6565 -0.2471
14967TIP3    H166316   2.889   1.208  12.786  0.3137  0.6347  0.1104
14967TIP3    H266317   3.029   1.150  12.786 -0.1017 -0.3720 -0.2502
14968TIP3   OH266318   4.766   2.227  14.968 -0.1289 -0.3532 -0.3376
14968TIP3    H166319   4.746   2.302  14.913  1.4249 -0.1512 -0.6824
14968TIP3    H266320   4.778   2.263  15.056 -0.2089 -0.3243 -0.3381
14969TIP3   OH266321   5.642   4.916   3.015 -0.3476  0.2325 -0.0040
14969TIP3    H166322   5.551   4.891   3.030 -0.3619 -0.4492 -1.1662
14969TIP3    H266323   5.682   4.910   3.102 -1.7336  2.0662  0.8415
14970TIP3   OH266324   6.553   3.846   2.208 -0.0069  0.3749 -0.0904
14970TIP3    H166325   6.509   3.765   2.182 -0.6661  0.8127 -0.3974
14970TIP3    H266326   6.646   3.829   2.196 -0.1656 -0.2137 -0.5101
14971TIP3   OH266327   1.421   5.205  13.871 -0.2609  0.7484  0.0330
14971TIP3    H166328   1.334   5.216  13.909 -1.6591  1.3295 -3.0233
14971TIP3    H266329   1.425   5.114  13.844  0.3543  0.5673  0.6973
14972TIP3   OH266330   6.034   3.171   4.357 -0.5806 -0.1201  0.1387
14972TIP3    H166331   6.069   3.249   4.401  0.0204  0.7213 -1.7211
14972TIP3    H266332   6.109   3.111   4.353 -0.5966 -0.1394  0.1301
14973TIP3   OH266333   1.640   2.137   4.103  0.9341 -0.0414 -0.3272
14973TIP3    H166334   1.711   2.163   4.161 -0.6832 -0.1549  1.8320
14973TIP3    H266335   1.634   2.209   4.040  2.5739  0.2261 -0.2150
14974TIP3   OH266336   2.782   0.227  17.049  0.2281  0.1514 -0.2582
14974TIP3    H166337   2.691   0.247  17.075  1.0721  1.4685  2.0051
14974TIP3    H266338   2.833   0.300  17.084  1.9941  0.4696 -3.1948
14975TIP3   OH266339   4.142   2.030   0.342 -0.1467  0.2514  0.3256
14975TIP3    H166340   4.169   2.091   0.411 -0.7701  0.0100  0.7923
14975TIP3    H266341   4.193   1.951   0.358  0.5746  0.5892 -0.2085
14976TIP3   OH266342   0.315   2.205   2.832  0.3307 -0.2578  0.3684
14976TIP3    H166343   0.376   2.172   2.899  0.1301  1.4159  1.4478
14976TIP3    H266344   0.368   2.267   2.781 -0.1333  0.2957  0.5478
14977TIP3   OH266345   0.025   4.879   3.489 -0.2488 -0.3007 -0.1064
14977TIP3    H166346  -0.013   4.938   3.424  1.2121 -0.4325 -1.1262
14977TIP3    H266347   0.120   4.887   3.476  0.1212 -0.1328  2.1853
14978TIP3   OH266348   0.435   2.146   1.360  0.0027  0.3066 -0.0552
14978TIP3    H166349   0.450   2.088   1.435 -0.4337  2.2949  1.6647
14978TIP3    H266350   0.503   2.213   1.367 -0.1603  0.6433 -1.3644
14979TIP3   OH266351   2.374   3.739  16.267 -0.6146 -0.2621  0.6985
14979TIP3    H166352   2.397   3.770  16.354  0.8917 -0.8291  0.5422
14979TIP3    H266353   2.289   3.696  16.278 -0.8706  0.4766  1.6876
14980TIP3   OH266354   4.935   4.665   6.169 -0.0108 -0.0550  0.1292
14980TIP3    H166355   5.016   4.716   6.176 -0.7772  1.0789  1.1932
14980TIP3    H266356   4.889   4.704   6.095 -0.0352 -0.0307  0.1573
14981TIP3   OH266357   3.309   0.133   0.602 -0.0223 -0.0231 -0.1089
14981TIP3    H166358   3.248   0.200   0.632 -0.8729 -0.6639 -0.3504
14981TIP3    H266359   3.341   0.165   0.518 -0.3379  0.1294 -0.1714
14982TIP3   OH266360   6.639   0.444   3.947 -0.0665  0.5774  0.2420
14982TIP3    H166361   6.578   0.465   3.876  0.2431 -0.0770 -0.2282
14982TIP3    H266362   6.588   0.388   4.006  0.1359 -0.1956 -0.2888
14983TIP3   OH266363   0.160   5.964   1.238 -0.8905 -0.1298  0.1083
14983TIP3    H166364   0.163   5.928   1.327 -1.8641 -3.1146 -0.9244
14983TIP3    H266365   0.067   5.964   1.216 -0.5515 -0.9659 -1.4352
14984TIP3   OH266366   0.057   4.613   0.139 -0.1170 -0.7903  0.4633
14984TIP3    H166367   0.048   4.566   0.222  0.2210 -1.5811  0.0605
14984TIP3    H266368   0.011   4.559   0.075 -1.2307  0.3016  0.2897
14985TIP3   OH266369   3.533   2.007   1.253 -0.0165 -0.1158 -0.3564
14985TIP3    H166370   3.551   2.058   1.175  1.9222 -2.8970 -1.8787
14985TIP3    H266371   3.454   1.958   1.232  0.1291 -0.3676 -0.3223
14986TIP3   OH266372   0.081   5.834   5.054  0.6688  0.5065 -0.2627
14986TIP3    H166373   0.053   5.891   5.127 -0.0189 -0.1489 -0.0022
14986TIP3    H266374   0.013   5.767   5.049  0.2633  1.0133 -2.0643
14987TIP3   OH266375   3.989   4.155   2.213  0.0660 -0.3852 -0.6060
14987TIP3    H166376   3.894   4.144   2.207 -0.2172  0.7594  1.0525
14987TIP3    H266377   4.002   4.250   2.214  1.0128 -0.4876  1.3860
14988TIP3   OH266378   3.582   1.295   0.106  0.3156 -0.3093 -0.1898
14988TIP3    H166379   3.630   1.213   0.115  0.2806 -0.3205 -0.1076
14988TIP3    H266380   3.490   1.271   0.116  0.3176 -0.2336  0.0089
14989TIP3   OH266381   3.501   1.550   0.446  0.5128  0.3332 -0.1042
14989TIP3    H166382   3.545   1.631   0.472 -0.3606  0.6329  0.5026
14989TIP3    H266383   3.519   1.489   0.517  1.9192 -0.3111 -0.9828
14990TIP3   OH266384   3.695   3.428   0.321  0.1144 -0.3357 -0.8956
14990TIP3    H166385   3.673   3.357   0.382  1.7031 -0.2149 -0.1290
14990TIP3    H266386   3.724   3.383   0.241  1.3531 -0.5745 -0.3255
14991TIP3   OH266387   6.414   1.464  14.236  0.6962  0.2478  0.5559
14991TIP3    H166388   6.449   1.540  14.189 -0.0750 -0.3319 -1.0255
14991TIP3    H266389   6.321   1.464  14.217  0.2368  0.2993  2.6046
14992TIP3   OH266390   6.508   4.407  11.844 -0.5620 -0.5067 -0.0752
14992TIP3    H166391   6.428   4.428  11.797 -0.5226 -0.2004 -0.0053
14992TIP3    H266392   6.538   4.325  11.805  0.6561  0.8068 -2.0831
14993TIP3   OH266393   0.736   3.903   0.202 -0.0990  0.0466 -0.4118
14993TIP3    H166394   0.708   3.843   0.271 -0.8842 -1.5890 -2.0660
14993TIP3    H266395   0.761   3.983   0.248  0.1291 -1.2272  1.8137
14994TIP3   OH266396   5.007   4.432   2.695  0.1588  0.4747 -0.5711
14994TIP3    H166397   4.914   4.414   2.686  0.7259 -2.8968 -1.1334
14994TIP3    H266398   5.042   4.426   2.606  1.0117  1.0284 -0.2913
14995TIP3   OH266399   1.338   4.645  14.310 -0.2491  0.1733  0.0243
14995TIP3    H166400   1.286   4.638  14.390  1.0012 -0.7357  0.7869
14995TIP3    H266401   1.357   4.554  14.286 -3.4768  0.1156 -3.3276
14996TIP3   OH266402   5.974   4.483  16.600 -0.3530 -0.2426  0.2294
14996TIP3    H166403   5.932   4.446  16.522 -1.3742  0.3574  0.4788
14996TIP3    H266404   5.973   4.577  16.586  3.3660 -0.2313 -0.9822
14997TIP3   OH266405   2.473   3.125   4.387  0.0440  0.7373 -0.3962
14997TIP3    H166406   2.456   3.213   4.422  0.7319  1.4896 -1.8422
14997TIP3    H266407   2.496   3.141   4.296  0.8137 -0.9150 -0.5078
14998TIP3   OH266408   2.954   6.347   5.777 -0.5850 -0.6870 -0.3221
14998TIP3    H166409   2.961   6.382   5.866  0.0070 -0.2790 -0.5270
14998TIP3    H266410   2.968   6.423   5.720  0.8272 -1.2577 -0.7733
14999TIP3   OH266411   1.124   2.267  12.108 -0.2343  0.2219  0.2174
14999TIP3    H166412   1.056   2.278  12.042 -1.2495  1.3270  1.3940
14999TIP3    H266413   1.168   2.185  12.085  0.0711  1.0374 -2.3422
15000TIP3   OH266414   3.457   4.839   2.606 -0.5719  0.5242  0.2339
15000TIP3    H166415   3.501   4.907   2.657  1.3259  0.1227 -0.7701
15000TIP3    H266416   3.473   4.758   2.655 -0.2359  0.3876 -0.0961
15001TIP3   OH266417   0.975   6.371   6.085 -0.5016  0.5083  0.0769
15001TIP3    H166418   0.949   6.399   6.173 -1.5013 -0.1886  0.0235
15001TIP3    H266419   1.063   6.335   6.096  0.6730  3.1637  0.2253
15002TIP3   OH266420   1.857   6.291  13.251  0.3185 -0.2520 -0.2071
15002TIP3    H166421   1.932   6.297  13.310  1.3172 -1.2923 -1.3180
15002TIP3    H266422   1.888   6.329  13.169 -1.4393  2.3221  0.2146
15003TIP3   OH266423   0.051   6.360  14.105 -1.0118 -0.6983 -0.9439
15003TIP3    H166424   0.064   6.281  14.054  0.9290 -0.7307 -0.4926
15003TIP3    H266425  -0.022   6.405  14.063 -0.4762 -1.4755 -2.7879
15004TIP3   OH266426   0.232   4.080  10.801 -0.4816 -0.0121  0.3716
15004TIP3    H166427   0.317   4.082  10.756 -1.7540  0.5180 -2.1986
15004TIP3    H266428   0.208   4.172  10.810 -1.3972 -0.1696 -0.2657
15005TIP3   OH266429   4.801   6.085  16.143  0.0593 -0.5245  0.1118
15005TIP3    H166430   4.832   6.175  16.148  0.3048 -0.6701  1.5156
15005TIP3    H266431   4.870   6.039  16.095 -1.2158  0.4654 -2.9381
15006TIP3   OH266432   5.726   0.273  14.956 -0.6144  0.7789  0.4805
15006TIP3    H166433   5.636   0.283  14.986 -1.4820  4.0179 -2.5335
15006TIP3    H266434   5.772   0.349  14.993  0.2542  0.5126 -0.0215
15007TIP3   OH266435   5.650   0.288  14.699 -0.3265  0.0562 -0.0458
15007TIP3    H166436   5.656   0.259  14.790 -0.9283  0.6631  0.1937
15007TIP3    H266437   5.625   0.380  14.704 -0.6810  0.0142 -0.8285
15008TIP3   OH266438   4.846   1.109   4.293  0.0721 -0.2239  0.7234
15008TIP3    H166439   4.752   1.126   4.293 -0.2041 -1.5555  1.2069
15008TIP3    H266440   4.887   1.193   4.312 -0.9463  0.6285 -0.7154
15009TIP3   OH266441   4.875   5.475   5.321 -0.3538  0.1721 -0.8627
15009TIP3    H166442   4.810   5.408   5.301 -0.4906 -0.0039  0.1188
15009TIP3    H266443   4.956   5.443   5.282 -0.4283 -0.5644 -0.4265
15010TIP3   OH266444   5.732   3.906  15.269  0.6258 -0.4323  0.2607
15010TIP3    H166445   5.669   3.970  15.236  1.8775 -0.1495 -1.7781
15010TIP3    H266446   5.725   3.833  15.208  1.8802 -0.6211  0.3247
15011TIP3   OH266447   4.919   3.000   4.380 -0.6441  0.6334 -0.3168
15011TIP3    H166448   4.845   3.052   4.349  0.2274  1.7611 -0.5639
15011TIP3    H266449   4.973   3.063   4.429  0.7021  0.0921 -1.0719
15012TIP3   OH266450   1.833   0.861  15.837  0.0109  0.7317 -0.2770
15012TIP3    H166451   1.917   0.847  15.880  0.0733 -0.0908 -0.6504
15012TIP3    H266452   1.804   0.946  15.869 -0.0881  0.0216  1.6474
15013TIP3   OH266453   6.569   0.492   2.075 -0.2275 -0.1612 -0.4617
15013TIP3    H166454   6.619   0.533   2.146 -2.1643 -0.4045  1.1135
15013TIP3    H266455   6.519   0.564   2.036 -0.5149 -0.3388 -0.4200
15014TIP3   OH266456   3.555   5.927  12.690  0.2924  0.0136 -0.0353
15014TIP3    H166457   3.506   5.848  12.710 -1.3593  0.9449 -0.2623
15014TIP3    H266458   3.544   5.939  12.596 -1.0800  1.5018  0.2705
15015TIP3   OH266459   6.262   5.158  17.110  0.3885 -0.2695  0.4486
15015TIP3    H166460   6.206   5.096  17.158  1.0490 -1.2640 -0.0247
15015TIP3    H266461   6.344   5.159  17.160  0.9268 -0.9789 -0.3924
15016TIP3   OH266462   0.708   6.156  14.060 -0.6141 -0.1029 -0.1935
15016TIP3    H166463   0.771   6.084  14.057 -1.2108 -1.2910  5.1623
15016TIP3    H266464   0.763   6.234  14.068  0.1252 -0.5996 -0.2423
15017TIP3   OH266465   4.134   5.312  12.731  0.2588  0.0733 -0.0488
15017TIP3    H166466   4.154   5.252  12.802  2.8421  0.8451  0.0004
15017TIP3    H266467   4.104   5.392  12.774  0.6713  0.1383  0.1241
15018TIP3   OH266468   1.320   1.679  12.153  0.6690  0.1455  0.1709
15018TIP3    H166469   1.404   1.644  12.126  0.9581  0.7410  0.2877
15018TIP3    H266470   1.278   1.707  12.072  0.8473  0.4254  0.1748
15019TIP3   OH266471   4.610   3.236   2.731 -0.6833  0.1084 -0.2438
15019TIP3    H166472   4.671   3.256   2.661 -0.0084 -0.6800  0.0994
15019TIP3    H266473   4.651   3.163   2.779 -1.1257  0.6221  0.9592
15020TIP3   OH266474   0.855   5.944  12.952  0.1730 -0.1634 -0.1303
15020TIP3    H166475   0.862   5.856  12.916  3.1097  0.0864 -0.4308
15020TIP3    H266476   0.899   5.938  13.038 -0.3682  0.8108  0.2292
15021TIP3   OH266477   4.836   6.385   6.148  0.7808  0.0412  0.6657
15021TIP3    H166478   4.895   6.317   6.115 -1.2879 -0.5266 -2.2746
15021TIP3    H266479   4.798   6.347   6.227  0.5914 -1.7550 -0.2349
15022TIP3   OH266480   5.238   0.149  16.519 -0.2142  0.4337  0.2702
15022TIP3    H166481   5.308   0.154  16.455  0.6384  1.0349  1.2175
15022TIP3    H266482   5.182   0.077  16.489  1.2390 -0.5816 -0.0755
15023TIP3   OH266483   3.813   5.436   0.350  0.1536  0.2691  0.0313
15023TIP3    H166484   3.814   5.531   0.364  0.7745  0.1356  1.0169
15023TIP3    H266485   3.853   5.424   0.264  1.0616  0.8511  0.3546
15024TIP3   OH266486   2.067   4.778   5.921 -0.2636  0.1009  0.1600
15024TIP3    H166487   2.041   4.693   5.885 -0.2292  0.5696 -1.0362
15024TIP3    H266488   2.019   4.786   6.003  0.2123 -1.3429  0.5947
15025TIP3   OH266489   2.957   6.276   2.470 -0.4378 -0.1508 -0.5362
15025TIP3    H166490   2.949   6.254   2.563 -1.4904  0.4490 -0.4626
15025TIP3    H266491   2.953   6.191   2.425  1.8127 -0.6141  0.0119
15026TIP3   OH266492   1.148   3.009   1.026 -0.4049 -0.6280 -0.3543
15026TIP3    H166493   1.101   3.067   0.967 -0.5896  0.4128  0.7953
15026TIP3    H266494   1.240   3.034   1.016 -0.5542  0.3982  0.6849
15027TIP3   OH266495   5.130   5.997  14.963 -0.2194 -0.0718  0.7977
15027TIP3    H166496   5.184   6.069  14.930  1.0564 -0.5362  1.7924
15027TIP3    H266497   5.046   6.007  14.918  0.9298  0.1951 -1.4353
15028TIP3   OH266498   4.488   5.012   1.638  0.1572 -0.1611  0.0191
15028TIP3    H166499   4.508   5.037   1.728 -1.9540  1.4047  0.1345
15028TIP3    H266500   4.529   5.081   1.585 -0.5942  0.2497 -0.0440
15029TIP3   OH266501   3.636   5.667  13.136 -0.2584 -0.6151  0.0516
15029TIP3    H166502   3.705   5.662  13.070 -0.8284 -0.3162 -0.5827
15029TIP3    H266503   3.606   5.758  13.133  1.4824  0.1310  2.5953
15030TIP3   OH266504   3.643   1.224   5.310  0.0454  0.0266 -0.6639
15030TIP3    H166505   3.563   1.171   5.319  0.7381 -0.6719  3.6617
15030TIP3    H266506   3.708   1.177   5.363  1.6332  3.4937  0.7361
15031TIP3   OH266507   1.169   1.462   1.699 -0.1752  0.6509  0.4190
15031TIP3    H166508   1.083   1.440   1.663  1.1809  0.0451 -2.7833
15031TIP3    H266509   1.195   1.383   1.746 -0.8996  0.4111  0.4382
15032TIP3   OH266510   6.431   2.893  14.481 -0.3001 -0.4425  0.6978
15032TIP3    H166511   6.492   2.823  14.455 -1.0347 -0.6642 -0.4850
15032TIP3    H266512   6.456   2.967  14.426 -0.9161 -0.4503  0.4053
15033TIP3   OH266513   5.828   6.377  16.006  0.4998 -0.3907  0.2782
15033TIP3    H166514   5.863   6.354  15.921  1.2635 -1.5541  0.8760
15033TIP3    H266515   5.884   6.447  16.038 -0.6012  0.9974 -0.7037
15034TIP3   OH266516   0.886   3.007  12.166 -0.0508  0.0668  0.5128
15034TIP3    H166517   0.956   2.992  12.103  0.1912 -0.2149  0.8462
15034TIP3    H266518   0.920   2.972  12.249  0.3646  2.0280  1.2386
15035TIP3   OH266519   6.226   4.890  10.710  0.1407  0.4713 -0.2226
15035TIP3    H166520   6.133   4.909  10.720 -0.0614  1.0810 -2.5523
15035TIP3    H266521   6.231   4.796  10.693 -0.0006  0.3846  0.2035
15036TIP3   OH266522   1.437   0.590   4.555 -0.8441  0.7157 -0.1441
15036TIP3    H166523   1.369   0.531   4.522 -1.9523  1.6694  0.3755
15036TIP3    H266524   1.475   0.543   4.629 -1.5619  0.5455  0.1264
15037TIP3   OH266525   3.107   1.465  16.681 -0.3253 -0.0271 -0.1548
15037TIP3    H166526   3.106   1.484  16.587  1.2276 -0.9797 -0.3946
15037TIP3    H266527   3.199   1.473  16.706 -0.4350 -1.6219  0.8786
15038TIP3   OH266528   6.196   1.263  13.837 -0.9597  0.0993  0.1008
15038TIP3    H166529   6.132   1.254  13.766  0.3409 -0.4966 -1.0524
15038TIP3    H266530   6.186   1.183  13.889 -0.4646 -0.5179 -0.7100
15039TIP3   OH266531   1.139   1.843  13.428 -0.2997  0.0073  0.2372
15039TIP3    H166532   1.182   1.928  13.439 -2.5678  0.9070  3.3668
15039TIP3    H266533   1.211   1.780  13.431  1.2436  1.6733  0.1703
15040TIP3   OH266534   0.528   1.367  15.070 -0.0459  0.5840 -0.1517
15040TIP3    H166535   0.588   1.367  15.145  0.0672  1.1511 -0.2373
15040TIP3    H266536   0.545   1.451  15.027  0.3623 -0.0144 -1.1871
15041TIP3   OH266537   1.714   4.328  13.133  0.2804 -0.2079  0.4452
15041TIP3    H166538   1.699   4.421  13.153  1.1713  0.4533 -1.6821
15041TIP3    H266539   1.801   4.309  13.168  0.9047  0.3284 -0.7523
15042TIP3   OH266540   4.200   5.908  16.602 -0.3189  0.5652  0.2596
15042TIP3    H166541   4.172   5.910  16.511 -1.1870 -0.0203  0.5005
15042TIP3    H266542   4.285   5.865  16.600 -0.8104 -0.4104 -0.1703
15043TIP3   OH266543   2.872   2.995  11.394  0.2641  0.2916 -0.1181
15043TIP3    H166544   2.920   2.913  11.389 -0.5988 -0.3021  0.9751
15043TIP3    H266545   2.862   3.023  11.303 -0.7617 -1.6075 -0.6403
15044TIP3   OH266546   4.787   4.193  17.277  0.4680 -0.2240  0.2731
15044TIP3    H166547   4.871   4.193  17.324  1.1177 -3.0526 -0.6711
15044TIP3    H266548   4.721   4.206  17.345  1.5751 -0.3137  1.4008
15045TIP3   OH266549   1.672   6.272  13.863 -0.2923 -0.5099  0.3243
15045TIP3    H166550   1.672   6.205  13.796  0.0503  2.0809 -2.4742
15045TIP3    H266551   1.580   6.282  13.887 -0.6635 -0.2796 -1.1055
15046TIP3   OH266552   3.314   0.491  14.165  0.2488  0.5224  0.5364
15046TIP3    H166553   3.257   0.490  14.242  0.2231 -2.0856  0.5900
15046TIP3    H266554   3.355   0.404  14.165  0.8309  0.7325 -1.9770
15047TIP3   OH266555   2.065   1.950  14.857  0.3463  0.4127  0.0334
15047TIP3    H166556   2.063   1.854  14.853  1.8003  0.4074 -1.1814
15047TIP3    H266557   2.153   1.974  14.831  1.1827  2.0013  3.6143
15048TIP3   OH266558   0.862   5.169  13.686 -0.4034 -0.0886 -0.0912
15048TIP3    H166559   0.914   5.116  13.747  0.1635  0.8864  0.2966
15048TIP3    H266560   0.881   5.259  13.711 -1.3678  0.3050 -0.7264
15049TIP3   OH266561   0.168   4.788  16.139 -0.0022  0.3485 -0.1902
15049TIP3    H166562   0.130   4.707  16.105  0.8877  0.8223 -2.5088
15049TIP3    H266563   0.107   4.856  16.112 -0.3518  0.5605  1.0791
15050TIP3   OH266564   5.976   0.195  17.363 -0.0612 -0.0541  0.1969
15050TIP3    H166565   5.947   0.229  17.447  1.0502  1.8613 -0.1547
15050TIP3    H266566   5.899   0.204  17.306 -0.3413  0.1241  0.6013
15051TIP3   OH266567   3.631   1.785  15.819  0.3545 -0.8211  0.5719
15051TIP3    H166568   3.540   1.780  15.789  0.8035  0.7165 -1.2683
15051TIP3    H266569   3.636   1.869  15.863  0.9541 -0.7268  0.3321
15052TIP3   OH266570   6.681   1.063   1.630  0.4358  0.6452  0.5810
15052TIP3    H166571   6.668   1.136   1.570  0.2076  0.1674  0.0436
15052TIP3    H266572   6.612   1.073   1.696  1.6186  2.0485  1.6694
15053TIP3   OH266573   0.729   0.732  16.171 -0.3751  0.0905  0.4765
15053TIP3    H166574   0.750   0.708  16.261  0.9518  1.6707  0.6383
15053TIP3    H266575   0.774   0.815  16.157 -0.6585 -0.0470 -1.6220
15054TIP3   OH266576   5.322   1.891   1.723 -0.0106 -0.5709  0.1203
15054TIP3    H166577   5.316   1.968   1.666  0.4530  0.7168  1.7159
15054TIP3    H266578   5.283   1.820   1.673 -2.1187  1.1002 -0.7498
15055TIP3   OH266579   5.953   5.944   3.482  0.1080 -0.4134 -0.1668
15055TIP3    H166580   5.873   5.965   3.432  0.5146 -2.1464 -1.6645
15055TIP3    H266581   5.921   5.899   3.560 -0.4322 -0.1018 -0.2015
15056TIP3   OH266582   1.547   4.687   5.067  0.5418  1.0232 -0.2490
15056TIP3    H166583   1.509   4.599   5.056  0.3962  1.1073 -0.4209
15056TIP3    H266584   1.481   4.746   5.031  0.7452  1.1866 -0.3545
15057TIP3   OH266585   2.682   3.224  15.519 -0.0930  0.2591  0.0636
15057TIP3    H166586   2.594   3.219  15.482 -0.6336  0.4677  1.2712
15057TIP3    H266587   2.672   3.194  15.609  0.7942  1.6164  0.6510
15058TIP3   OH266588   3.592   1.885   4.355  0.1269 -0.4129  0.0667
15058TIP3    H166589   3.642   1.813   4.393 -0.4752 -1.6161 -1.3203
15058TIP3    H266590   3.504   1.849   4.341 -0.2634  0.6656 -0.4292
15059TIP3   OH266591   1.787   5.941  12.618  0.5169 -0.2326 -0.3331
15059TIP3    H166592   1.805   5.847  12.612  1.3628  0.0084 -2.1727
15059TIP3    H266593   1.788   5.959  12.712 -1.9672 -2.4638  0.2672
15060TIP3   OH266594   6.360   0.875   2.146 -0.3357  0.4993  0.4413
15060TIP3    H166595   6.408   0.891   2.228  1.3691 -0.1645 -0.3711
15060TIP3    H266596   6.358   0.960   2.103 -0.5233  0.6798  0.8000
15061TIP3   OH266597   2.262   5.539  12.021  0.2602 -0.0714  0.0516
15061TIP3    H166598   2.280   5.555  11.928  0.4086  1.2826  0.2900
15061TIP3    H266599   2.222   5.620  12.052 -0.4250 -0.7514  1.0269
15062TIP3   OH266600   2.326   4.872  14.557 -0.0379 -0.0716  0.2568
15062TIP3    H166601   2.300   4.936  14.622 -0.3977  0.7880 -0.7133
15062TIP3    H266602   2.257   4.874  14.491 -0.3739 -1.8985  0.4888
15063TIP3   OH266603   2.589   2.470   3.104  0.1276  0.0033  0.5544
15063TIP3    H166604   2.570   2.410   3.032 -0.2303  1.1723 -0.3620
15063TIP3    H266605   2.521   2.451   3.170 -0.4831 -0.0404 -0.0762
15064TIP3   OH266606   0.921   4.854  15.582 -0.3181  0.4176 -0.0379
15064TIP3    H166607   0.928   4.826  15.673 -0.5378 -0.4447 -0.2755
15064TIP3    H266608   0.833   4.891  15.575  0.2325  1.8889  0.4577
15065TIP3   OH266609   6.308   1.505  12.233  0.3630  0.0144 -0.3528
15065TIP3    H166610   6.327   1.414  12.211 -0.0586 -0.5472  1.4128
15065TIP3    H266611   6.245   1.500  12.305 -0.2844  1.7260 -0.7412
15066TIP3   OH266612   1.160   6.703  11.913  0.4007 -0.0891  0.6160
15066TIP3    H166613   1.201   6.617  11.908  0.7863  0.0308  1.4875
15066TIP3    H266614   1.087   6.692  11.974 -0.3987 -0.1134 -0.3243
15067TIP3   OH266615   2.235   4.283  14.796 -0.2853  0.0882  0.3105
15067TIP3    H166616   2.271   4.368  14.821 -2.1074  0.9341  0.1675
15067TIP3    H266617   2.276   4.221  14.857  2.3981  0.7320 -0.6574
15068TIP3   OH266618   6.421   0.844  11.256  0.2670  0.2521  0.1220
15068TIP3    H166619   6.477   0.826  11.180  0.8120 -1.2715  0.8358
15068TIP3    H266620   6.332   0.837  11.222  0.4914  1.2656 -0.7187
15069TIP3   OH266621   3.789   4.927   4.333 -0.4162 -0.2205  0.4503
15069TIP3    H166622   3.742   4.886   4.406 -1.1143 -0.3527 -0.0562
15069TIP3    H266623   3.754   4.884   4.255  0.5076 -0.2625  0.0495
15070TIP3   OH266624   0.269   4.535   6.150  0.4171  0.1213  0.0235
15070TIP3    H166625   0.278   4.481   6.071 -2.3672 -0.0133 -0.2787
15070TIP3    H266626   0.218   4.481   6.210 -0.9548  1.7264  0.3648
15071TIP3   OH266627   3.594   5.718   1.800  0.4188 -0.0691 -0.1431
15071TIP3    H166628   3.524   5.781   1.819  1.1547  0.9718 -0.8460
15071TIP3    H266629   3.572   5.684   1.714  0.1687 -0.6052  0.1239
15072TIP3   OH266630   5.340   1.479  15.291 -0.3312 -0.0550 -0.3129
15072TIP3    H166631   5.411   1.509  15.234  0.3289 -1.3551 -0.2055
15072TIP3    H266632   5.286   1.557  15.304 -0.0620  0.4724 -2.0609
15073TIP3   OH266633   4.187   4.179   0.418  0.1140  0.0904 -0.8572
15073TIP3    H166634   4.117   4.239   0.393  0.3691 -0.3893 -2.8493
15073TIP3    H266635   4.255   4.236   0.453 -0.9232  0.6347  0.3589
15074TIP3   OH266636   3.755   3.221  11.489  0.2779  0.3493  0.1388
15074TIP3    H166637   3.697   3.294  11.465  0.1856  0.6594  1.2678
15074TIP3    H266638   3.753   3.220  11.585  0.1544 -1.2506  0.1330
15075TIP3   OH266639   5.728   1.858   3.929  0.6096 -0.1505  0.1422
15075TIP3    H166640   5.752   1.947   3.903  0.0665  0.4220  1.4858
15075TIP3    H266641   5.759   1.850   4.019 -0.3248 -0.9286  0.4167
15076TIP3   OH266642   3.545   6.428  15.142 -0.5784  0.1029  0.1863
15076TIP3    H166643   3.540   6.467  15.230  0.3797 -0.8170  0.6668
15076TIP3    H266644   3.568   6.501  15.085  2.5677  0.1149  1.2632
15077TIP3   OH266645   2.017   3.172   1.517 -0.2524 -0.0446 -0.9288
15077TIP3    H166646   2.053   3.195   1.432  1.7084 -0.5756 -0.2976
15077TIP3    H266647   2.052   3.085   1.536 -1.3443 -0.3016  0.0564
15078TIP3   OH266648   5.442   2.441  12.086  0.1327 -0.0203  0.8069
15078TIP3    H166649   5.371   2.430  12.149 -1.2805  1.6386 -0.3836
15078TIP3    H266650   5.515   2.474  12.137 -1.0265  1.4350  1.6251
15079TIP3   OH266651   3.706   5.800   3.687 -0.5583  0.4887  0.0463
15079TIP3    H166652   3.728   5.786   3.595 -1.6426 -0.0738 -0.1329
15079TIP3    H266653   3.739   5.888   3.706 -1.5919  1.1955 -1.2755
15080TIP3   OH266654   6.210   5.741  15.314 -0.7887  0.1860 -0.2264
15080TIP3    H166655   6.195   5.700  15.229  0.7845  0.0950 -0.4910
15080TIP3    H266656   6.232   5.832  15.293  1.0593 -0.1806 -0.0775
15081TIP3   OH266657   2.691   2.035   2.215 -0.1598  0.4313  0.1595
15081TIP3    H166658   2.632   2.110   2.210 -0.2920  0.2476 -1.4102
15081TIP3    H266659   2.649   1.968   2.160  0.5623 -0.3648  0.5638
15082TIP3   OH266660   0.099   3.604  14.477  0.6156 -0.0898 -0.4289
15082TIP3    H166661   0.110   3.554  14.558  0.6981 -1.6678 -1.3746
15082TIP3    H266662   0.160   3.564  14.416 -0.9724 -0.3621 -1.9039
15083TIP3   OH266663   6.701   6.274   6.268 -0.2936  0.3948 -0.3792
15083TIP3    H166664   6.632   6.337   6.288  0.2120  1.1717 -1.0326
15083TIP3    H266665   6.777   6.327   6.247 -0.0682 -0.4115 -1.7327
15084TIP3   OH266666   6.135   4.053  15.576 -0.6687 -0.6421  0.1134
15084TIP3    H166667   6.104   4.026  15.490 -1.1579 -0.1150  0.1207
15084TIP3    H266668   6.127   4.148  15.576 -0.1698 -0.5934  0.5476
15085TIP3   OH266669   1.904   4.109  16.693 -0.0309 -0.1017 -0.5022
15085TIP3    H166670   1.983   4.062  16.720 -0.2585 -0.0157  0.3442
15085TIP3    H266671   1.832   4.057  16.730 -0.3874 -0.2874 -1.4306
15086TIP3   OH266672   0.666   2.107  16.006  0.2622  0.0242  0.5388
15086TIP3    H166673   0.713   2.024  16.019  0.7953  0.3718  0.8607
15086TIP3    H266674   0.598   2.106  16.073  1.7726  0.9160  2.1912
15087TIP3   OH266675   0.362   1.335   2.539 -0.1014 -0.5110  0.3028
15087TIP3    H166676   0.421   1.314   2.612 -0.8961  1.9012  1.7405
15087TIP3    H266677   0.400   1.413   2.499 -1.0038 -0.3698 -0.3119
15088TIP3   OH266678   6.725   3.415   4.497  0.1269  0.5758  0.1205
15088TIP3    H166679   6.735   3.509   4.480  0.0906  1.0621  2.4448
15088TIP3    H266680   6.805   3.376   4.462  1.1297  1.7707  0.9876
15089TIP3   OH266681   5.432   0.817   6.531 -0.5916  0.2805 -0.2317
15089TIP3    H166682   5.426   0.773   6.446 -3.2858  0.6875 -0.3503
15089TIP3    H266683   5.393   0.754   6.593  1.1542  0.0715  0.7217
15090TIP3   OH266684   1.116   0.442  15.099  0.1863  0.7321 -0.7939
15090TIP3    H166685   1.182   0.373  15.103 -0.2425  0.3763  1.2498
15090TIP3    H266686   1.037   0.399  15.066 -0.6289 -0.3459  2.1943
15091TIP3   OH266687   2.344   4.765   3.872 -0.0953 -0.3252 -0.1237
15091TIP3    H166688   2.261   4.799   3.904  1.2938  1.9563  1.3687
15091TIP3    H266689   2.392   4.739   3.951  1.0251 -0.5012 -0.8291
15092TIP3   OH266690   3.878   4.285  17.234  0.2565  0.1392  0.2086
15092TIP3    H166691   3.884   4.194  17.263  0.0989  0.3887  1.0401
15092TIP3    H266692   3.827   4.329  17.302 -0.5994  0.6268 -0.7187
15093TIP3   OH266693   0.253   6.269  16.766 -0.7749  0.1907 -0.3152
15093TIP3    H166694   0.250   6.364  16.753  1.0035  0.6779  2.1384
15093TIP3    H266695   0.184   6.252  16.830  0.0122  0.1211  0.5306
15094TIP3   OH266696   6.666   4.684   3.233 -0.0283  0.2916  0.1188
15094TIP3    H166697   6.593   4.744   3.213 -1.6967 -1.4761  0.6398
15094TIP3    H266698   6.733   4.707   3.169 -1.8698  0.5759 -1.8492
15095TIP3   OH266699   2.164   1.748   3.442 -0.6055 -0.0186 -0.0866
15095TIP3    H166700   2.247   1.773   3.401 -0.4605  0.7788  0.6560
15095TIP3    H266701   2.147   1.660   3.409  0.7423 -0.3653  0.0631
15096TIP3   OH266702   4.535   5.236  16.933  0.0981 -0.0552  0.1508
15096TIP3    H166703   4.534   5.171  16.862  2.9662 -0.3901  0.2969
15096TIP3    H266704   4.499   5.189  17.009 -0.6802 -0.4856 -0.4729
15097TIP3   OH266705   4.135   5.251   0.727 -0.5829  0.6239  0.2381
15097TIP3    H166706   4.115   5.262   0.634  0.4967  0.8384  0.0175
15097TIP3    H266707   4.197   5.322   0.747  0.0282 -0.0588  0.8497
15098TIP3   OH266708   4.348   3.014   5.737  0.3330 -0.3964  0.1620
15098TIP3    H166709   4.351   2.987   5.829 -0.1071 -0.0840  0.2691
15098TIP3    H266710   4.427   2.975   5.698  1.7292  1.2772  1.1673
15099TIP3   OH266711   3.723   4.088  14.564 -0.2852  0.0282 -0.1396
15099TIP3    H166712   3.703   4.176  14.532  0.8028  0.0260 -0.8911
15099TIP3    H266713   3.765   4.045  14.489  1.0608 -0.4528  0.8601
15100TIP3   OH266714   0.836   4.047   1.582 -0.1176 -0.3687  0.0008
15100TIP3    H166715   0.802   4.020   1.667  0.8212 -2.5081 -0.2463
15100TIP3    H266716   0.782   4.122   1.558 -0.1038  0.6055  2.6569
15101TIP3   OH266717   0.587   2.057   2.662  0.0380 -0.2250  0.3250
15101TIP3    H166718   0.680   2.055   2.641 -0.0294 -1.3528  0.0429
15101TIP3    H266719   0.569   2.147   2.688  1.1395  0.0707  0.0796
15102TIP3   OH266720   3.340   1.780  14.176  0.3380  0.5786 -0.1261
15102TIP3    H166721   3.417   1.737  14.212  0.8959  1.7235  0.1059
15102TIP3    H266722   3.372   1.824  14.097  0.1009  1.6481  0.3574
15103TIP3   OH266723   1.292   6.750  14.544  0.0453  0.2841  0.8243
15103TIP3    H166724   1.245   6.827  14.512  0.1157 -0.3203 -0.8074
15103TIP3    H266725   1.238   6.675  14.515  0.3957 -0.3142  1.6763
15104TIP3   OH266726   1.712   5.290  15.021 -0.3939 -0.2723 -0.1405
15104TIP3    H166727   1.638   5.333  14.979 -0.7605 -0.6944  0.0674
15104TIP3    H266728   1.739   5.350  15.090  1.5573  1.4506 -2.2296
15105TIP3   OH266729   0.149   3.392  17.252 -0.4697 -0.0691  0.0516
15105TIP3    H166730   0.177   3.386  17.160  0.3357  0.3371  0.2628
15105TIP3    H266731   0.229   3.373  17.302 -0.7469  0.3900  0.6673
15106TIP3   OH266732   3.522   1.988   2.621  0.5068  0.4595 -0.3979
15106TIP3    H166733   3.546   1.900   2.594 -0.7854  0.0968 -0.4589
15106TIP3    H266734   3.478   2.026   2.545  0.1106  0.7643 -0.0244
15107TIP3   OH266735   3.243   4.785   5.478  0.1500 -0.2203  0.0209
15107TIP3    H166736   3.194   4.786   5.396  0.2348 -0.1349 -0.0295
15107TIP3    H266737   3.178   4.763   5.545 -0.1694  0.8385  0.0821
15108TIP3   OH266738   2.008   2.840   0.863  0.0232 -0.5307 -0.7821
15108TIP3    H166739   1.975   2.881   0.943  0.7858  0.7533 -1.0912
15108TIP3    H266740   1.932   2.834   0.805 -0.8548 -2.7459  0.4877
15109TIP3   OH266741   1.251   6.341  15.177 -0.2038 -0.2149  0.4955
15109TIP3    H166742   1.269   6.358  15.269 -0.7435 -0.1193  0.5843
15109TIP3    H266743   1.250   6.428  15.136 -1.6701 -0.1122  0.7135
15110TIP3   OH266744   6.205   6.551   4.559  0.1720  0.5416 -0.6221
15110TIP3    H166745   6.300   6.549   4.553  0.2314 -0.1030  0.3167
15110TIP3    H266746   6.175   6.532   4.471  0.8941  1.9245 -1.2010
15111TIP3   OH266747   2.786   1.969   0.177  0.0843  0.0412 -0.4501
15111TIP3    H166748   2.770   1.878   0.203 -1.1259  0.1906 -0.6632
15111TIP3    H266749   2.879   1.970   0.151  0.0793 -1.1489 -0.5520
15112TIP3   OH266750   0.044   3.612   3.400 -0.1208  0.6093  0.3731
15112TIP3    H166751   0.061   3.526   3.438 -1.6944  0.5782  1.0819
15112TIP3    H266752   0.131   3.644   3.374  0.4643 -1.3559 -0.3213
15113TIP3   OH266753   5.352   3.905   1.802 -0.0944 -0.0451 -1.1471
15113TIP3    H166754   5.332   3.947   1.886 -0.4480  2.6320 -2.4377
15113TIP3    H266755   5.282   3.842   1.789  0.1035 -0.6765  0.6504
15114TIP3   OH266756   2.820   4.398   6.834  0.0947 -0.8584 -0.6427
15114TIP3    H166757   2.908   4.362   6.850 -0.4664 -1.9896  0.0074
15114TIP3    H266758   2.761   4.326   6.854 -1.0717  0.3842  0.6165
15115TIP3   OH266759   2.154   0.921  15.538 -0.5644 -0.1884  0.7440
15115TIP3    H166760   2.123   0.851  15.594 -2.1815 -0.4374 -0.4140
15115TIP3    H266761   2.078   0.977  15.523  0.2586  0.8459  0.2230
15116TIP3   OH266762   0.372   0.690   1.864 -0.0694 -0.5002 -0.0673
15116TIP3    H166763   0.289   0.689   1.817  0.9693  0.5323 -2.0515
15116TIP3    H266764   0.395   0.598   1.876 -0.6048 -0.7810 -1.1514
15117TIP3   OH266765   2.693   0.297   0.810  0.1529 -0.0483  0.4400
15117TIP3    H166766   2.780   0.323   0.838  0.1114 -0.4326  0.9324
15117TIP3    H266767   2.687   0.328   0.719  0.8203 -0.0720  0.3844
15118TIP3   OH266768   1.639   0.494  13.428  0.2586 -0.2264 -0.3397
15118TIP3    H166769   1.733   0.511  13.433  0.1940 -0.2648  1.5350
15118TIP3    H266770   1.599   0.581  13.425  0.2929 -0.1461  0.9328
15119TIP3   OH266771   0.608   6.236  15.458  0.0439 -1.2016 -0.5003
15119TIP3    H166772   0.680   6.286  15.419 -0.1864  0.3531  0.9692
15119TIP3    H266773   0.573   6.293  15.526 -1.9382 -2.3487 -0.4841
15120TIP3   OH266774   0.538   2.424  16.992 -0.0168  0.1572 -0.2671
15120TIP3    H166775   0.529   2.512  17.028  0.0955  0.3816 -0.7721
15120TIP3    H266776   0.499   2.367  17.057  1.6588  0.3850  0.9950
15121TIP3   OH266777   4.266   5.608   2.615 -0.2135 -0.4573 -0.2085
15121TIP3    H166778   4.353   5.648   2.620 -1.2271  1.6997  2.0530
15121TIP3    H266779   4.263   5.547   2.689 -0.5186 -0.7633 -0.4716
15122TIP3   OH266780   5.924   1.764  11.284  0.1870  0.3006 -0.4480
15122TIP3    H166781   5.939   1.783  11.191 -1.3113 -0.7805 -0.9716
15122TIP3    H266782   5.975   1.685  11.300  0.5839  0.5873 -0.3115
15123TIP3   OH266783   3.417   1.003   0.334  0.4737 -0.0872  0.2949
15123TIP3    H166784   3.346   1.003   0.398 -0.1813  0.7034 -0.4093
15123TIP3    H266785   3.389   1.066   0.268  1.0539 -0.9965 -0.8498
15124TIP3   OH266786   0.980   6.274   3.383  0.3756  0.0859  0.1893
15124TIP3    H166787   1.072   6.289   3.358  0.6029  0.6164  1.2923
15124TIP3    H266788   0.959   6.347   3.441 -1.1732  0.7376 -1.0950
15125TIP3   OH266789   2.534   1.333  16.796  0.0379  0.3309 -0.2605
15125TIP3    H166790   2.444   1.316  16.823 -0.0839 -0.0803 -0.8993
15125TIP3    H266791   2.568   1.247  16.773  0.4420  0.5458 -0.4776
15126TIP3   OH266792   5.777   5.200  13.443 -0.2937  0.1356 -0.4144
15126TIP3    H166793   5.799   5.291  13.461 -2.5673  0.6765 -0.0876
15126TIP3    H266794   5.719   5.174  13.514 -1.9325 -0.6487 -1.9431
15127TIP3   OH266795   4.761   3.710  10.911 -0.3607  0.0188 -0.0962
15127TIP3    H166796   4.801   3.706  10.824 -1.8760  0.5626 -0.8608
15127TIP3    H266797   4.834   3.727  10.971  0.6266  0.2536 -1.3284
15128TIP3   OH266798   6.207   1.692  14.440  0.1154  0.1178  0.2407
15128TIP3    H166799   6.125   1.667  14.399 -0.6681  0.3487  1.5814
15128TIP3    H266800   6.188   1.776  14.482  0.5885 -0.4746  1.7359
15129TIP3   OH266801   2.150   5.203  16.312 -0.3871  0.4913 -0.0567
15129TIP3    H166802   2.208   5.152  16.369 -0.4389 -0.9502 -1.2518
15129TIP3    H266803   2.209   5.259  16.261 -0.1917  0.2992 -0.0397
15130TIP3   OH266804   1.173   0.713   3.995 -0.0621 -0.7552  0.1248
15130TIP3    H166805   1.242   0.670   4.045 -0.2048  1.7108  2.6897
15130TIP3    H266806   1.093   0.669   4.022  0.0369 -0.5222  0.8165
15131TIP3   OH266807   1.642   5.682   3.522  0.0284  0.1550 -0.3445
15131TIP3    H166808   1.569   5.686   3.584  0.6322 -3.1304  0.7610
15131TIP3    H266809   1.602   5.652   3.440 -0.3017  1.6180 -0.7559
15132TIP3   OH266810   1.548   6.022  14.975  0.5500 -0.8439  0.3442
15132TIP3    H166811   1.592   6.096  14.934  0.3997 -1.0898 -0.2638
15132TIP3    H266812   1.557   5.950  14.912 -0.3697 -1.0121  0.3861
15133TIP3   OH266813   4.263   0.906   2.410  0.2999  0.2207  0.4339
15133TIP3    H166814   4.340   0.894   2.355  1.9091 -0.4010  2.6798
15133TIP3    H266815   4.299   0.921   2.498 -2.1508 -1.1836  1.7687
15134TIP3   OH266816   2.449   3.576  15.153  0.1502 -0.0164  0.0791
15134TIP3    H166817   2.368   3.579  15.102  0.1276 -0.8120  0.0577
15134TIP3    H266818   2.420   3.566  15.244  0.2025 -2.6338 -0.1084
15135TIP3   OH266819   2.202   6.149  11.450 -0.5022 -0.4514 -0.5229
15135TIP3    H166820   2.130   6.133  11.388 -0.8860 -0.9553  0.0427
15135TIP3    H266821   2.197   6.077  11.512 -0.8615  0.6525  0.7956
15136TIP3   OH266822   1.605   0.557   2.075  0.0732 -0.1055  0.1121
15136TIP3    H166823   1.648   0.623   2.129 -1.0470  0.0986  0.7794
15136TIP3    H266824   1.618   0.587   1.985  0.7919  0.2616  0.3304
15137TIP3   OH266825   6.183   3.867  13.476 -0.4471 -0.1616 -0.3600
15137TIP3    H166826   6.154   3.852  13.386 -2.5054  1.3806 -0.0183
15137TIP3    H266827   6.242   3.942  13.470  0.1344 -0.6166 -0.5010
15138TIP3   OH266828   0.229   0.642   0.598  0.1556 -0.4372  0.4018
15138TIP3    H166829   0.298   0.707   0.607 -0.2877  0.2782 -1.0592
15138TIP3    H266830   0.152   0.692   0.569 -0.5431 -1.4265  0.4867
15139TIP3   OH266831   4.556   2.950   5.370 -0.1509 -0.2017  0.1293
15139TIP3    H166832   4.592   3.037   5.354  1.3825 -0.9730 -0.8512
15139TIP3    H266833   4.500   2.933   5.294 -2.3058  0.7718  1.3894
15140TIP3   OH266834   2.951   3.231  12.688 -0.2669 -0.2943  0.3530
15140TIP3    H166835   3.004   3.301  12.650  0.2517 -0.4308  0.8148
15140TIP3    H266836   2.912   3.188  12.612  0.7913 -0.5876 -0.0551
15141TIP3   OH266837   2.011   0.924   1.176 -0.6944  0.9762  0.3033
15141TIP3    H166838   2.038   0.863   1.244 -1.1461  1.3496  0.8278
15141TIP3    H266839   2.086   0.982   1.164 -0.4561  0.6427  0.1732
15142TIP3   OH266840   2.582   0.964   0.707 -0.3359  0.3039 -0.0681
15142TIP3    H166841   2.621   0.959   0.794 -1.3552 -0.8060  0.3596
15142TIP3    H266842   2.575   0.873   0.678 -1.1384  0.5733 -0.7850
15143TIP3   OH266843   6.713   3.594   5.125  0.1191 -0.8072 -0.5739
15143TIP3    H166844   6.746   3.677   5.090  2.0961 -1.4708 -0.3802
15143TIP3    H266845   6.715   3.605   5.220 -2.0853 -0.2089 -0.5296
15144TIP3   OH266846   3.070   3.306   1.454 -0.0499 -0.2380 -0.2413
15144TIP3    H166847   3.034   3.292   1.366 -0.1678 -0.3658 -0.1730
15144TIP3    H266848   3.013   3.254   1.512  0.9136 -1.3805 -0.2659
15145TIP3   OH266849   5.199   1.843   3.013 -0.4662 -0.1667  0.2774
15145TIP3    H166850   5.200   1.754   2.977  0.3333  0.0997 -0.3959
15145TIP3    H266851   5.205   1.831   3.107 -1.0293 -0.8464  0.2305
15146TIP3   OH266852   2.235   3.893  12.243  0.0216 -0.2371  0.1198
15146TIP3    H166853   2.146   3.866  12.267 -0.3794 -0.1626 -1.1935
15146TIP3    H266854   2.292   3.833  12.290 -0.7767 -1.5194 -0.4801
15147TIP3   OH266855   2.268   4.901  12.947  0.2929  0.2026 -0.5309
15147TIP3    H166856   2.222   4.891  12.863  0.7006  1.7759 -0.9827
15147TIP3    H266857   2.357   4.927  12.923  0.3049  1.0609  0.3857
15148TIP3   OH266858   4.813   6.534   6.602  0.1515 -0.0511  0.7618
15148TIP3    H166859   4.802   6.453   6.651  1.8769 -0.7380  0.1117
15148TIP3    H266860   4.899   6.525   6.561 -0.0706  1.6697 -0.1683
15149TIP3   OH266861   0.472   4.713   0.759  0.1329 -0.2213 -0.1295
15149TIP3    H166862   0.515   4.769   0.823 -0.8048  0.7546 -0.3373
15149TIP3    H266863   0.401   4.766   0.724 -0.5973 -1.4426 -0.5485
15150TIP3   OH266864   5.451   1.362   1.463 -0.2432 -0.5670 -0.4287
15150TIP3    H166865   5.530   1.363   1.409 -1.0997  2.1369 -1.7992
15150TIP3    H266866   5.383   1.326   1.404 -1.1734  2.3598 -1.3096
15151TIP3   OH266867   6.153   3.251  17.418  0.0124 -0.2232  0.7881
15151TIP3    H166868   6.077   3.310  17.413  0.0555 -0.1263  1.2169
15151TIP3    H266869   6.222   3.305  17.457  1.0809  0.4604 -1.8471
15152TIP3   OH266870   1.470   3.584   3.498  0.5525 -1.0494 -0.6242
15152TIP3    H166871   1.486   3.632   3.579 -0.6336  1.1786 -1.6117
15152TIP3    H266872   1.462   3.493   3.525  1.9954 -0.6299  1.4848
15153TIP3   OH266873   3.327   6.613   0.583  0.4649  0.1714  0.4620
15153TIP3    H166874   3.375   6.622   0.501 -0.4907  0.2834 -0.1059
15153TIP3    H266875   3.292   6.700   0.600 -1.1514 -0.3243 -0.1738
15154TIP3   OH266876   3.097   3.447  15.167  0.2286 -0.0216  0.5531
15154TIP3    H166877   3.161   3.390  15.209  0.6844 -0.6327 -0.9041
15154TIP3    H266878   3.028   3.458  15.233  1.4401  0.0268  1.8770
15155TIP3   OH266879   5.650   1.895   3.299 -0.2218 -0.2376 -0.2537
15155TIP3    H166880   5.673   1.914   3.208  2.1373 -0.9936  0.1380
15155TIP3    H266881   5.588   1.822   3.293  1.5043 -1.6973 -1.2217
15156TIP3   OH266882   2.387   2.803  16.990 -0.3783 -0.0727 -0.0798
15156TIP3    H166883   2.335   2.723  16.978 -1.2322  0.2047  1.4475
15156TIP3    H266884   2.477   2.773  16.998 -0.4018 -0.6675 -1.6457
15157TIP3   OH266885   2.233   5.521   1.236  0.2806 -0.0503  0.0196
15157TIP3    H166886   2.234   5.606   1.281  3.3771  0.0145  0.0472
15157TIP3    H266887   2.269   5.540   1.149 -0.3348 -1.1438 -0.4989
15158TIP3   OH266888   0.432   3.174  15.922  0.5552 -0.2731  0.1610
15158TIP3    H166889   0.525   3.174  15.942  0.0500 -0.5172  2.8891
15158TIP3    H266890   0.394   3.107  15.979 -1.4054  0.4577 -0.1807
15159TIP3   OH266891   0.625   5.643   1.719 -0.1858  0.1551 -0.4742
15159TIP3    H166892   0.591   5.574   1.662 -1.3809  0.2054  0.1455
15159TIP3    H266893   0.583   5.723   1.687 -2.5019 -0.0899  1.6639
15160TIP3   OH266894   3.380   3.476   3.522 -0.1973 -0.5512  0.4014
15160TIP3    H166895   3.404   3.446   3.434 -0.8643 -0.4528  0.1876
15160TIP3    H266896   3.287   3.497   3.516 -0.0488  0.2782  0.9040
15161TIP3   OH266897   4.904   5.426   0.339  0.3516  0.0886 -0.2375
15161TIP3    H166898   4.900   5.475   0.258 -0.0738  0.0329 -0.2505
15161TIP3    H266899   4.977   5.464   0.387  0.3846  0.3477 -0.4970
15162TIP3   OH266900   5.603   0.814   1.854 -0.0641 -0.1583  0.2362
15162TIP3    H166901   5.692   0.825   1.889 -0.2422 -0.6579  0.8696
15162TIP3    H266902   5.565   0.745   1.908 -0.3974 -0.8775 -0.8680
15163TIP3   OH266903   1.675   5.337   3.482 -0.0403 -0.2111 -0.8299
15163TIP3    H166904   1.593   5.332   3.433  0.0924 -0.6217 -1.0110
15163TIP3    H266905   1.720   5.413   3.446 -2.0488  2.5349  1.9151
15164TIP3   OH266906   1.740   5.745  13.518 -1.1642 -0.0003 -0.2948
15164TIP3    H166907   1.827   5.730  13.481 -0.7213 -2.2686  1.4386
15164TIP3    H266908   1.679   5.713  13.451 -0.7037  1.3146 -1.3875
15165TIP3   OH266909   4.527   0.396  12.610  0.0840  0.3148 -0.1468
15165TIP3    H166910   4.610   0.444  12.606  0.4410 -0.1916  0.9996
15165TIP3    H266911   4.505   0.380  12.518  0.8184  1.1811 -0.4915
15166TIP3   OH266912   0.047   5.653   3.049  0.2490  0.3843 -0.0911
15166TIP3    H166913   0.101   5.576   3.031 -1.0880 -1.1261  1.8662
15166TIP3    H266914  -0.043   5.623   3.034 -0.2602  1.8370 -0.0787
15167TIP3   OH266915   0.388   2.272   0.886  0.3970 -0.7510  0.2662
15167TIP3    H166916   0.458   2.311   0.833  0.1398 -1.0224 -0.2893
15167TIP3    H266917   0.355   2.200   0.831 -2.7219  1.5153 -1.1155
15168TIP3   OH266918   2.614   3.126  14.727  0.4142 -0.1466  0.0939
15168TIP3    H166919   2.667   3.137  14.805 -2.3736 -0.7135  2.2212
15168TIP3    H266920   2.550   3.198  14.731  0.0287 -0.3507 -1.5101
15169TIP3   OH266921   2.075   2.111  15.617 -0.0743 -0.9383 -0.1360
15169TIP3    H166922   1.995   2.126  15.566 -1.7457 -2.6682  1.7879
15169TIP3    H266923   2.137   2.074  15.553 -0.6838  0.6299 -1.7211
15170TIP3   OH266924   1.549   0.257  13.010  0.4194  0.0698 -0.1551
15170TIP3    H166925   1.573   0.215  13.092 -0.2282  1.5259  0.8220
15170TIP3    H266926   1.593   0.205  12.943  1.2008 -0.9831  1.1222
15171TIP3   OH266927   1.542   2.042  14.967  0.5828  0.0574 -0.1380
15171TIP3    H166928   1.583   2.120  14.928  0.9878 -0.3658 -0.5651
15171TIP3    H266929   1.515   1.990  14.891 -0.8318  0.3682  0.1258
15172TIP3   OH266930   5.384   4.833   6.273  0.0505 -0.4585  0.8394
15172TIP3    H166931   5.468   4.879   6.264 -0.5526  0.6873  0.8235
15172TIP3    H266932   5.348   4.865   6.356  0.0188 -1.6148  1.2906
15173TIP3   OH266933   3.589   5.181   1.963 -0.3203 -0.6454 -0.2653
15173TIP3    H166934   3.599   5.205   2.055  1.3560  0.6169 -0.7228
15173TIP3    H266935   3.584   5.265   1.917  1.3665 -1.1708 -1.5175
15174TIP3   OH266936   0.808   4.198  12.641 -0.1985 -0.0956 -0.0640
15174TIP3    H166937   0.802   4.262  12.712  1.0337 -0.3715  0.3064
15174TIP3    H266938   0.902   4.185  12.628 -0.3987 -0.3750 -1.4628
15175TIP3   OH266939   0.332   4.910  14.202  0.0513  0.0795 -0.2651
15175TIP3    H166940   0.283   4.859  14.266 -2.8330  0.5751 -1.9363
15175TIP3    H266941   0.409   4.856  14.183 -0.4927 -1.4132  1.4213
15176TIP3   OH266942   3.046   2.408  13.581 -0.3858  0.6134  0.3271
15176TIP3    H166943   2.996   2.487  13.563 -3.5553 -1.2340  0.2802
15176TIP3    H266944   3.048   2.401  13.676  0.7844  1.2193  0.3635
15177TIP3   OH266945   2.526   5.573  15.192 -0.1538 -0.3307  0.3464
15177TIP3    H166946   2.609   5.534  15.221  0.3150 -0.3398 -0.9287
15177TIP3    H266947   2.485   5.605  15.272  0.6596 -1.1356  1.1100
15178TIP3   OH266948   4.520   1.035  14.899  0.2111  0.1542  0.0153
15178TIP3    H166949   4.600   1.027  14.848  0.8871  2.6917  0.5609
15178TIP3    H266950   4.537   0.985  14.979  1.3254  0.7733  0.1815
15179TIP3   OH266951   0.955   4.240  16.123  0.1670  0.0442 -0.3976
15179TIP3    H166952   1.039   4.266  16.161 -0.9273  2.9406  0.2967
15179TIP3    H266953   0.890   4.269  16.186 -1.4619 -0.4616 -1.7670
15180TIP3   OH266954   4.146   0.127  17.120  0.1481  0.4634 -0.6631
15180TIP3    H166955   4.188   0.069  17.058  0.5530  1.6534 -1.5278
15180TIP3    H266956   4.063   0.151  17.079 -0.2780  0.0637 -0.0574
15181TIP3   OH266957   3.339   3.853   0.768  0.1991 -0.0305 -0.3488
15181TIP3    H166958   3.383   3.779   0.810  0.8464  1.4422  1.7334
15181TIP3    H266959   3.275   3.813   0.710 -0.6958 -2.2608  1.9985
15182TIP3   OH266960   6.636   2.924   2.714  0.1448  0.2015  0.1738
15182TIP3    H166961   6.717   2.877   2.696 -0.7435 -1.5886  0.5905
15182TIP3    H266962   6.579   2.859   2.755 -0.9505  1.8263  1.3709
15183TIP3   OH266963   1.842   0.403   2.054 -0.0192  0.6284  0.2171
15183TIP3    H166964   1.764   0.454   2.073  0.4627  0.3390  3.4900
15183TIP3    H266965   1.833   0.379   1.961 -4.7796 -1.0280  0.8232
15184TIP3   OH266966   5.657   0.122   3.537 -0.0267 -0.4078  0.4892
15184TIP3    H166967   5.719   0.188   3.507 -0.5854 -0.5944 -1.1652
15184TIP3    H266968   5.581   0.173   3.566  0.1737 -0.2623  0.7676
15185TIP3   OH266969   6.210   0.640   2.089 -0.0527 -0.4972 -0.1414
15185TIP3    H166970   6.257   0.723   2.092 -0.8257 -0.0725  0.6034
15185TIP3    H266971   6.217   0.606   2.178  0.5978 -1.4339 -0.5374
15186TIP3   OH266972   4.777   5.335   1.295 -0.0317 -0.1165 -0.3177
15186TIP3    H166973   4.710   5.374   1.237 -0.7861 -0.6807  0.1601
15186TIP3    H266974   4.819   5.411   1.335  0.9112  0.3173 -2.0208
15187TIP3   OH266975   6.549   5.356  13.702 -0.1741 -0.2911 -0.6631
15187TIP3    H166976   6.490   5.374  13.630 -0.6008  0.4304 -0.1376
15187TIP3    H266977   6.526   5.267  13.730 -1.6900  0.3287  0.1671
15188TIP3   OH266978   1.340   5.834   6.052  0.2466 -0.0477  0.0968
15188TIP3    H166979   1.280   5.769   6.017  0.3910  0.9290 -2.0803
15188TIP3    H266980   1.423   5.816   6.008  0.1124  2.0048 -1.0787
15189TIP3   OH266981   1.387   6.079   3.048  0.2540 -0.3601  0.2564
15189TIP3    H166982   1.463   6.053   2.996  1.3097 -0.8246  1.9432
15189TIP3    H266983   1.399   6.173   3.062 -1.1058  0.2129 -1.9443
15190TIP3   OH266984   5.976   2.984  12.646 -0.7922  0.1073  0.1087
15190TIP3    H166985   6.007   2.900  12.611  2.1946  1.4518 -0.7791
15190TIP3    H266986   5.968   2.969  12.740 -0.5890 -1.2308 -0.0634
15191TIP3   OH266987   3.239   2.320   6.047 -0.0609  0.2043 -0.0912
15191TIP3    H166988   3.275   2.328   6.135 -1.8148  0.7701  0.6147
15191TIP3    H266989   3.266   2.400   6.002 -0.9444  0.9178  0.6274
15192TIP3   OH266990   6.271   5.760   5.742  0.0434  0.4650  0.3322
15192TIP3    H166991   6.247   5.847   5.709 -0.5136 -0.5138 -2.0020
15192TIP3    H266992   6.192   5.729   5.787 -0.3189  0.5021 -0.2718
15193TIP3   OH266993   6.281   5.718   2.473 -0.3091 -0.3344  0.0071
15193TIP3    H166994   6.316   5.737   2.560 -1.9213 -1.2504  0.9013
15193TIP3    H266995   6.358   5.713   2.416  0.7462  0.5547  1.3178
15194TIP3   OH266996   2.795   0.248   2.305 -0.2795  0.5666  0.3384
15194TIP3    H166997   2.798   0.338   2.270  0.8376 -0.0070 -1.1638
15194TIP3    H266998   2.858   0.247   2.377  0.5223  0.7353 -0.3445
15195TIP3   OH266999   3.745   1.082  13.539 -0.2761  0.2071 -0.0774
15195TIP3    H167000   3.711   0.995  13.520  0.6766  0.0485 -1.2439
15195TIP3    H267001   3.789   1.073  13.623 -1.4786 -0.0349  0.5471
15196TIP3   OH267002   0.399   3.796  14.159  0.0413  0.1816  0.2161
15196TIP3    H167003   0.324   3.792  14.100 -0.0102 -0.0952  0.3004
15196TIP3    H267004   0.375   3.739  14.232  0.0721  0.5834  0.5397
15197TIP3   OH267005   2.625   2.181  16.135 -0.1864  0.1769  0.1097
15197TIP3    H167006   2.674   2.259  16.161 -0.4579 -0.6108  3.5429
15197TIP3    H267007   2.567   2.211  16.065 -2.2588  3.9518  3.0093
15198TIP3   OH267008   0.766   6.360   0.463  0.0159 -0.0580 -0.2876
15198TIP3    H167009   0.828   6.427   0.490  0.2552 -0.1914 -0.4936
15198TIP3    H267010   0.680   6.400   0.472 -0.0163 -0.5125  1.8863
15199TIP3   OH267011   1.903   5.214   5.288  0.5072  0.3151 -1.1837
15199TIP3    H167012   1.966   5.149   5.319  0.0949  0.7479  0.6655
15199TIP3    H267013   1.858   5.243   5.367  1.0228  3.2243 -1.8640
15200TIP3   OH267014   5.314   3.642  12.314  0.4523  0.0469  0.0482
15200TIP3    H167015   5.358   3.563  12.344  2.4801  1.2575  0.4654
15200TIP3    H267016   5.287   3.687  12.394  0.9782  0.6543 -0.1047
15201TIP3   OH267017   2.975   4.227  17.101  0.2553  0.1719  0.2441
15201TIP3    H167018   2.888   4.187  17.111  0.0725  0.8656  1.6843
15201TIP3    H267019   3.036   4.153  17.108 -0.2172 -0.4683 -1.7977
15202TIP3   OH267020   0.857   6.732  14.305 -0.1568  0.2792  0.6988
15202TIP3    H167021   0.923   6.696  14.246  0.3389  2.2203 -0.0279
15202TIP3    H267022   0.776   6.686  14.282  0.2805  0.1440 -0.6992
15203TIP3   OH267023   0.449   3.403  17.080  0.0393  0.3822  0.0375
15203TIP3    H167024   0.519   3.381  17.019 -0.1230  2.3232 -0.9222
15203TIP3    H267025   0.495   3.427  17.161  0.5754  1.9990 -0.6971
15204TIP3   OH267026   5.747   4.163  15.877  0.6882  0.1321  0.0230
15204TIP3    H167027   5.798   4.110  15.816  2.1282  1.7640 -0.2787
15204TIP3    H267028   5.786   4.145  15.962  1.3031  0.8064 -0.1049
15205TIP3   OH267029   5.767   4.086   0.467 -0.3251  0.9607  0.3896
15205TIP3    H167030   5.779   4.179   0.444 -0.7689  0.9368  0.0580
15205TIP3    H267031   5.813   4.077   0.551  0.9441  1.1423 -0.2725
15206TIP3   OH267032   0.184   3.204  15.732  0.0337  0.3911  0.0555
15206TIP3    H167033   0.218   3.291  15.708  1.5525 -0.2078 -0.0655
15206TIP3    H267034   0.255   3.163  15.781 -0.7555 -0.7107  0.3189
15207TIP3   OH267035   4.037   2.271   5.541  0.0191 -0.2765 -0.4574
15207TIP3    H167036   4.114   2.268   5.597 -0.3371  1.7114  0.2493
15207TIP3    H267037   3.970   2.312   5.596 -1.2586 -1.1094 -1.3604
15208TIP3   OH267038   3.307   1.350   2.417 -0.0942  0.5446  0.5499
15208TIP3    H167039   3.376   1.340   2.352 -1.7398 -1.1630 -1.0521
15208TIP3    H267040   3.282   1.443   2.412 -0.8743  0.2709 -2.0789
15209TIP3   OH267041   5.682   2.941   2.486  0.0054 -0.2649  0.3010
15209TIP3    H167042   5.624   2.917   2.414 -1.0493 -0.6231  1.2329
15209TIP3    H267043   5.658   3.031   2.507  1.3956  0.3896 -0.7836
15210TIP3   OH267044   3.916   0.694   6.560 -0.0066 -0.0359  0.3768
15210TIP3    H167045   3.864   0.624   6.600  0.7843 -0.4951  0.6283
15210TIP3    H267046   3.863   0.773   6.572 -0.3194 -0.3640  1.2815
15211TIP3   OH267047   4.394   4.755   3.858 -0.4773  0.7545  0.9585
15211TIP3    H167048   4.453   4.807   3.912  0.7627 -1.4726  1.8829
15211TIP3    H267049   4.429   4.764   3.769  0.9043 -0.0160  1.4011
15212TIP3   OH267050   0.346   1.610   4.765 -0.1810  0.8167 -0.5473
15212TIP3    H167051   0.431   1.653   4.753  0.9223 -1.0126  0.3246
15212TIP3    H267052   0.368   1.525   4.803 -2.4495  0.4631  0.0689
15213TIP3   OH267053   3.980   1.948   5.399 -0.2927 -0.1559  0.0203
15213TIP3    H167054   3.980   1.892   5.321  1.1943  0.3892 -0.4086
15213TIP3    H267055   4.072   1.957   5.422 -0.5268  1.6566  0.4075
15214TIP3   OH267056   2.428   5.676  13.605  0.0893  0.0859  0.1095
15214TIP3    H167057   2.425   5.690  13.700 -0.1857 -0.3879  0.1778
15214TIP3    H267058   2.350   5.623  13.586  1.2062 -1.5606 -0.0641
15215TIP3   OH267059   1.889   0.044   5.009 -0.3801  0.1375  0.4096
15215TIP3    H167060   1.846   0.004   5.085  0.0322 -0.6288  0.2498
15215TIP3    H267061   1.841   0.011   4.934  0.5700 -0.8839  0.2157
15216TIP3   OH267062   3.384   1.049  11.789  0.3117 -0.1986  0.4769
15216TIP3    H167063   3.372   1.061  11.883 -1.0496 -2.1466  0.6077
15216TIP3    H267064   3.297   1.026  11.756  0.1954  2.7908 -1.7365
15217TIP3   OH267065   2.363   6.560   0.450 -0.1537 -0.6732  0.3916
15217TIP3    H167066   2.342   6.652   0.432 -0.0137 -0.7675 -0.2740
15217TIP3    H267067   2.454   6.550   0.421 -1.2554 -1.9404 -3.2307
15218TIP3   OH267068   6.642   0.836   3.216 -0.1226 -0.1366 -0.1422
15218TIP3    H167069   6.574   0.840   3.150 -1.4173 -1.0457  1.0802
15218TIP3    H267070   6.720   0.871   3.173 -0.2724 -2.8511 -2.9383
15219TIP3   OH267071   5.277   5.368  12.938 -0.1913  0.1745  0.1146
15219TIP3    H167072   5.202   5.369  12.998 -0.7448 -1.4181 -0.4883
15219TIP3    H267073   5.276   5.454  12.897 -2.0836  0.0008 -0.3239
15220TIP3   OH267074   1.410   1.095  13.989 -0.3233  0.0843 -0.2726
15220TIP3    H167075   1.370   1.008  13.995 -0.6193  0.1072 -1.5722
15220TIP3    H267076   1.489   1.082  13.937  0.2375  0.4036  0.4905
15221TIP3   OH267077   0.400   6.289  17.292  0.1175  0.5283  0.3473
15221TIP3    H167078   0.388   6.273  17.198  0.1774 -1.4504  0.6308
15221TIP3    H267079   0.402   6.384  17.300  3.3428  0.8140 -2.0583
15222TIP3   OH267080   2.753   6.482   6.205  0.3345  0.1566  0.1577
15222TIP3    H167081   2.767   6.400   6.254  0.8185  0.5458  0.6766
15222TIP3    H267082   2.817   6.479   6.134  1.2939  0.7078  0.9770
15223TIP3   OH267083   6.069   2.624   0.671  0.9325 -0.1578  0.1044
15223TIP3    H167084   6.082   2.538   0.710  2.0885  0.2575  0.6734
15223TIP3    H267085   6.100   2.615   0.581  0.4317 -0.5050 -0.0371
15224TIP3   OH267086   3.986   3.960   1.684  0.5728  0.1395 -0.4807
15224TIP3    H167087   3.983   3.998   1.596  2.0006  0.2317 -0.5070
15224TIP3    H267088   4.072   3.983   1.717 -0.2067  0.7475  1.2590
15225TIP3   OH267089   2.527   0.787  12.099  0.0267  0.0235 -0.5679
15225TIP3    H167090   2.441   0.750  12.121 -0.3618  1.3714  0.3126
15225TIP3    H267091   2.590   0.720  12.125 -0.7837 -1.4924 -2.3444
15226TIP3   OH267092   4.483   2.651  12.522 -0.0535 -1.0298 -0.0247
15226TIP3    H167093   4.471   2.745  12.539  0.6086 -0.8785 -0.3699
15226TIP3    H267094   4.503   2.614  12.608 -1.7338 -1.1088  0.3724
15227TIP3   OH267095   5.271   5.944   0.570  0.3090 -0.1141  0.2088
15227TIP3    H167096   5.307   6.013   0.515 -2.4295 -0.6742 -2.6263
15227TIP3    H267097   5.338   5.875   0.571  0.7543  0.2235 -1.9308
15228TIP3   OH267098   1.629   0.930  16.867 -0.2337  0.3514 -0.7336
15228TIP3    H167099   1.584   1.011  16.840 -1.7037 -0.4731 -0.9018
15228TIP3    H267100   1.587   0.862  16.814  1.5688 -0.4235 -1.2116
15229TIP3   OH267101   1.848   3.601   4.416 -0.3830 -0.6524 -0.1099
15229TIP3    H167102   1.844   3.695   4.435 -1.7928 -0.7526  0.2209
15229TIP3    H267103   1.868   3.561   4.500 -2.8259 -0.8184  0.4932
15230TIP3   OH267104   6.037   1.923  13.085  0.4235 -0.3179  0.3130
15230TIP3    H167105   5.943   1.924  13.067  0.3888  1.5938  0.4037
15230TIP3    H267106   6.044   1.891  13.175 -0.2574  0.6901  0.7369
15231TIP3   OH267107   4.520   2.037   5.696  0.0815 -0.6524  0.1498
15231TIP3    H167108   4.482   1.958   5.657 -1.5664  0.2430 -0.1797
15231TIP3    H267109   4.444   2.083   5.733  1.1513  0.2539  1.2744
15232TIP3   OH267110   5.576   4.463  13.375  0.3923  0.5761 -0.0123
15232TIP3    H167111   5.664   4.500  13.364  0.8820 -0.7085 -0.5728
15232TIP3    H267112   5.519   4.521  13.325  1.4768 -0.7365 -2.9844
15233TIP3   OH267113   4.260   6.577   4.294  0.1061  0.4891  0.2675
15233TIP3    H167114   4.304   6.660   4.278 -1.0240  0.9761 -0.4594
15233TIP3    H267115   4.197   6.596   4.364  1.7897 -0.4843  2.1398
15234TIP3   OH267116   0.307   6.714  10.695  0.3928  0.4486 -0.0826
15234TIP3    H167117   0.327   6.801  10.729  1.5796  0.6375 -1.1782
15234TIP3    H267118   0.387   6.688  10.648 -0.0783 -1.0742 -0.0854
15235TIP3   OH267119   6.592   2.498  15.750  0.4172 -0.0828 -0.0177
15235TIP3    H167120   6.679   2.538  15.749  0.7969 -0.8677 -1.5916
15235TIP3    H267121   6.564   2.498  15.658 -2.8129  3.3386  0.7487
15236TIP3   OH267122   1.167   1.723   1.686  0.1460  0.7522  0.1928
15236TIP3    H167123   1.169   1.628   1.687  0.1064  0.7451 -0.4970
15236TIP3    H267124   1.159   1.747   1.594 -2.3685  1.3552  0.4909
15237TIP3   OH267125   5.037   3.994  14.871 -0.4931  0.5732 -0.4096
15237TIP3    H167126   5.025   4.001  14.776 -0.8549 -0.7134 -0.4797
15237TIP3    H267127   5.062   3.903  14.885  0.7942  1.0598  0.6215
15238TIP3   OH267128   4.306   0.178  11.951 -0.2083 -0.7126  0.2591
15238TIP3    H167129   4.289   0.217  12.037  1.1171 -0.4856  0.4417
15238TIP3    H267130   4.357   0.099  11.970  2.8203  0.9103 -0.3712
15239TIP3   OH267131   5.127   3.194  16.179 -0.2368 -0.0017  0.1814
15239TIP3    H167132   5.177   3.122  16.217  1.2741  0.2978 -1.1330
15239TIP3    H267133   5.188   3.237  16.119 -1.0256  2.5260  1.0572
15240TIP3   OH267134   3.263   1.609   2.482  0.1952  0.1557  0.1196
15240TIP3    H167135   3.197   1.678   2.474 -1.4545 -0.9306  2.9434
15240TIP3    H267136   3.318   1.637   2.555  0.2061 -0.9442  0.5508
15241TIP3   OH267137   3.567   1.904  13.499  0.4234 -0.8213  0.2079
15241TIP3    H167138   3.592   1.883  13.409  0.4591 -0.9955  0.2603
15241TIP3    H267139   3.638   1.959  13.531 -0.3431  0.5788 -0.4007
15242TIP3   OH267140   0.195   6.710  14.892  0.2196 -0.2175  0.2052
15242TIP3    H167141   0.258   6.647  14.857  1.2171 -0.3307  2.0528
15242TIP3    H267142   0.212   6.791  14.843 -0.5682 -1.1245 -1.6674
15243TIP3   OH267143   5.355   3.472   4.968  0.3443 -0.5191 -0.2497
15243TIP3    H167144   5.343   3.380   4.945  0.8195 -0.1869 -1.9864
15243TIP3    H267145   5.302   3.520   4.904  1.4497  0.4656 -0.4551
15244TIP3   OH267146   6.281   3.944   3.987 -0.0399 -0.7381  0.5778
15244TIP3    H167147   6.263   3.886   4.060  3.0696  0.2584  2.3414
15244TIP3    H267148   6.226   4.021   4.002 -0.8537 -1.3395  0.7327
15245TIP3   OH267149   3.457   0.610  15.294  0.5472  0.6331 -0.5446
15245TIP3    H167150   3.478   0.529  15.248  0.7087  0.5402 -0.3109
15245TIP3    H267151   3.542   0.653  15.307  0.4059  1.1093 -1.1580
15246TIP3   OH267152   1.962   1.138  13.423 -0.1673  0.3843 -1.0044
15246TIP3    H167153   1.882   1.090  13.442 -0.4586  1.0269 -0.5806
15246TIP3    H267154   1.995   1.099  13.342 -0.6877 -0.1575 -0.9590
15247TIP3   OH267155   2.863   3.723   3.593 -0.2732 -0.4088 -0.7147
15247TIP3    H167156   2.811   3.781   3.648  1.5970 -0.8609  1.7008
15247TIP3    H267157   2.896   3.779   3.523  0.0965  1.0836  0.5934
15248TIP3   OH267158   5.344   3.167   0.757  0.0093  0.1403  0.3770
15248TIP3    H167159   5.284   3.242   0.764 -0.5375 -0.2273 -0.2119
15248TIP3    H267160   5.286   3.091   0.749  0.5588 -0.2187 -0.2722
15249TIP3   OH267161   3.921   0.887   6.038  0.4281 -0.6865 -0.3453
15249TIP3    H167162   3.938   0.907   6.131 -0.1921 -1.4512 -0.0571
15249TIP3    H267163   3.851   0.947   6.013  1.5711  0.5137 -0.7354
15250TIP3   OH267164   3.141   0.015  11.081  0.7532  0.1337  0.4391
15250TIP3    H167165   3.156   0.050  10.993  0.3030 -0.0425  0.2893
15250TIP3    H267166   3.148  -0.080  11.071 -0.3683  0.0380  0.3633
15251TIP3   OH267167   4.494   3.235   0.845  0.2300  0.0463  0.2970
15251TIP3    H167168   4.489   3.217   0.752  0.4515  3.3822 -0.4984
15251TIP3    H267169   4.584   3.266   0.859  0.2879 -0.6610  1.6976
15252TIP3   OH267170   3.391   1.086   5.305 -0.0022 -0.2742  0.9698
15252TIP3    H167171   3.358   1.015   5.251 -1.3064  1.8275 -1.2294
15252TIP3    H267172   3.322   1.100   5.371 -0.2062 -0.4212  0.7880
15253TIP3   OH267173   6.512   6.688  13.325  0.1957  0.1645 -0.3673
15253TIP3    H167174   6.497   6.780  13.349 -0.1799  0.0918 -0.3198
15253TIP3    H267175   6.522   6.643  13.409  2.6452  0.5210 -0.4045
15254TIP3   OH267176   2.093   5.615   0.420 -0.5447  1.1787  0.0431
15254TIP3    H167177   2.176   5.622   0.374  0.0616  1.9898  1.2210
15254TIP3    H267178   2.062   5.705   0.429 -1.4262  0.9089 -0.1256
15255TIP3   OH267179   1.457   0.156   1.922 -0.0098  0.1692 -1.1429
15255TIP3    H167180   1.417   0.242   1.910 -1.7387 -0.4452 -0.1438
15255TIP3    H267181   1.520   0.168   1.993  0.9366  0.9480 -2.0974
15256TIP3   OH267182   0.637   0.912   3.514  0.6286 -0.2557  0.4748
15256TIP3    H167183   0.637   0.946   3.604 -0.1053  0.5722  0.1634
15256TIP3    H267184   0.560   0.856   3.510 -1.1669  2.1282 -0.5144
15257TIP3   OH267185   1.144   0.862  14.504  0.2286 -0.3103  0.2355
15257TIP3    H167186   1.134   0.900  14.592  0.4250 -0.1278  0.1818
15257TIP3    H267187   1.070   0.802  14.495  0.5411 -0.7734  0.7510
15258TIP3   OH267188   3.072   1.207   1.465  0.0706 -0.1870 -0.5086
15258TIP3    H167189   3.072   1.298   1.494  0.0685 -1.0598  2.6618
15258TIP3    H267190   3.162   1.177   1.483 -0.0917 -0.9582 -0.9499
15259TIP3   OH267191   1.737   0.032  16.156  0.5525  0.4521  0.8268
15259TIP3    H167192   1.671   0.034  16.225  2.6324  1.0329  2.9528
15259TIP3    H267193   1.747  -0.060  16.134  0.2211  0.2008  1.7045
15260TIP3   OH267194   1.777   5.495  13.898 -0.1134  0.3802 -0.1033
15260TIP3    H167195   1.838   5.426  13.871 -0.6113 -0.9114  1.8979
15260TIP3    H267196   1.691   5.453  13.896 -0.4279  0.9391  1.0848
15261TIP3   OH267197   2.061   3.494  17.026 -0.1227  0.1998 -0.1810
15261TIP3    H167198   2.063   3.414  17.077 -1.3583  0.2852  0.0326
15261TIP3    H267199   2.115   3.476  16.949  0.0064 -0.6548  0.1092
15262TIP3   OH267200   3.391   5.589  12.461  0.3254  0.1223 -0.1718
15262TIP3    H167201   3.396   5.672  12.416  0.2891  0.8926  1.1813
15262TIP3    H267202   3.310   5.593  12.511 -0.1321 -1.1011 -0.7900
15263TIP3   OH267203   5.279   1.775  11.267 -0.7051  0.0334 -0.7129
15263TIP3    H167204   5.299   1.701  11.210 -0.3813 -0.6234  0.2155
15263TIP3    H267205   5.219   1.829  11.217 -0.6393 -0.6629 -1.5606
15264TIP3   OH267206   2.239   1.955   5.218 -0.1076 -0.0062  0.1657
15264TIP3    H167207   2.282   2.006   5.150 -0.3565  1.8984  1.3590
15264TIP3    H267208   2.278   1.985   5.300  1.1981 -3.2102  0.8825
15265TIP3   OH267209   1.542   1.857  12.497 -0.1334 -0.1300  0.1905
15265TIP3    H167210   1.498   1.780  12.461 -1.4652  0.6688  0.0771
15265TIP3    H267211   1.472   1.910  12.534  0.8410  0.7336  0.8463
15266TIP3   OH267212   0.777   5.842   4.694 -0.6311  0.0557  0.1114
15266TIP3    H167213   0.803   5.767   4.640 -0.8690  0.4068 -0.4995
15266TIP3    H267214   0.703   5.809   4.746 -1.5390  0.1910 -1.0326
15267TIP3   OH267215   4.167   4.959   5.292  0.1612 -0.3318  0.1275
15267TIP3    H167216   4.193   4.967   5.384 -1.3969  0.6187  0.5328
15267TIP3    H267217   4.241   4.994   5.243  0.0425  1.5499  1.1741
15268TIP3   OH267218   2.073   2.742  16.794 -0.3551  0.1830 -0.6072
15268TIP3    H167219   2.103   2.723  16.705 -2.6277  0.3324 -1.4857
15268TIP3    H267220   2.116   2.677  16.849 -0.8819 -1.6283 -2.2214
15269TIP3   OH267221   6.259   1.549  13.008 -0.4205 -0.7513 -0.1932
15269TIP3    H167222   6.270   1.477  13.070  1.6051 -1.2317 -1.0098
15269TIP3    H267223   6.169   1.578  13.019 -0.4726 -1.6076  2.1001
15270TIP3   OH267224   3.145   2.545  13.874  0.4770  0.1563  0.0328
15270TIP3    H167225   3.232   2.581  13.863  0.4336  0.4621  0.6484
15270TIP3    H267226   3.153   2.453  13.848  0.8043  0.3650 -0.6175
15271TIP3   OH267227   1.535   3.226   4.179  0.0970  0.3279  0.2391
15271TIP3    H167228   1.528   3.312   4.220  0.9855  0.8998 -0.7611
15271TIP3    H267229   1.447   3.189   4.184 -0.2637  1.2507  0.7723
15272TIP3   OH267230   2.834   1.596   4.534  0.1568  0.5422 -0.2501
15272TIP3    H167231   2.778   1.566   4.462 -0.9480 -1.1953  1.2506
15272TIP3    H267232   2.910   1.539   4.530 -0.5716 -0.5541  0.7813
15273TIP3   OH267233   6.411   3.316   1.293 -0.3416  0.1085 -0.9302
15273TIP3    H167234   6.388   3.231   1.254  2.9068 -0.6782 -1.3967
15273TIP3    H267235   6.333   3.370   1.280 -2.7516 -2.8884 -0.1756
15274TIP3   OH267236   0.170   3.937   2.636  0.7362 -0.2439 -0.1440
15274TIP3    H167237   0.119   3.997   2.690  0.6525  0.0492 -0.5378
15274TIP3    H267238   0.261   3.955   2.659  0.8382  1.3961 -1.5973
15275TIP3   OH267239   6.631   1.533   4.961 -0.8199 -0.5247 -0.0217
15275TIP3    H167240   6.653   1.523   5.053  2.5585 -1.4979 -0.7830
15275TIP3    H267241   6.694   1.597   4.928 -1.6381 -0.5519 -1.7486
15276TIP3   OH267242   0.901   3.627  15.673 -0.0738 -0.0799 -0.3106
15276TIP3    H167243   0.949   3.664  15.599 -0.5775  0.3336 -0.4350
15276TIP3    H267244   0.957   3.556  15.705  0.3715  0.0546 -0.7813
15277TIP3   OH267245   4.503   5.638   3.628 -0.2824 -0.0702  0.3892
15277TIP3    H167246   4.494   5.718   3.679  0.6028  0.7131 -0.6429
15277TIP3    H267247   4.454   5.573   3.677  0.3473  0.7008  2.1186
15278TIP3   OH267248   3.078   5.606  16.874 -0.3019 -0.1852  0.1495
15278TIP3    H167249   3.043   5.671  16.935  2.0931  1.3440  0.0530
15278TIP3    H267250   3.033   5.623  16.791 -0.8541  0.2910  0.5453
15279TIP3   OH267251   3.565   6.482  14.204 -0.0936  0.0718  0.2292
15279TIP3    H167252   3.540   6.455  14.116 -0.1435 -0.1308  0.3058
15279TIP3    H267253   3.566   6.401  14.255  0.4143  0.1157  0.2985
15280TIP3   OH267254   1.796   4.110  13.872  0.3211 -0.4820  0.2956
15280TIP3    H167255   1.776   4.200  13.899  1.0394 -0.0340 -0.6259
15280TIP3    H267256   1.745   4.056  13.932 -2.9596  0.5365 -1.3451
15281TIP3   OH267257   2.570   6.044  13.326 -0.2318  0.4349  0.0330
15281TIP3    H167258   2.647   6.017  13.375 -0.5663  0.4022  0.5551
15281TIP3    H267259   2.541   6.125  13.369 -0.1053  0.8106 -0.5760
15282TIP3   OH267260   0.033   5.063  12.859 -0.2892 -0.3218 -0.2558
15282TIP3    H167261   0.123   5.052  12.828  0.0576 -0.1166  0.6738
15282TIP3    H267262  -0.011   4.982  12.833  0.6984 -1.3271  1.1124
15283TIP3   OH267263   1.697   0.603  11.495  0.2275  0.1687 -0.1864
15283TIP3    H167264   1.676   0.575  11.406  2.4576  1.4942 -1.2322
15283TIP3    H267265   1.659   0.690  11.502  0.2875  0.1750  0.0538
15284TIP3   OH267266   0.108   0.650   3.533 -0.7715  0.5341 -0.2586
15284TIP3    H167267   0.038   0.703   3.496 -0.1216 -0.1638 -2.6340
15284TIP3    H267268   0.083   0.559   3.514 -0.0083  0.1917  0.3035
15285TIP3   OH267269   0.058   1.249   3.704 -0.3537  0.3335 -0.3220
15285TIP3    H167270   0.014   1.317   3.653 -0.5532  1.5611  1.3982
15285TIP3    H267271   0.094   1.295   3.779  2.0936 -1.0034 -0.5911
15286TIP3   OH267272   3.079   5.691  15.674  0.1818  0.0907 -0.2337
15286TIP3    H167273   3.116   5.722  15.591 -0.7270  1.1498 -0.2676
15286TIP3    H267274   3.109   5.600  15.681  2.5314  0.7932 -0.3761
15287TIP3   OH267275   3.562   0.778   2.160  0.3022 -0.1889 -0.1401
15287TIP3    H167276   3.630   0.726   2.117  0.3320  0.9024 -1.4807
15287TIP3    H267277   3.580   0.868   2.133  0.4941  0.6266  2.4287
15288TIP3   OH267278   5.402   4.651  15.142  0.2768  0.0202  0.4057
15288TIP3    H167279   5.490   4.622  15.119  0.9532  0.7719  1.9317
15288TIP3    H267280   5.410   4.746  15.152 -0.8582  0.1768 -0.0274
15289TIP3   OH267281   0.793   0.309  15.910  0.4825  0.4138 -0.2385
15289TIP3    H167282   0.725   0.352  15.857  0.0888 -0.3173 -0.3468
15289TIP3    H267283   0.763   0.320  16.000 -0.5432 -1.0958 -0.3457
15290TIP3   OH267284   4.710   3.947   4.976  0.2859 -0.1323  0.1894
15290TIP3    H167285   4.681   4.029   5.016  0.3023 -0.6770  1.3480
15290TIP3    H267286   4.689   3.957   4.883 -1.2334  0.5297  0.5804
15291TIP3   OH267287   1.844   5.363  11.565  0.0026  0.4451 -0.1411
15291TIP3    H167288   1.806   5.290  11.615  0.8010 -0.5279 -0.9014
15291TIP3    H267289   1.937   5.361  11.588 -0.0288  1.5006  0.1357
15292TIP3   OH267290   2.436   6.140   0.945  0.1055  0.6631  0.3213
15292TIP3    H167291   2.380   6.121   0.870 -0.2705 -0.2962  0.8289
15292TIP3    H267292   2.375   6.157   1.017  0.4589  0.1762  0.7408
15293TIP3   OH267293   1.773   0.270  17.296 -0.4753  0.0320 -0.0443
15293TIP3    H167294   1.677   0.268  17.299 -0.4720 -2.4642  0.1984
15293TIP3    H267295   1.795   0.241  17.207  0.0563 -0.5193  0.2633
15294TIP3   OH267296   0.524   3.791   3.275 -0.8988  0.4522 -0.1516
15294TIP3    H167297   0.547   3.740   3.197 -0.5511 -0.8861  0.7808
15294TIP3    H267298   0.543   3.881   3.251  0.3221 -0.0516 -1.2159
15295TIP3   OH267299   6.051   6.580  14.404  0.2876  0.6390  0.0152
15295TIP3    H167300   5.994   6.599  14.478  0.4991  0.7841  0.1427
15295TIP3    H267301   6.138   6.611  14.432  0.8573 -1.3334  0.5910
15296TIP3   OH267302   4.431   6.704  12.055  0.3925  0.8625 -0.2729
15296TIP3    H167303   4.382   6.694  12.137  0.4902  0.6600 -0.2389
15296TIP3    H267304   4.523   6.704  12.081  0.4477  0.1611 -0.4432
15297TIP3   OH267305   0.828   0.637   5.371  0.2857  0.3719  0.5353
15297TIP3    H167306   0.851   0.720   5.413 -1.1348  1.5572 -0.8979
15297TIP3    H267307   0.887   0.632   5.295  0.2419  0.1751  0.5152
15298TIP3   OH267308   5.626   0.710  12.755  0.2464  0.1432 -0.4037
15298TIP3    H167309   5.712   0.733  12.720 -0.5110  1.0974 -1.6841
15298TIP3    H267310   5.586   0.654  12.688 -0.3837  0.2123 -0.0941
15299TIP3   OH267311   6.323   0.202  10.973 -0.0101  0.7413  0.2635
15299TIP3    H167312   6.307   0.295  10.964  0.9070  1.1080  1.9507
15299TIP3    H267313   6.239   0.165  10.998 -0.9395  0.7009 -2.5617
15300TIP3   OH267314   5.414   2.722   4.324  0.1661  0.4340  0.2073
15300TIP3    H167315   5.320   2.730   4.307  0.2281 -0.1057 -0.4279
15300TIP3    H267316   5.425   2.634   4.360  0.3400  0.7567  0.9591
15301TIP3   OH267317   6.541   0.002  15.200  0.0866  0.7468  0.3968
15301TIP3    H167318   6.575  -0.052  15.129  0.9760 -1.2413  2.1840
15301TIP3    H267319   6.453   0.026  15.173 -0.0054 -0.8881 -0.9198
15302TIP3   OH267320   1.993   6.331   5.671  0.0167  0.4714 -0.4453
15302TIP3    H167321   1.983   6.299   5.581  0.0863  0.1676 -0.3462
15302TIP3    H267322   2.087   6.348   5.680  0.0502  0.2288 -0.3383
15303TIP3   OH267323   6.237   2.233   4.705  0.1209  0.3455  0.1088
15303TIP3    H167324   6.331   2.215   4.703 -0.2213 -1.6640  0.3551
15303TIP3    H267325   6.229   2.310   4.761  1.5146 -0.2253  1.1468
15304TIP3   OH267326   3.411   5.824   1.304 -0.4784 -0.4864  0.2280
15304TIP3    H167327   3.411   5.877   1.384 -1.1154 -0.5727  0.2902
15304TIP3    H267328   3.319   5.815   1.281 -0.3500 -1.1623 -0.0521
15305TIP3   OH267329   3.039   4.888   2.930 -0.1854  0.6358  0.7296
15305TIP3    H167330   3.026   4.804   2.974  0.7743  0.2288  0.2663
15305TIP3    H267331   3.099   4.868   2.859 -1.0323  1.4521 -0.2430
15306TIP3   OH267332   3.646   2.228  14.823  0.1835 -0.8132 -0.2974
15306TIP3    H167333   3.575   2.190  14.874 -0.3046  0.4572  0.0010
15306TIP3    H267334   3.723   2.220  14.879 -0.1458 -0.3428  0.2250
15307TIP3   OH267335   5.635   2.036  16.654  0.2151 -0.0531  0.2132
15307TIP3    H167336   5.674   1.951  16.676  2.0559  0.7905  0.3360
15307TIP3    H267337   5.543   2.015  16.635  0.6098 -2.0652  0.2511
15308TIP3   OH267338   2.384   3.122   2.244 -0.2986 -0.0240  0.6199
15308TIP3    H167339   2.415   3.071   2.319 -2.6351 -0.5023  1.3463
15308TIP3    H267340   2.404   3.213   2.266  1.0905 -0.3480  0.7494
15309TIP3   OH267341   6.700   4.817  12.782 -0.1015 -0.7014  0.0243
15309TIP3    H167342   6.728   4.782  12.698  0.8663 -3.4277  1.3783
15309TIP3    H267343   6.616   4.774  12.799  0.0666 -0.7412  0.7837
15310TIP3   OH267344   6.538   5.764  13.166 -0.1821 -0.1395 -0.0107
15310TIP3    H167345   6.528   5.709  13.088 -1.5111  0.1794 -0.0927
15310TIP3    H267346   6.448   5.788  13.189  0.0532 -1.2398  2.3387
15311TIP3   OH267347   5.589   4.066  15.069  0.7679 -0.6965 -0.1257
15311TIP3    H167348   5.650   4.137  15.051  1.3836 -1.4082 -0.9653
15311TIP3    H267349   5.578   4.021  14.985  1.1944 -2.1983  0.5751
15312TIP3   OH267350   1.002   2.147  15.018 -0.5385  0.0061 -0.2989
15312TIP3    H167351   1.040   2.074  15.067 -0.5704 -0.2085 -0.5928
15312TIP3    H267352   0.954   2.198  15.084 -1.4614 -0.8517 -0.2827
15313TIP3   OH267353   0.764   5.491  13.907  0.3274  0.1831  0.2862
15313TIP3    H167354   0.809   5.497  13.822 -0.7378  0.2007 -0.2951
15313TIP3    H267355   0.747   5.582  13.932  1.7683  0.2469  1.1702
15314TIP3   OH267356   5.119   3.315  11.062 -0.4184  0.3888 -0.4286
15314TIP3    H167357   5.029   3.283  11.049  0.2612 -1.8225 -0.0997
15314TIP3    H267358   5.154   3.260  11.132  0.3844  3.0018  1.3756
15315TIP3   OH267359   2.137   1.359  16.186  0.9150  0.2434 -0.1914
15315TIP3    H167360   2.222   1.327  16.160  0.8067 -0.4977  0.3365
15315TIP3    H267361   2.134   1.449  16.153  1.0764 -0.3764 -2.0091
15316TIP3   OH267362   5.277   4.281  17.320 -0.2526  0.0953 -0.3288
15316TIP3    H167363   5.297   4.258  17.411  1.3521 -0.3390 -0.7454
15316TIP3    H267364   5.293   4.375  17.315  0.1175  0.0375 -0.2647
15317TIP3   OH267365   3.845   6.431   1.291 -0.2134  1.0743  0.5750
15317TIP3    H167366   3.916   6.389   1.340 -0.7630  0.9852  1.3159
15317TIP3    H267367   3.824   6.369   1.221 -0.3669  0.5501  1.0808
15318TIP3   OH267368   5.169   2.465   0.143 -0.4213 -0.4356  0.4398
15318TIP3    H167369   5.224   2.405   0.092 -0.8410 -1.1486  0.8289
15318TIP3    H267370   5.088   2.418   0.157 -0.8974  0.3643  0.4463
15319TIP3   OH267371   1.918   5.559   1.462 -0.1957  0.0708 -0.1725
15319TIP3    H167372   1.977   5.628   1.431 -0.0006  0.2083  0.4828
15319TIP3    H267373   1.945   5.481   1.414  0.8879  0.0108  0.4975
15320TIP3   OH267374   5.482   2.207  11.373 -0.0550  0.5169  0.3067
15320TIP3    H167375   5.427   2.155  11.431 -1.6098  3.8362  2.0668
15320TIP3    H267376   5.563   2.221  11.423 -0.2459  1.0065  0.4840
15321TIP3   OH267377   1.067   0.203   6.113  0.1614 -0.1160 -0.4514
15321TIP3    H167378   0.980   0.229   6.082 -0.3700  0.6437  1.5216
15321TIP3    H267379   1.108   0.284   6.143  0.8125 -0.7214  0.3693
15322TIP3   OH267380   3.647   1.360  15.875  0.0681  0.1607  0.8428
15322TIP3    H167381   3.670   1.280  15.827  1.0322  0.0882  1.3972
15322TIP3    H267382   3.710   1.363  15.947 -1.0407  0.5190  1.8264
15323TIP3   OH267383   3.623   2.747  12.922 -0.1407 -0.3580 -0.4024
15323TIP3    H167384   3.630   2.751  13.018  1.2093  0.4814 -0.5121
15323TIP3    H267385   3.555   2.681  12.906 -2.0979  1.1319  1.1646
15324TIP3   OH267386   2.874   0.019   2.153 -0.2341  0.5019 -0.2541
15324TIP3    H167387   2.782  -0.005   2.165 -0.1614 -0.3091 -1.1962
15324TIP3    H267388   2.882   0.105   2.193 -1.1274  0.0669  0.8970
15325TIP3   OH267389   5.984   5.139   5.210  0.1221  0.6430  0.4403
15325TIP3    H167390   5.963   5.210   5.270 -0.6919  0.3481  0.5122
15325TIP3    H267391   6.079   5.130   5.217  0.1244  1.0870  1.1431
15326TIP3   OH267392   4.545   1.294  13.009 -0.7650 -0.2837  0.7394
15326TIP3    H167393   4.627   1.341  13.027 -0.3920 -1.1206  1.2581
15326TIP3    H267394   4.573   1.205  12.986 -1.5128 -0.4882  0.6050
15327TIP3   OH267395   0.155   2.494  11.299  0.0825  0.1077 -0.0117
15327TIP3    H167396   0.237   2.542  11.286  0.3085 -0.6834 -1.8715
15327TIP3    H267397   0.091   2.541  11.247 -0.0064 -0.7794 -0.7355
15328TIP3   OH267398   4.622   0.837  11.649 -0.0661 -0.2843  0.7486
15328TIP3    H167399   4.710   0.798  11.654  0.5017  0.9005  0.3139
15328TIP3    H267400   4.570   0.772  11.601  0.8887 -0.4738 -0.0755
15329TIP3   OH267401   3.778   0.492  16.388  0.5398  0.4896  0.0495
15329TIP3    H167402   3.794   0.513  16.480 -1.9220  1.4624  0.3441
15329TIP3    H267403   3.701   0.435  16.390  0.9475 -0.1555 -1.3957
15330TIP3   OH267404   0.118   5.294   4.048  0.1919  0.5788 -0.8410
15330TIP3    H167405   0.115   5.343   3.965  0.1032 -1.3088 -2.0154
15330TIP3    H267406   0.103   5.203   4.022  0.8723 -0.1576  1.1909
15331TIP3   OH267407   2.537   0.659  13.173 -0.2522 -0.0732  0.2188
15331TIP3    H167408   2.451   0.678  13.210 -0.0115  0.1080  0.6940
15331TIP3    H267409   2.519   0.604  13.097 -0.8624  0.9584 -0.3930
15332TIP3   OH267410   1.280   1.303  11.938  0.2099  0.4110  0.6493
15332TIP3    H167411   1.348   1.254  11.985 -1.3749  0.5681  3.3086
15332TIP3    H267412   1.208   1.241  11.931 -0.2046  0.9662 -0.0547
15333TIP3   OH267413   3.406   1.959   4.704 -0.4687 -0.5047 -0.3885
15333TIP3    H167414   3.459   1.888   4.667 -0.1212  0.3899 -1.6944
15333TIP3    H267415   3.441   1.972   4.791  2.3610  0.8512 -1.6125
15334TIP3   OH267416   0.326   1.244  11.933 -0.3419  0.0799  0.2612
15334TIP3    H167417   0.340   1.150  11.920  0.6077  0.4107 -1.4427
15334TIP3    H267418   0.249   1.265  11.879 -0.4300  0.3190  0.4762
15335TIP3   OH267419   2.275   0.504  14.708  0.0735  0.5017 -0.8478
15335TIP3    H167420   2.275   0.410  14.722 -0.5605  0.6980  0.6232
15335TIP3    H267421   2.197   0.535  14.754  1.4964  2.0158  0.6628
15336TIP3   OH267422   4.579   0.751  13.354  0.0116 -0.2313 -0.5921
15336TIP3    H167423   4.620   0.815  13.297  1.5154 -1.1123 -0.5494
15336TIP3    H267424   4.647   0.727  13.417 -0.4262 -2.0284 -0.7488
15337TIP3   OH267425   3.867   4.372   2.484  0.2454 -0.1985 -0.1764
15337TIP3    H167426   3.825   4.368   2.398 -0.4761  0.1938  0.1431
15337TIP3    H267427   3.836   4.293   2.529  0.6564 -0.4255 -0.2933
15338TIP3   OH267428   5.269   2.203   4.723 -0.3638  0.6345  0.2250
15338TIP3    H167429   5.223   2.225   4.642 -0.0531 -0.6263 -0.3171
15338TIP3    H267430   5.219   2.131   4.761  0.2027  0.3765  0.4973
15339TIP3   OH267431   0.665   5.662  11.019  0.1073 -0.6496 -0.3090
15339TIP3    H167432   0.712   5.729  11.068 -0.7910  0.0347 -0.3544
15339TIP3    H267433   0.597   5.710  10.972 -1.5896 -1.7366  0.9038
15340TIP3   OH267434   0.620   3.069   4.233 -0.8727 -0.6251 -0.1679
15340TIP3    H167435   0.634   3.141   4.294 -2.5288 -1.7870  1.6912
15340TIP3    H267436   0.693   3.075   4.171 -0.9046  2.5400 -0.0329
15341TIP3   OH267437   2.523   5.749  14.986  0.0857 -0.0932 -0.0078
15341TIP3    H167438   2.518   5.686  15.058 -0.3355  0.9265  0.8846
15341TIP3    H267439   2.458   5.718  14.923  0.2816 -0.8613  0.1618
15342TIP3   OH267440   0.422   0.509  12.496  0.3584 -0.3395  0.5383
15342TIP3    H167441   0.372   0.432  12.524  0.4882 -0.2194  1.1141
15342TIP3    H267442   0.458   0.545  12.577  2.0694 -0.8923  0.0738
15343TIP3   OH267443   6.690   1.108  12.341  0.1569 -0.1577  0.3570
15343TIP3    H167444   6.690   1.171  12.269  1.2273 -1.0976 -0.5019
15343TIP3    H267445   6.750   1.039  12.313  0.8296 -0.4191  2.2781
15344TIP3   OH267446   2.991   3.622   1.257  0.0588 -0.1077  0.5106
15344TIP3    H167447   3.063   3.675   1.289 -0.1169  0.2409  0.3309
15344TIP3    H267448   2.930   3.616   1.331 -0.1502  0.3493  0.3793
15345TIP3   OH267449   4.034   1.115  15.514 -0.0075 -0.2506 -0.1330
15345TIP3    H167450   4.041   1.209  15.493  3.3876 -0.3020  0.0767
15345TIP3    H267451   4.026   1.073  15.428  0.8669  0.1510 -0.4266
15346TIP3   OH267452   1.932   2.262   3.904 -0.2084  0.4543 -0.0653
15346TIP3    H167453   1.925   2.265   3.999  0.7319 -1.0077  0.0663
15346TIP3    H267454   1.932   2.354   3.877  2.4033  1.0349  1.5895
15347TIP3   OH267455   4.542   4.902   2.376 -0.0204 -0.5537 -0.9075
15347TIP3    H167456   4.602   4.964   2.419 -1.8581 -0.6442  2.0291
15347TIP3    H267457   4.513   4.949   2.298 -0.4231  1.9122  0.5876
15348TIP3   OH267458   0.199   5.871  15.470 -0.4894 -0.4006  0.0955
15348TIP3    H167459   0.176   5.897  15.381 -0.9260 -1.6407 -0.1723
15348TIP3    H267460   0.116   5.844  15.509 -0.5753  1.5774  1.4148
15349TIP3   OH267461   5.205   0.814   3.100  0.0040  0.1057 -0.4711
15349TIP3    H167462   5.141   0.863   3.152 -1.2778 -0.7045 -1.2314
15349TIP3    H267463   5.268   0.880   3.070 -2.0515  1.4936 -2.0341
15350TIP3   OH267464   5.434   0.895  11.040  0.0790 -0.1842  0.4710
15350TIP3    H167465   5.467   0.939  10.962  0.6446 -2.5824 -0.7634
15350TIP3    H267466   5.340   0.883  11.024  0.1331 -0.3866  0.3037
15351TIP3   OH267467   6.535   0.826  12.336  0.1526  0.1995  0.2747
15351TIP3    H167468   6.605   0.762  12.319 -1.2711 -1.3341 -0.0204
15351TIP3    H267469   6.497   0.799  12.419  0.2064  1.3152  0.6691
15352TIP3   OH267470   6.575   6.430   1.749  0.2480  0.6489  0.3075
15352TIP3    H167471   6.613   6.509   1.785 -0.0439  1.5631 -1.2942
15352TIP3    H267472   6.538   6.457   1.664  0.8504 -1.3533 -0.6652
15353TIP3   OH267473   5.816   2.533   0.831  0.9288  0.3548  0.0257
15353TIP3    H167474   5.912   2.524   0.833  0.8718 -0.1418  0.9961
15353TIP3    H267475   5.792   2.552   0.922  0.1357  0.8403 -0.2796
15354TIP3   OH267476   0.271   6.020   5.223  0.2418 -0.4569 -0.1638
15354TIP3    H167477   0.248   6.113   5.221  0.2817 -0.4585 -0.8559
15354TIP3    H267478   0.313   6.003   5.139  1.6525 -0.7546  0.5653
15355TIP3   OH267479   6.700   3.997   3.848 -0.3000 -0.4450 -0.2265
15355TIP3    H167480   6.687   3.903   3.839 -0.4114 -0.4572  0.0390
15355TIP3    H267481   6.617   4.029   3.884 -0.2075 -0.2690 -0.1685
15356TIP3   OH267482   5.182   6.039   4.019  0.3358  0.4983 -0.2254
15356TIP3    H167483   5.101   6.054   4.067 -0.3581 -2.1449 -0.4152
15356TIP3    H267484   5.167   6.080   3.933 -0.5713  0.5039 -0.0718
15357TIP3   OH267485   6.509   1.041  13.932 -0.4340 -0.0968 -0.5072
15357TIP3    H167486   6.483   0.972  13.871 -0.3545 -0.4907 -0.1098
15357TIP3    H267487   6.431   1.094  13.944 -1.3079 -1.6017  1.1193
15358TIP3   OH267488   3.103   5.882  15.059  0.6397  0.4389  0.8264
15358TIP3    H167489   3.056   5.839  15.130  0.1859 -0.3435  0.0663
15358TIP3    H267490   3.042   5.950  15.028  1.1052  1.2429  1.6050
15359TIP3   OH267491   5.123   2.917   0.316  0.3647  0.3032 -0.3133
15359TIP3    H167492   5.169   2.998   0.291 -0.0245  0.5254 -0.3082
15359TIP3    H267493   5.187   2.848   0.297  1.4189  0.7298  1.4515
15360TIP3   OH267494   5.343   3.306   1.686 -0.0078  0.0922  0.0854
15360TIP3    H167495   5.405   3.360   1.736  0.5385 -1.0155  0.6307
15360TIP3    H267496   5.258   3.323   1.728  0.2769 -0.0289  0.7251
15361TIP3   OH267497   0.960   2.509  12.383  0.1922  0.0825 -0.4018
15361TIP3    H167498   0.920   2.596  12.387 -0.0293 -0.0617  0.8181
15361TIP3    H267499   0.935   2.475  12.297 -0.5858  0.8065 -0.4725
15362TIP3   OH267500   2.766   1.165   4.477  0.2761 -0.0742  0.0009
15362TIP3    H167501   2.738   1.095   4.418 -0.2342 -2.4182  2.7920
15362TIP3    H267502   2.853   1.139   4.506  0.2129  0.6134  0.8424
15363TIP3   OH267503   5.387   2.608  11.339  0.0138 -0.3060  0.1541
15363TIP3    H167504   5.326   2.664  11.292 -0.5962 -0.2384  0.9872
15363TIP3    H267505   5.388   2.526  11.290  0.9116  0.4121 -1.0709
15364TIP3   OH267506   6.002   5.061   3.336 -0.4077 -0.1419 -0.0352
15364TIP3    H167507   6.008   5.155   3.323 -0.3749 -0.0796  0.4122
15364TIP3    H267508   6.084   5.026   3.301 -0.6232 -0.0571 -0.6379
15365TIP3   OH267509   1.511   1.974  17.315 -0.0605  0.4149 -0.3367
15365TIP3    H167510   1.433   1.948  17.267 -0.9212 -0.3933  1.4428
15365TIP3    H267511   1.569   1.897  17.310 -0.0138  0.4500 -0.3384
15366TIP3   OH267512   0.403   4.667  16.118  0.3511 -0.0705 -0.6346
15366TIP3    H167513   0.462   4.743  16.113  0.8872 -0.5065 -1.0102
15366TIP3    H267514   0.316   4.706  16.128  0.7780  0.5705  0.8687
15367TIP3   OH267515   5.008   6.428   5.322 -0.0305 -0.1538  1.0810
15367TIP3    H167516   5.060   6.378   5.385  0.8435  0.6281  1.0005
15367TIP3    H267517   4.985   6.364   5.255  2.3553 -0.1902  0.1981
15368TIP3   OH267518   2.083   6.148  11.833 -0.3899  0.2859 -0.6191
15368TIP3    H167519   1.999   6.125  11.874 -0.3780 -0.8002 -1.1582
15368TIP3    H267520   2.095   6.081  11.765  0.8701  0.4884 -0.6119
15369TIP3   OH267521   3.518   5.343   1.439  0.4455 -0.4238  0.3281
15369TIP3    H167522   3.568   5.345   1.521 -1.6176  0.6179  1.6406
15369TIP3    H267523   3.452   5.411   1.449 -0.7855 -1.2375 -1.6279
15370TIP3   OH267524   4.786   5.126   3.186 -0.2800  0.6924  0.5171
15370TIP3    H167525   4.715   5.189   3.197 -1.5677 -0.7257  0.6604
15370TIP3    H267526   4.762   5.053   3.243  1.9094  0.6632  1.4628
15371TIP3   OH267527   2.410   5.153  11.930  0.1186  0.0850 -0.1695
15371TIP3    H167528   2.386   5.170  12.021  1.5591  0.4508  0.1820
15371TIP3    H267529   2.404   5.058  11.921 -1.0363  0.1377 -0.0023
15372TIP3   OH267530   1.075   2.972   2.128 -0.3692 -0.5879 -0.1139
15372TIP3    H167531   1.145   3.026   2.164  0.1930  0.5197 -2.6120
15372TIP3    H267532   0.995   3.010   2.165  0.2194 -0.5279  1.1463
15373TIP3   OH267533   4.688   1.790   0.917 -0.3968  0.2584  0.1888
15373TIP3    H167534   4.764   1.849   0.920  0.5659 -0.9438  0.4756
15373TIP3    H267535   4.656   1.797   0.827 -0.1951  1.0980  0.1778
15374TIP3   OH267536   1.781   2.493   3.997  0.0677 -0.0482  0.0587
15374TIP3    H167537   1.724   2.440   3.941 -0.0586  0.0212  0.1228
15374TIP3    H267538   1.729   2.510   4.075  0.7162 -1.2790  0.7892
15375TIP3   OH267539   6.273   2.721  11.138 -0.5499 -0.5288  0.2940
15375TIP3    H167540   6.299   2.813  11.137  0.6893 -0.8135  2.0040
15375TIP3    H267541   6.274   2.695  11.046  1.2858  0.6018 -0.0635
15376TIP3   OH267542   3.084   0.183   4.658 -0.1947  0.3168 -0.0493
15376TIP3    H167543   3.107   0.254   4.598  0.2463 -1.0852 -1.6243
15376TIP3    H267544   2.995   0.204   4.686  0.0862  1.7165 -0.1221
15377TIP3   OH267545   1.922   3.482  11.708 -0.5688 -0.1794  0.0314
15377TIP3    H167546   1.966   3.562  11.679 -1.0498 -0.0444 -0.3553
15377TIP3    H267547   1.910   3.432  11.627 -2.1644  0.3127 -0.0631
15378TIP3   OH267548   0.277   4.422  10.661 -0.8348 -0.5400  0.1341
15378TIP3    H167549   0.260   4.368  10.738  1.2341 -2.1523 -0.4698
15378TIP3    H267550   0.315   4.502  10.696 -1.3017 -0.6301  0.8715
15379TIP3   OH267551   6.678   1.035   2.147  0.4834 -0.0054  0.1042
15379TIP3    H167552   6.767   1.021   2.179  0.4132 -0.0479  0.2845
15379TIP3    H267553   6.683   1.114   2.094  0.3696  0.7659  1.2043
15380TIP3   OH267554   4.844   5.878   3.872  0.0414 -0.0236  0.0679
15380TIP3    H167555   4.845   5.920   3.958  0.0892 -0.7882  0.4477
15380TIP3    H267556   4.862   5.949   3.810  0.6611  0.4137  0.7365
15381TIP3   OH267557   5.269   0.147   0.117  0.2616 -0.8394  0.2906
15381TIP3    H167558   5.288   0.102   0.199  0.3179  0.8177  1.2387
15381TIP3    H267559   5.177   0.125   0.099  0.3587 -1.5211  0.5929
15382TIP3   OH267560   1.660   1.073  14.611  0.4819  0.7020  0.1610
15382TIP3    H167561   1.754   1.074  14.628  0.4150  0.3748  0.5806
15382TIP3    H267562   1.623   1.022  14.684 -0.0938  1.4452  0.3977
15383TIP3   OH267563   0.269   0.586  15.302 -0.2325  0.2267  0.4579
15383TIP3    H167564   0.207   0.516  15.283 -0.7860  1.0262 -0.8161
15383TIP3    H267565   0.300   0.614  15.216  1.2530  0.4318  1.0327
15384TIP3   OH267566   6.709   2.787   5.714 -0.6934  0.2894  0.2342
15384TIP3    H167567   6.693   2.830   5.630  2.6524 -0.9772 -1.2224
15384TIP3    H267568   6.790   2.826   5.746 -0.2693 -1.4015  1.3446
15385TIP3   OH267569   6.030   4.122   5.596  0.1149 -0.3068 -0.1566
15385TIP3    H167570   5.955   4.088   5.546 -0.2294 -0.7612  0.6587
15385TIP3    H267571   6.106   4.081   5.555  0.1038  1.4010 -2.0585
15386TIP3   OH267572   3.343   0.759  17.336 -0.9806 -0.4224 -0.5353
15386TIP3    H167573   3.427   0.770  17.292 -0.0342 -0.9417  1.0508
15386TIP3    H267574   3.279   0.752  17.265  0.2330  0.4741 -1.7688
15387TIP3   OH267575   1.964   2.134  11.422  0.0316 -0.1058  0.1889
15387TIP3    H167576   2.001   2.046  11.413 -0.1948 -0.4472  2.1809
15387TIP3    H267577   1.954   2.147  11.516  1.2920  2.5852  0.0697
15388TIP3   OH267578   5.701   6.273  14.473  0.0727 -0.2264  0.4695
15388TIP3    H167579   5.759   6.203  14.443 -1.1629 -0.7490 -0.8097
15388TIP3    H267580   5.749   6.314  14.546  3.1670  0.9519 -1.9808
15389TIP3   OH267581   4.561   3.130   3.992 -0.0477  0.0399  0.9652
15389TIP3    H167582   4.604   3.055   4.032 -0.4784 -0.8870 -0.2455
15389TIP3    H267583   4.584   3.124   3.899 -1.2752  0.5625  0.5996
15390TIP3   OH267584   0.727   5.793  16.894  0.4110 -0.9069 -0.2446
15390TIP3    H167585   0.766   5.724  16.841  2.4613  0.1956 -0.2630
15390TIP3    H267586   0.802   5.838  16.934 -0.9769 -0.5883  2.1936
15391TIP3   OH267587   3.771   2.409   4.282  0.0983  0.3762 -0.1936
15391TIP3    H167588   3.762   2.320   4.316  0.3708 -0.9987 -3.3538
15391TIP3    H267589   3.686   2.427   4.241  0.6481  0.8187 -1.1603
15392TIP3   OH267590   4.155   4.090   3.119  0.2892 -0.2465 -0.0134
15392TIP3    H167591   4.196   4.008   3.093  0.2744 -0.3549  0.3013
15392TIP3    H267592   4.150   4.085   3.214 -1.5000 -0.7282 -0.0989
15393TIP3   OH267593   1.214   1.142   1.730  0.4832  1.0063  0.7454
15393TIP3    H167594   1.275   1.189   1.673 -0.2312 -0.0898 -1.0174
15393TIP3    H267595   1.252   1.055   1.738  0.4504  1.0822  1.7989
15394TIP3   OH267596   2.423   0.986  15.079 -0.6224 -0.4517  0.2893
15394TIP3    H167597   2.366   1.030  15.142  0.2768 -0.1415  0.8953
15394TIP3    H267598   2.474   1.056  15.039 -0.7606 -0.7139 -0.3528
15395TIP3   OH267599   3.012   3.364   0.134  0.1617  0.2075 -0.7744
15395TIP3    H167600   2.974   3.305   0.200 -0.5442  0.9850 -0.4637
15395TIP3    H267601   3.015   3.311   0.054  2.7265 -1.3579  0.2341
15396TIP3   OH267602   6.700   1.275   1.338 -0.4586 -0.3986  0.4306
15396TIP3    H167603   6.617   1.309   1.306 -0.7455  0.5095  2.0106
15396TIP3    H267604   6.746   1.352   1.372  1.3686 -0.7688 -1.0378
15397TIP3   OH267605   2.002   1.991  11.056 -0.2095  0.5408 -0.4793
15397TIP3    H167606   2.082   1.980  11.106 -0.3624 -0.1111 -0.3707
15397TIP3    H267607   2.030   1.983  10.964 -0.3342 -1.1037 -0.4132
15398TIP3   OH267608   2.599   5.370   0.992  0.7113  0.1065 -0.0828
15398TIP3    H167609   2.618   5.428   1.066 -0.7633 -0.4084  0.7579
15398TIP3    H267610   2.629   5.418   0.915  2.2459  0.6801  0.8270
15399TIP3   OH267611   1.665   3.045  15.804  0.7643 -0.5181  0.2032
15399TIP3    H167612   1.707   3.105  15.742  0.2581  0.8943  1.1804
15399TIP3    H267613   1.576   3.036  15.771  1.1139 -1.5588 -0.4990
15400TIP3   OH267614   0.024   2.720  10.715  0.6523  0.0620  0.1670
15400TIP3    H167615  -0.019   2.640  10.744  0.1681  0.7455  1.4129
15400TIP3    H267616   0.099   2.691  10.664  1.5356 -1.2274  2.0887
15401TIP3   OH267617   0.231   0.575   1.297  0.2466 -0.6659 -0.4587
15401TIP3    H167618   0.213   0.619   1.213  0.7690 -0.9620 -0.7296
15401TIP3    H267619   0.326   0.562   1.297  0.5301  1.0219  1.0312
15402TIP3   OH267620   4.839   5.549   2.904  1.1015 -0.4913  0.1331
15402TIP3    H167621   4.876   5.616   2.962 -0.4504 -0.4078  1.0804
15402TIP3    H267622   4.888   5.469   2.925  1.5541 -0.1235  0.4920
15403TIP3   OH267623   6.417   5.689   0.684  0.3224 -0.0571 -0.1630
15403TIP3    H167624   6.382   5.601   0.671  1.7119 -0.8523  1.1729
15403TIP3    H267625   6.418   5.727   0.596 -0.3887 -1.3263 -0.7522
15404TIP3   OH267626   3.859   3.090   1.662 -0.1512 -0.5847 -0.0453
15404TIP3    H167627   3.826   3.050   1.742 -0.2980 -0.6359 -0.1323
15404TIP3    H267628   3.936   3.037   1.639 -0.8987 -1.4233 -0.6935
15405TIP3   OH267629   6.668   0.316  11.920 -0.1062  0.4652 -0.2785
15405TIP3    H167630   6.652   0.225  11.897  1.0964 -0.0654  0.8691
15405TIP3    H267631   6.583   0.348  11.950 -0.6403 -0.1360 -1.1146
15406TIP3   OH267632   1.826   2.991   2.543  0.0142 -0.1469  0.5375
15406TIP3    H167633   1.866   2.912   2.580  1.0545 -0.1344 -0.5237
15406TIP3    H267634   1.877   3.009   2.464  0.3965  2.1260  1.2431
15407TIP3   OH267635   1.359   4.105   4.560 -0.3677  0.1487 -0.0712
15407TIP3    H167636   1.424   4.105   4.490 -0.7510 -0.2775 -0.4324
15407TIP3    H267637   1.377   4.025   4.608 -1.0691 -0.3274 -0.5924
15408TIP3   OH267638   4.133   5.354  16.085  0.4193  0.5964  0.3451
15408TIP3    H167639   4.211   5.392  16.126 -0.4198  0.7051  1.9254
15408TIP3    H267640   4.156   5.263  16.068  0.8992  0.6360  0.7647
15409TIP3   OH267641   3.367   5.436   2.471  0.5360 -0.4075 -0.6313
15409TIP3    H167642   3.373   5.343   2.492  3.0996 -0.8630 -2.8062
15409TIP3    H267643   3.458   5.467   2.471 -0.1560  1.8585 -0.9905
15410TIP3   OH267644   3.923   5.267   1.905  0.3617  0.1316 -0.2060
15410TIP3    H167645   3.900   5.308   1.822  0.6410  0.5224 -0.0972
15410TIP3    H267646   3.950   5.341   1.961  2.1376 -0.3154 -0.4043
15411TIP3   OH267647   0.293   2.080  14.086 -0.5235  0.0663  0.8269
15411TIP3    H167648   0.286   2.021  14.011  3.2346 -0.7374  0.9516
15411TIP3    H267649   0.249   2.160  14.057  0.5491 -0.2975 -2.1907
15412TIP3   OH267650   3.399   6.234   6.014 -0.6190  0.4888  0.3505
15412TIP3    H167651   3.392   6.273   5.926  0.9369  0.4696  0.1891
15412TIP3    H267652   3.490   6.205   6.020 -0.8513 -0.0240  1.7738
15413TIP3   OH267653   0.904   3.317  16.008  0.1749 -0.4540 -0.5649
15413TIP3    H167654   0.988   3.301  16.051 -0.3178  0.4795  0.8111
15413TIP3    H267655   0.857   3.234  16.016 -0.1532 -0.1411  1.3498
15414TIP3   OH267656   0.651   1.454   4.527 -0.1988  0.9001  0.5898
15414TIP3    H167657   0.580   1.402   4.564 -0.4760  0.2247 -0.8294
15414TIP3    H267658   0.729   1.429   4.577 -0.6900  0.5847  1.2057
15415TIP3   OH267659   2.766   6.714   2.453 -0.1164 -0.7433  0.1630
15415TIP3    H167660   2.722   6.777   2.396 -1.6061 -0.4550  1.5576
15415TIP3    H267661   2.775   6.635   2.400 -0.4692 -0.1471 -0.8088
15416TIP3   OH267662   4.042   3.212   2.122 -0.2553 -0.1365 -0.0062
15416TIP3    H167663   4.033   3.268   2.199 -4.7471 -1.1992  0.5441
15416TIP3    H267664   4.008   3.264   2.050 -0.2007 -0.6036 -0.3750
15417TIP3   OH267665   5.396   1.673  13.920  0.3693 -0.4331  0.0002
15417TIP3    H167666   5.361   1.593  13.882  0.6058 -0.0421 -1.0935
15417TIP3    H267667   5.350   1.682  14.004 -0.5802 -1.0453 -0.4336
15418TIP3   OH267668   2.772   4.151  15.238 -0.1589  0.5195  0.8735
15418TIP3    H167669   2.776   4.094  15.161 -3.1735  1.6852 -0.3033
15418TIP3    H267670   2.856   4.197  15.239  0.5840 -0.7175 -0.7510
15419TIP3   OH267671   5.728   1.531  16.942  0.0323  0.6725 -0.7658
15419TIP3    H167672   5.773   1.475  16.880  1.2301  0.3330  0.3637
15419TIP3    H267673   5.798   1.582  16.984 -0.5798  0.0517  1.1079
15420TIP3   OH267674   2.008   4.272   4.447 -0.5000  0.0310 -0.7262
15420TIP3    H167675   1.950   4.321   4.505 -0.5934  0.1045 -0.8810
15420TIP3    H267676   2.035   4.335   4.380  1.1406  0.4906  0.3052
15421TIP3   OH267677   1.199   2.296  17.345  0.1973  0.1010 -0.6818
15421TIP3    H167678   1.200   2.204  17.371 -1.1894  0.3639  0.4355
15421TIP3    H267679   1.283   2.330  17.375 -0.0950 -0.3511  0.7294
15422TIP3   OH267680   4.511   2.827  16.874  1.0169 -0.1552 -0.0186
15422TIP3    H167681   4.520   2.792  16.785 -1.0522 -0.0150 -0.3326
15422TIP3    H267682   4.460   2.907  16.864 -0.2790 -0.7412  1.3732
15423TIP3   OH267683   5.356   2.672   6.822  0.1847  0.4415  0.0554
15423TIP3    H167684   5.361   2.587   6.777 -1.1614  1.4023 -2.0870
15423TIP3    H267685   5.426   2.724   6.783  0.8688  0.4176  1.2072
15424TIP3   OH267686   5.942   2.699   2.888  0.7889 -0.0961  0.5605
15424TIP3    H167687   5.853   2.705   2.852  0.5191 -2.1477  0.7294
15424TIP3    H267688   5.999   2.691   2.812  0.8287  1.0829  0.4552
15425TIP3   OH267689   3.731   0.659   0.291 -0.1640  0.5116  0.3077
15425TIP3    H167690   3.791   0.604   0.241  0.2106  0.4486  0.8232
15425TIP3    H267691   3.778   0.742   0.301  0.0112  0.3272  1.0591
15426TIP3   OH267692   0.278   1.708   5.260  0.0626  0.0213  0.1894
15426TIP3    H167693   0.261   1.799   5.236 -1.0452 -0.3025 -0.3694
15426TIP3    H267694   0.270   1.706   5.355 -1.0577  0.3126  0.1188
15427TIP3   OH267695   6.313   0.129   4.576  0.0777  0.0745 -0.0363
15427TIP3    H167696   6.227   0.171   4.568  0.4155  0.7576 -0.1710
15427TIP3    H267697   6.374   0.202   4.589  0.8402 -0.2830 -1.4609
15428TIP3   OH267698   4.259   2.258   0.482 -0.7513  0.6253 -0.2940
15428TIP3    H167699   4.298   2.194   0.542  0.5341  2.2934  0.7104
15428TIP3    H267700   4.198   2.308   0.536 -1.2667  0.6933 -0.9238
15429TIP3   OH267701   0.443   5.885  16.847 -0.0125  0.3170  0.0128
15429TIP3    H167702   0.446   5.971  16.805  0.8986  0.4678  0.3382
15429TIP3    H267703   0.532   5.851  16.838 -0.3437 -0.5659 -0.0408
15430TIP3   OH267704   2.264   4.119  15.446 -0.4711 -0.6187 -0.2566
15430TIP3    H167705   2.347   4.099  15.402  0.4169  1.4796  0.3380
15430TIP3    H267706   2.213   4.167  15.381 -0.2869  0.0566  0.0891
15431TIP3   OH267707   5.040   5.105  16.123  0.2919  0.1142  0.1887
15431TIP3    H167708   5.078   5.131  16.038 -1.0003  1.5300  0.0033
15431TIP3    H267709   5.113   5.069  16.171  1.5316  1.2147 -0.7760
15432TIP3   OH267710   0.764   4.146   0.997  0.0446  0.3030 -0.8981
15432TIP3    H167711   0.786   4.211   1.063 -1.4255  1.0087 -1.0696
15432TIP3    H267712   0.847   4.101   0.979  1.0656  2.0277 -0.6916
15433TIP3   OH267713   0.343   6.378   5.494  0.1309 -0.0507  0.2647
15433TIP3    H167714   0.293   6.454   5.525 -2.5436 -0.7526 -1.8898
15433TIP3    H267715   0.326   6.310   5.559 -0.3741  0.2266  0.4305
15434TIP3   OH267716   6.071   1.449   6.730  0.0204  0.4638 -0.2122
15434TIP3    H167717   5.993   1.497   6.703 -1.3760 -1.3664  0.3305
15434TIP3    H267718   6.101   1.406   6.650 -1.4045 -1.2743  0.1146
15435TIP3   OH267719   4.690   3.015  15.028  0.7553 -0.3056  0.5117
15435TIP3    H167720   4.638   3.093  15.047 -0.2442 -1.1516  1.3665
15435TIP3    H267721   4.755   3.012  15.099  1.5003  0.3041 -0.1117
15436TIP3   OH267722   0.406   6.432   1.263  0.1636  0.0762  0.0544
15436TIP3    H167723   0.416   6.520   1.299  1.4598 -0.4891  1.1404
15436TIP3    H267724   0.336   6.393   1.315  0.9570 -0.2033  0.9278
15437TIP3   OH267725   0.714   4.319   3.982  0.2954  0.4002  0.1964
15437TIP3    H167726   0.772   4.362   3.919 -0.9235  2.7524  0.5946
15437TIP3    H267727   0.626   4.335   3.949 -0.2818 -0.3023  1.3291
15438TIP3   OH267728   6.346   0.289   5.472 -0.5399  0.2246 -0.4685
15438TIP3    H167729   6.269   0.234   5.483  0.7737 -1.9403 -1.3983
15438TIP3    H267730   6.418   0.238   5.509  0.7458  1.3226 -1.3430
15439TIP3   OH267731   5.939   1.833   2.899  0.1681 -0.3306  0.0536
15439TIP3    H167732   6.032   1.821   2.881  0.4583 -1.0478  1.8411
15439TIP3    H267733   5.912   1.753   2.945 -1.2945 -0.0607 -0.2658
15440TIP3   OH267734   1.418   2.841   3.521  0.0540 -0.0283  0.2195
15440TIP3    H167735   1.434   2.815   3.612  1.1089  0.0814  0.0858
15440TIP3    H267736   1.323   2.838   3.511  0.0190 -2.4571  0.6104
15441TIP3   OH267737   4.515   3.242  14.653 -0.1635 -0.3023  0.1038
15441TIP3    H167738   4.539   3.165  14.602  0.3773 -0.1593  0.1421
15441TIP3    H267739   4.420   3.233  14.667 -0.0951 -0.9714  0.1390
15442TIP3   OH267740   4.900   4.759  13.275 -0.1687  0.0048 -0.2514
15442TIP3    H167741   4.805   4.761  13.271 -0.2314 -0.2140  0.9117
15442TIP3    H267742   4.924   4.680  13.226 -0.6768 -0.7417  0.6741
15443TIP3   OH267743   5.062   1.943   6.026 -0.1212 -0.3599 -0.0698
15443TIP3    H167744   5.004   1.959   6.100  0.3738  0.7791  0.0889
15443TIP3    H267745   5.124   2.016   6.028  1.2228 -1.4656 -0.3260
15444TIP3   OH267746   0.297   4.382  11.861 -0.3680  0.4449 -0.1168
15444TIP3    H167747   0.310   4.293  11.894  1.5992  0.0857 -1.6839
15444TIP3    H267748   0.275   4.370  11.768  0.4797  1.5710 -0.4882
15445TIP3   OH267749   2.077   6.712   4.095 -0.4311 -0.1246  0.7646
15445TIP3    H167750   2.171   6.693   4.090  0.4859  3.6569  0.6123
15445TIP3    H267751   2.045   6.694   4.006  0.0830 -1.4678  0.8174
15446TIP3   OH267752   1.808   1.715   3.072 -0.0671  0.0406 -0.0356
15446TIP3    H167753   1.765   1.790   3.114  0.2448 -0.0265  0.4166
15446TIP3    H267754   1.876   1.690   3.134  1.3976  0.8710 -1.2635
15447TIP3   OH267755   2.847   1.754  16.510  0.3277 -0.3920  0.3942
15447TIP3    H167756   2.763   1.710  16.500 -0.1586  0.6862 -0.5731
15447TIP3    H267757   2.863   1.794  16.424  0.8359  1.0867  1.1381
15448TIP3   OH267758   1.884   5.081   6.062  0.8550 -0.0632 -0.0892
15448TIP3    H167759   1.955   5.082   5.998  0.0484  1.0612 -0.9935
15448TIP3    H267760   1.928   5.061   6.145  2.0198 -0.7915 -0.8467
15449TIP3   OH267761   3.494   4.154  14.326  0.4315 -0.1383  0.1932
15449TIP3    H167762   3.410   4.186  14.294  0.7223  0.9933  0.5020
15449TIP3    H267763   3.558   4.191  14.266  0.7303 -0.8028  0.0943
15450TIP3   OH267764   4.883   0.288  12.452  0.3929  0.3412  0.0037
15450TIP3    H167765   4.965   0.247  12.424 -0.0240 -0.6982  0.2332
15450TIP3    H267766   4.815   0.227  12.421 -0.2659  0.9847  0.1694
15451TIP3   OH267767   1.265   5.694  13.051  0.7142  0.4855  0.2415
15451TIP3    H167768   1.177   5.672  13.021  0.6278  0.9568  0.1330
15451TIP3    H267769   1.273   5.651  13.136  0.5482  0.0692  0.0517
15452TIP3   OH267770   3.787   4.638   5.107  0.9481 -0.1640 -0.5021
15452TIP3    H167771   3.838   4.636   5.188  0.7160  1.5595 -0.2859
15452TIP3    H267772   3.732   4.559   5.111  1.6631 -0.6325  0.5148
15453TIP3   OH267773   5.868   6.386  14.656  0.4215 -0.0158 -0.1889
15453TIP3    H167774   5.897   6.379  14.747  0.7375 -1.1054 -0.3513
15453TIP3    H267775   5.884   6.477  14.632  0.5457  0.2236  0.7805
15454TIP3   OH267776   1.328   1.688   4.753  0.0615  0.5352  0.2945
15454TIP3    H167777   1.268   1.755   4.721  2.5727  2.4169 -0.9083
15454TIP3    H267778   1.347   1.715   4.843 -0.0580  0.6153  0.2963
15455TIP3   OH267779   1.037   3.535   0.842 -0.0478 -0.6184 -0.4034
15455TIP3    H167780   1.017   3.532   0.749 -0.5576  0.2344 -0.3304
15455TIP3    H267781   1.086   3.616   0.854  0.3949 -0.9403  0.0079
15456TIP3   OH267782   2.825   1.848   3.441 -0.2132 -0.8517  0.3000
15456TIP3    H167783   2.895   1.882   3.385  0.6251 -0.4582  1.5529
15456TIP3    H267784   2.860   1.765   3.475  1.2837  1.0020  3.8014
15457TIP3   OH267785   2.172   2.038   4.501  0.3578  0.3901 -0.4957
15457TIP3    H167786   2.152   1.945   4.506 -2.1433  0.6826 -2.7590
15457TIP3    H267787   2.224   2.048   4.421  0.2574  0.9841 -0.4901
15458TIP3   OH267788   6.648   2.231  11.532  0.3824 -0.4671  0.0765
15458TIP3    H167789   6.580   2.299  11.532 -0.1146 -0.9451  0.8851
15458TIP3    H267790   6.665   2.216  11.625  1.8373 -0.1291 -0.1204
15459TIP3   OH267791   4.070   1.741   0.181  0.1988 -0.1188 -0.3389
15459TIP3    H167792   4.018   1.676   0.228 -0.9931  1.5221  0.7375
15459TIP3    H267793   4.010   1.814   0.167  1.9261  1.4389  0.0092
15460TIP3   OH267794   2.973   2.152  14.594  0.7038  0.0893  0.0821
15460TIP3    H167795   2.899   2.117  14.545  1.1648 -0.6276 -0.1231
15460TIP3    H267796   3.028   2.076  14.613  2.5626  0.8673 -1.7577
15461TIP3   OH267797   0.559   3.556  11.639  0.6566  0.3961  0.0365
15461TIP3    H167798   0.555   3.471  11.595  0.6452  1.0142 -1.1724
15461TIP3    H267799   0.592   3.535  11.727 -3.3869 -1.4317  1.3547
15462TIP3   OH267800   2.403   6.528  14.560  0.5382 -0.0499  0.0900
15462TIP3    H167801   2.316   6.506  14.527 -0.1799  1.4618  0.9291
15462TIP3    H267802   2.456   6.540  14.481  0.3987 -2.3005 -0.4374
15463TIP3   OH267803   6.248   1.995  12.770  0.0076  0.1535 -0.0442
15463TIP3    H167804   6.271   1.982  12.862  1.3992 -0.3519 -0.4516
15463TIP3    H267805   6.189   1.922  12.750  0.6220 -0.3985  0.1323
15464TIP3   OH267806   5.808   6.651  12.292 -0.6148  0.3682 -0.3974
15464TIP3    H167807   5.819   6.695  12.376  1.5717 -2.2927  0.8690
15464TIP3    H267808   5.848   6.710  12.228 -0.9198  1.7492  0.6613
15465TIP3   OH267809   3.806   4.841  13.355  0.3498  0.5844 -0.1683
15465TIP3    H167810   3.779   4.763  13.404 -2.5510  1.8268  0.4222
15465TIP3    H267811   3.825   4.906  13.422  1.5567  0.7737 -0.6739
15466TIP3   OH267812   4.472   4.510   5.274  0.0897 -0.5601 -0.2134
15466TIP3    H167813   4.527   4.489   5.198 -0.4246 -1.9006 -0.2376
15466TIP3    H267814   4.493   4.601   5.293  0.5270 -0.3113 -1.7147
15467TIP3   OH267815   2.649   5.880   6.809  0.1674 -0.1603 -0.1638
15467TIP3    H167816   2.708   5.857   6.737  1.1886  0.0516  0.5818
15467TIP3    H267817   2.704   5.925   6.872 -0.6073 -0.7381  0.9705
15468TIP3   OH267818   6.580   3.020   1.299 -0.7787 -0.3509  0.4050
15468TIP3    H167819   6.655   2.964   1.318 -0.4645 -0.0647  0.0127
15468TIP3    H267820   6.608   3.073   1.225  0.0281  2.4335  2.5510
15469TIP3   OH267821   1.467   1.489  17.339 -0.1943  0.0640 -0.5534
15469TIP3    H167822   1.492   1.562  17.395 -2.3175 -0.8470  1.7682
15469TIP3    H267823   1.549   1.455  17.304  1.0161  2.0203  0.2641
15470TIP3   OH267824   0.606   0.082  11.891  0.1841  0.0134  0.0892
15470TIP3    H167825   0.569   0.162  11.928 -2.0814 -1.1159  0.4637
15470TIP3    H267826   0.605   0.096  11.797  0.5189  0.6873  0.1776
15471TIP3   OH267827   2.309   4.743  15.185 -0.6169 -0.7607  0.2938
15471TIP3    H167828   2.243   4.752  15.116 -0.7728  0.7263  0.6003
15471TIP3    H267829   2.274   4.675  15.243 -2.2011  0.3896  0.7559
15472TIP3   OH267830   3.483   6.080  12.910 -0.1057 -0.1764 -0.1342
15472TIP3    H167831   3.535   6.051  12.836  0.9516  1.2354  0.0211
15472TIP3    H267832   3.437   6.158  12.878 -0.7301 -0.3635  0.2817
15473TIP3   OH267833   5.718   5.864  16.672 -0.2938  0.4770 -0.1550
15473TIP3    H167834   5.741   5.814  16.594 -0.5461  1.3764 -0.8233
15473TIP3    H267835   5.800   5.904  16.700 -0.1521 -0.0510  0.2013
15474TIP3   OH267836   6.644   4.141  13.572 -0.6312  0.1660  0.0238
15474TIP3    H167837   6.635   4.070  13.635 -0.0103  0.0329 -0.0354
15474TIP3    H267838   6.604   4.216  13.616 -4.1342 -0.8630 -1.1040
15475TIP3   OH267839   6.621   1.795   2.977 -0.7346 -0.6256  0.0175
15475TIP3    H167840   6.610   1.725   3.042  1.3167 -0.8152  0.2045
15475TIP3    H267841   6.700   1.772   2.929 -1.1052  0.5743 -1.2439
15476TIP3   OH267842   4.010   4.791   6.188  0.4443  0.2606 -0.2336
15476TIP3    H167843   4.070   4.852   6.144  2.2386  0.0188  1.7277
15476TIP3    H267844   3.962   4.846   6.250  1.5277 -0.1370  1.0024
15477TIP3   OH267845   2.547   4.493  13.007 -0.1141  0.0568  0.6547
15477TIP3    H167846   2.593   4.575  13.025  0.1630  0.4813 -1.6036
15477TIP3    H267847   2.617   4.431  12.987 -0.3374 -0.6738  2.0857
15478TIP3   OH267848   1.682   4.216  15.352 -0.2566  0.2050 -0.3334
15478TIP3    H167849   1.752   4.190  15.292 -0.3844 -0.4918 -0.1848
15478TIP3    H267850   1.619   4.263  15.297  0.2947  0.7828 -0.4780
15479TIP3   OH267851   4.985   6.154   0.837 -0.3324  0.4609 -0.5835
15479TIP3    H167852   5.053   6.117   0.893 -0.6813 -1.3177 -1.2701
15479TIP3    H267853   4.904   6.144   0.888 -0.4629  0.0167 -0.8704
15480TIP3   OH267854   2.743   5.980   1.231  0.1255  0.0805 -0.0671
15480TIP3    H167855   2.648   5.977   1.225 -0.0099  2.7415 -0.7490
15480TIP3    H267856   2.773   5.918   1.165 -1.1230 -0.6493  0.0251
15481TIP3   OH267857   3.311   3.293   2.833 -0.0515 -0.2400 -0.5591
15481TIP3    H167858   3.268   3.257   2.910 -1.0067 -0.2799 -1.0904
15481TIP3    H267859   3.315   3.387   2.849  0.5643 -0.3488 -0.0733
15482TIP3   OH267860   3.951   5.855   2.755 -0.1641  0.0365  0.3411
15482TIP3    H167861   3.864   5.894   2.749 -0.3764 -0.4890 -0.0265
15482TIP3    H267862   3.941   5.784   2.819  0.0713  0.1815  0.5403
15483TIP3   OH267863   1.000   5.825  16.612 -0.3773 -0.1267 -0.1329
15483TIP3    H167864   1.039   5.744  16.644 -0.2429  0.0246  0.0861
15483TIP3    H267865   0.915   5.799  16.576 -0.1927 -0.4143 -0.3639
15484TIP3   OH267866   0.311   4.289   6.002  0.4646  0.5766 -0.1452
15484TIP3    H167867   0.368   4.235   5.946 -1.4723 -0.7457 -0.9639
15484TIP3    H267868   0.310   4.244   6.086  0.1950  0.2797 -0.3054
15485TIP3   OH267869   4.041   5.744   1.616 -0.1789 -0.5832  0.2070
15485TIP3    H167870   4.043   5.701   1.531 -0.4013  0.0646 -0.1361
15485TIP3    H267871   3.965   5.802   1.612  1.3741  1.5490 -0.2326
15486TIP3   OH267872   5.609   2.716  14.394 -0.5128 -0.1045  0.3539
15486TIP3    H167873   5.631   2.740  14.484  1.7440  0.4498 -0.2968
15486TIP3    H267874   5.591   2.799  14.351 -1.3625 -0.3538  0.1949
15487TIP3   OH267875   0.670   5.756  13.936  0.2407 -0.7867 -0.1474
15487TIP3    H167876   0.685   5.795  14.022  0.3395  1.3832 -1.0777
15487TIP3    H267877   0.577   5.733  13.936 -0.1640  0.7332  0.0127
15488TIP3   OH267878   1.190   0.698   0.551 -0.6452 -0.3002  0.4714
15488TIP3    H167879   1.187   0.636   0.624 -2.2076 -2.9747 -1.6913
15488TIP3    H267880   1.254   0.660   0.490  0.2305  1.5831  0.1411
15489TIP3   OH267881   2.426   3.740   0.532 -0.0309  0.2024 -0.7113
15489TIP3    H167882   2.411   3.805   0.600  0.9778 -1.6559  1.3868
15489TIP3    H267883   2.377   3.774   0.456 -3.7300  0.9289  1.7338
15490TIP3   OH267884   0.147   4.770  17.004 -0.1491  0.0368  0.2631
15490TIP3    H167885   0.107   4.793  16.920 -0.7440 -1.7898 -0.0010
15490TIP3    H267886   0.241   4.762  16.985 -0.2852 -0.3954 -0.2499
15491TIP3   OH267887   2.913   2.814  11.638  0.0913 -0.2779 -0.5190
15491TIP3    H167888   2.834   2.864  11.658  0.2193  0.4260 -1.6330
15491TIP3    H267889   2.888   2.760  11.563  0.4050 -0.7244 -0.3021
15492TIP3   OH267890   2.627   1.690  14.081  0.5196 -0.7272  0.1483
15492TIP3    H167891   2.673   1.712  13.999  1.5734 -0.6002  0.7516
15492TIP3    H267892   2.539   1.726  14.069  0.4055 -1.3820 -1.2341
15493TIP3   OH267893   2.820   6.648   1.281  0.4136 -0.0499 -0.0831
15493TIP3    H167894   2.836   6.573   1.338 -2.0379 -0.6322 -0.0413
15493TIP3    H267895   2.907   6.675   1.251  1.4078 -2.4728  0.4201
15494TIP3   OH267896   2.072   6.401  11.939 -0.4472  0.2551  0.2315
15494TIP3    H167897   2.056   6.307  11.948 -0.7743  0.5141  5.3091
15494TIP3    H267898   1.996   6.434  11.890 -0.1775 -2.0624 -1.8935
15495TIP3   OH267899   3.768   1.397  16.160  0.3772 -0.1488  0.2328
15495TIP3    H167900   3.697   1.347  16.201  0.4046 -1.4242 -1.1705
15495TIP3    H267901   3.848   1.352  16.188  0.3855 -1.1785 -1.3183
15496TIP3   OH267902   6.008   0.824   5.791  0.3914 -0.8116  0.3974
15496TIP3    H167903   6.066   0.766   5.840  1.4058 -0.0330  0.1502
15496TIP3    H267904   6.056   0.906   5.784 -0.4498 -0.3693 -0.4379
15497TIP3   OH267905   1.031   1.239  16.566 -0.0453  0.2829 -0.9624
15497TIP3    H167906   0.952   1.275  16.606 -0.2167 -0.3292 -0.7381
15497TIP3    H267907   1.080   1.315  16.535  0.4415  0.8339  1.0335
15498TIP3   OH267908   4.761   1.073  15.898 -0.3225  0.6319 -0.2167
15498TIP3    H167909   4.764   1.034  15.985 -1.1002  0.9362 -0.0508
15498TIP3    H267910   4.811   1.012  15.843  0.3346  0.5409  0.4744
15499TIP3   OH267911   5.690   6.703  15.687  0.2455  0.1038  0.1188
15499TIP3    H167912   5.766   6.655  15.721  0.0559  1.3504  2.5549
15499TIP3    H267913   5.676   6.773  15.751  0.6586  3.6264 -3.2658
15500TIP3   OH267914   6.230   6.048   5.694 -0.3052  0.5621  0.1359
15500TIP3    H167915   6.181   6.093   5.762 -1.4152  1.3273 -1.1144
15500TIP3    H267916   6.176   6.058   5.615  0.8233 -0.4766 -0.8115
15501TIP3   OH267917   4.272   5.063   0.892 -0.9971  0.3386  0.0247
15501TIP3    H167918   4.281   4.997   0.823  0.2578  0.3882  0.1180
15501TIP3    H267919   4.222   5.133   0.851  0.4821  0.7571 -1.1671
15502TIP3   OH267920   0.947   0.732   1.697  0.0183  0.0584 -0.1134
15502TIP3    H167921   0.929   0.732   1.791  1.7456 -1.0803  0.2652
15502TIP3    H267922   0.892   0.802   1.662 -1.3385 -0.0876  1.5904
15503TIP3   OH267923   5.001   0.688  17.235 -0.1674 -0.5766  0.7956
15503TIP3    H167924   5.043   0.771  17.214  1.1257 -1.6155 -1.1135
15503TIP3    H267925   4.918   0.690  17.188  0.4039 -0.7977 -0.2672
15504TIP3   OH267926   3.875   0.017  15.306  0.3211  0.1291  0.4894
15504TIP3    H167927   3.845   0.050  15.391  0.9972  2.0390  0.0364
15504TIP3    H267928   3.834  -0.069  15.298 -2.1113  1.1095  1.4833
15505TIP3   OH267929   5.888   5.296   2.123 -0.0904  0.5357 -0.5843
15505TIP3    H167930   5.976   5.265   2.101  0.1431  1.0813 -0.4431
15505TIP3    H267931   5.862   5.347   2.046 -0.2228  0.4914 -0.5676
15506TIP3   OH267932   4.338   6.013  15.917  0.1734  0.0254  0.0197
15506TIP3    H167933   4.432   6.021  15.936  0.1605  0.2626 -0.0200
15506TIP3    H267934   4.299   6.089  15.960 -0.3120 -1.3434  2.1560
15507TIP3   OH267935   2.915   4.839  12.461  0.2109 -0.5819 -0.3907
15507TIP3    H167936   2.913   4.797  12.548  2.0029 -1.6332 -0.8104
15507TIP3    H267937   2.998   4.812  12.423 -0.7347 -0.5380 -2.6611
15508TIP3   OH267938   4.120   3.524  13.580 -0.6525 -0.3105  0.7152
15508TIP3    H167939   4.202   3.526  13.531 -0.3507 -1.4388  1.1431
15508TIP3    H267940   4.146   3.504  13.670 -1.3258  0.2058  1.0342
15509TIP3   OH267941   0.185   6.423  11.658  0.3253 -0.3101 -0.1530
15509TIP3    H167942   0.122   6.352  11.646 -1.4111  1.1826 -0.2803
15509TIP3    H267943   0.166   6.459  11.744  2.7875 -1.4399  0.9645
15510TIP3   OH267944   5.159   1.653  14.083 -0.4981  0.0561 -0.4186
15510TIP3    H167945   5.090   1.716  14.103 -0.7835  0.0791 -1.4564
15510TIP3    H267946   5.120   1.593  14.020  0.4555  0.1174 -1.0801
15511TIP3   OH267947   1.378   3.342  12.599 -0.2617  0.0040 -0.1271
15511TIP3    H167948   1.383   3.419  12.656  1.7546  0.1677 -0.4257
15511TIP3    H267949   1.442   3.281  12.637  0.6446 -0.1497 -1.8126
15512TIP3   OH267950   2.668   1.318  12.191  0.4091 -0.0180 -0.4484
15512TIP3    H167951   2.680   1.342  12.099  4.6277 -0.9948 -0.3362
15512TIP3    H267952   2.675   1.223  12.192  0.6013 -0.0069  0.9025
15513TIP3   OH267953   2.702   2.253   3.447  0.4660  0.4354 -1.2806
15513TIP3    H167954   2.726   2.220   3.360  2.7210 -0.2678 -0.4647
15513TIP3    H267955   2.785   2.277   3.487 -0.4191 -0.0869  1.0094
15514TIP3   OH267956   1.555   5.426  12.243  0.7523 -0.3816  0.0278
15514TIP3    H167957   1.638   5.379  12.251  0.4717 -1.3031 -1.9074
15514TIP3    H267958   1.490   5.368  12.282  0.8067 -0.2903  0.2572
15515TIP3   OH267959   5.374   5.069  13.264  0.3938  0.0785  0.3276
15515TIP3    H167960   5.398   5.125  13.337  0.5275  1.1082 -0.4856
15515TIP3    H267961   5.297   5.021  13.294 -0.1491  1.2133  0.7837
15516TIP3   OH267962   3.857   2.006   1.712  0.1866  0.1949 -0.3890
15516TIP3    H167963   3.888   2.096   1.725  1.1478 -0.2534  0.5394
15516TIP3    H267964   3.784   2.015   1.651 -0.3392  1.7139  0.4147
15517TIP3   OH267965   4.758   1.204  13.316 -0.2307  0.0622 -0.7993
15517TIP3    H167966   4.753   1.299  13.328  1.7455  0.1889 -0.5745
15517TIP3    H267967   4.808   1.193  13.234  1.1826 -0.7455  0.1277
15518TIP3   OH267968   6.546   5.118   2.618 -0.1372 -0.2539  0.4051
15518TIP3    H167969   6.621   5.138   2.562 -0.3575  1.2974  0.6277
15518TIP3    H267970   6.582   5.062   2.687  0.7565  0.2624  0.3666
15519TIP3   OH267971   5.727   5.591   3.512 -0.1095  0.1262  0.0014
15519TIP3    H167972   5.789   5.586   3.440  0.1165 -1.1966  0.2639
15519TIP3    H267973   5.685   5.505   3.514 -1.5291  0.7811  0.2125
15520TIP3   OH267974   0.214   0.029   0.328  0.1734 -0.1310 -0.7578
15520TIP3    H167975   0.309   0.041   0.330  0.3921 -1.7569  0.6335
15520TIP3    H267976   0.189   0.023   0.421 -1.0279 -1.4992 -1.1310
15521TIP3   OH267977   6.324   2.571   3.805  0.0429 -0.4251  0.1356
15521TIP3    H167978   6.344   2.618   3.886  0.3202 -0.5462  0.1384
15521TIP3    H267979   6.236   2.600   3.781 -0.5198 -1.2521  1.1097
15522TIP3   OH267980   2.804   4.959  11.837  0.2540 -0.3574 -0.2708
15522TIP3    H167981   2.780   5.040  11.791 -0.5781  0.0126  0.7834
15522TIP3    H267982   2.874   4.922  11.784 -0.8520 -0.0953 -1.9876
15523TIP3   OH267983   6.632   2.968  13.819  0.4217  0.5605 -0.1078
15523TIP3    H167984   6.656   2.906  13.750  0.5844  2.6826 -2.0714
15523TIP3    H267985   6.706   3.028  13.823  0.8081  0.0137  2.6051
15524TIP3   OH267986   4.023   1.430  13.842 -0.4283  0.0211  0.4016
15524TIP3    H167987   4.044   1.353  13.789  0.4223  0.3936  0.1727
15524TIP3    H267988   4.017   1.397  13.932  1.8031 -0.0361  0.5819
15525TIP3   OH267989   4.333   5.514   5.651 -0.1600  0.0318 -0.7726
15525TIP3    H167990   4.372   5.500   5.564  0.7985 -0.8587 -0.2253
15525TIP3    H267991   4.374   5.448   5.706  2.1928  2.9905  1.3150
15526TIP3   OH267992   6.684   4.437  15.658 -0.2887  0.1370 -0.1256
15526TIP3    H167993   6.654   4.472  15.742  0.6940 -1.8077  1.1187
15526TIP3    H267994   6.609   4.386  15.626 -1.0991  1.8614 -1.0806
15527TIP3   OH267995   3.104   5.145   2.551 -0.0674  0.0531  0.2893
15527TIP3    H167996   3.120   5.083   2.621  0.3731  1.7586  1.7749
15527TIP3    H267997   3.191   5.165   2.515 -0.3377 -1.2956 -1.2580
15528TIP3   OH267998   1.992   4.282   5.982  0.2617  0.1525 -0.3371
15528TIP3    H167999   2.086   4.283   5.998  0.1865  0.4402  0.1158
15528TIP3    H268000   1.960   4.209   6.034  0.1621  0.4110 -0.0285
15529TIP3   OH268001   0.083   5.349   3.770 -0.2263  0.0978 -0.0140
15529TIP3    H168002   0.158   5.302   3.735 -0.6222 -1.4737  1.1149
15529TIP3    H268003   0.011   5.327   3.711 -0.5531 -1.3191  0.8490
15530TIP3   OH268004   2.524   1.774  11.720  0.3072  0.0523  0.1251
15530TIP3    H168005   2.513   1.705  11.656  0.1038  0.1943  0.0063
15530TIP3    H268006   2.527   1.855  11.669 -2.1476  0.4130  0.4149
15531TIP3   OH268007   0.690   4.264  14.216  0.1020  0.3466 -0.3332
15531TIP3    H168008   0.746   4.191  14.191 -0.9744 -0.5995 -0.0323
15531TIP3    H268009   0.667   4.247  14.308  2.0451  2.5064  0.6464
15532TIP3   OH268010   0.109   3.097   0.762  0.4340  0.3603  0.1940
15532TIP3    H168011   0.201   3.089   0.737 -0.2665 -1.3668 -2.2995
15532TIP3    H268012   0.095   3.027   0.826  0.8092  0.5129  0.4430
15533TIP3   OH268013   6.175   1.411   2.976 -0.2488  0.9302  0.0366
15533TIP3    H168014   6.123   1.399   2.897 -0.0048  1.0834 -0.1509
15533TIP3    H268015   6.218   1.326   2.989  0.0727  1.0398 -0.2652
15534TIP3   OH268016   6.682   4.232   3.596 -0.5767 -0.4884 -0.1183
15534TIP3    H168017   6.637   4.148   3.594 -1.0809 -0.2617  0.9927
15534TIP3    H268018   6.674   4.262   3.686  0.1620  0.4531 -0.3440
15535TIP3   OH268019   5.239   2.771  12.636 -0.1232 -0.1376  0.6321
15535TIP3    H168020   5.191   2.825  12.700 -2.1025 -0.3275 -0.6053
15535TIP3    H268021   5.232   2.819  12.554 -0.3654 -1.3939 -0.1103
15536TIP3   OH268022   3.555   1.540   3.484 -0.0476 -0.7030  0.1123
15536TIP3    H168023   3.604   1.462   3.460  1.3632  0.2738 -0.3148
15536TIP3    H268024   3.606   1.581   3.554 -0.7446 -0.1410  0.3089
15537TIP3   OH268025   4.856   0.945  11.408 -0.0614  0.1893  0.3051
15537TIP3    H168026   4.941   0.944  11.450  0.1025  0.2288 -0.0205
15537TIP3    H268027   4.875   0.957  11.315 -0.2779 -2.1829 -0.1206
15538TIP3   OH268028   6.023   2.721  15.309 -0.0276 -0.0960  0.1519
15538TIP3    H168029   6.032   2.798  15.365  0.2251  0.4272 -0.6068
15538TIP3    H268030   5.995   2.755  15.224 -0.5552 -0.9004 -0.0104
15539TIP3   OH268031   1.528   3.290   1.674 -0.3981  0.3911 -0.3477
15539TIP3    H168032   1.540   3.343   1.596  1.0137  1.4428  0.5241
15539TIP3    H268033   1.572   3.207   1.654  0.1363  0.7343 -0.5983
15540TIP3   OH268034   3.767   4.841   2.760  0.0994 -1.0447  0.4936
15540TIP3    H168035   3.791   4.804   2.845 -1.1083  1.2081  1.9076
15540TIP3    H268036   3.697   4.902   2.779  0.4503  0.2669 -2.0019
15541TIP3   OH268037   6.660   1.241   0.090 -0.9206 -0.1345  0.4191
15541TIP3    H168038   6.648   1.188   0.168 -0.7991  0.3493  0.7698
15541TIP3    H268039   6.744   1.212   0.054  0.0984  1.1304  1.6718
15542TIP3   OH268040   0.207   3.912   1.392 -0.6192 -0.2313 -0.3820
15542TIP3    H168041   0.194   3.955   1.476  1.8928 -0.4198  0.1917
15542TIP3    H268042   0.183   3.977   1.326  1.6583  1.5691  0.4726
15543TIP3   OH268043   2.326   3.232  12.419  0.0077 -0.1183 -0.3364
15543TIP3    H168044   2.360   3.260  12.333  1.5745 -0.8394  0.0060
15543TIP3    H268045   2.310   3.138  12.409 -1.3638  0.0948 -0.2952
15544TIP3   OH268046   5.429   3.829  11.349  0.1358  0.2102  0.1207
15544TIP3    H168047   5.463   3.841  11.260  0.9534 -2.0850  0.0441
15544TIP3    H268048   5.335   3.815  11.337  0.4145 -1.3288 -0.5768
15545TIP3   OH268049   3.415   1.754  13.682 -0.1588 -0.0857 -0.4633
15545TIP3    H168050   3.427   1.820  13.613 -1.7446 -0.7873 -1.4870
15545TIP3    H268051   3.396   1.674  13.634 -1.0884 -0.6457  0.8009
15546TIP3   OH268052   3.980   3.273  16.310  0.4803  0.4470  0.0440
15546TIP3    H168053   3.945   3.361  16.323  0.9351  0.4974  1.0686
15546TIP3    H268054   4.049   3.283  16.246  0.4629  0.8211  0.0827
15547TIP3   OH268055   2.969   0.367  16.835  0.1600 -0.3596  0.7540
15547TIP3    H168056   2.928   0.438  16.786  0.4078 -1.2099 -0.7394
15547TIP3    H268057   2.897   0.309  16.859  0.0898 -0.1499  1.0593
15548TIP3   OH268058   4.000   1.987  10.521  0.1597 -0.0276 -0.2739
15548TIP3    H168059   4.059   2.044  10.472  0.7258 -1.1858 -0.9766
15548TIP3    H268060   4.011   2.014  10.612  2.8778 -1.1219 -0.1815
15549TIP3   OH268061   4.035   5.476   2.525 -0.0027  0.0149 -0.0455
15549TIP3    H168062   4.093   5.539   2.569  0.9706  1.2874 -2.9237
15549TIP3    H268063   4.076   5.459   2.441 -2.5288 -1.0496 -1.1880
15550TIP3   OH268064   1.695   3.989   2.917 -0.3263  0.7178  0.3655
15550TIP3    H168065   1.706   4.054   2.847  2.2990  0.0065  0.0024
15550TIP3    H268066   1.770   4.003   2.975 -0.1644 -1.3936  0.7496
15551TIP3   OH268067   6.461   6.253  13.698  0.2318  0.7199 -0.4111
15551TIP3    H168068   6.484   6.330  13.750 -0.4832  1.0786 -0.6129
15551TIP3    H268069   6.516   6.183  13.733  1.1425  1.4016 -0.4603
15552TIP3   OH268070   4.218   3.953  13.275  0.4134 -0.2397 -0.0374
15552TIP3    H168071   4.134   3.939  13.231  0.9124 -2.0727 -0.4873
15552TIP3    H268072   4.262   3.869  13.269  2.6001  0.8723 -0.4727
15553TIP3   OH268073   4.507   2.561  13.254 -0.0703 -0.3043  0.5911
15553TIP3    H168074   4.467   2.528  13.334 -2.6881 -0.7517 -0.7849
15553TIP3    H268075   4.532   2.651  13.274  0.7069 -0.8658  2.3126
15554TIP3   OH268076   4.991   2.389   4.854  0.3145 -0.6201 -0.6075
15554TIP3    H168077   5.004   2.368   4.762  0.0631 -0.6060 -0.6474
15554TIP3    H268078   5.040   2.470   4.868  0.2866 -0.5795 -0.7490
15555TIP3   OH268079   4.311   0.762   1.385  0.0292 -0.3545  0.0669
15555TIP3    H168080   4.301   0.841   1.438 -1.4099 -0.4080 -0.1007
15555TIP3    H268081   4.360   0.702   1.441  0.6847  0.4576  0.3907
15556TIP3   OH268082   5.067   6.537  14.317 -0.3551 -0.2492 -0.4229
15556TIP3    H168083   5.025   6.500  14.239 -0.7105  0.3240 -0.5049
15556TIP3    H268084   5.136   6.593  14.283  0.1568 -0.7931 -0.2984
15557TIP3   OH268085   1.353   4.949   2.356 -0.7711 -1.4280 -0.2538
15557TIP3    H168086   1.327   4.934   2.265 -0.6574 -1.4037 -0.2906
15557TIP3    H268087   1.432   5.002   2.350 -1.6600 -0.0394 -0.1206
15558TIP3   OH268088   4.395   2.631  15.156  0.5145 -0.1155  0.4608
15558TIP3    H168089   4.432   2.590  15.078 -0.0947 -1.0471  0.6394
15558TIP3    H268090   4.416   2.724  15.147  0.3021 -0.1763 -0.8960
15559TIP3   OH268091   5.370   4.157   5.535 -0.5138 -0.1433  0.3961
15559TIP3    H168092   5.435   4.202   5.590 -1.5485 -0.3496  1.8449
15559TIP3    H268093   5.396   4.179   5.445  1.3547  0.0438  0.9280
15560TIP3   OH268094   3.640   2.405  10.805 -0.1430  0.5497 -0.2403
15560TIP3    H168095   3.701   2.339  10.772 -0.6048  0.1193 -0.2422
15560TIP3    H268096   3.557   2.358  10.815 -0.1236  0.7629  1.1116
15561TIP3   OH268097   3.802   1.755  13.138  0.3957  0.0721 -0.0141
15561TIP3    H168098   3.784   1.727  13.048  1.0100 -0.0168 -0.1141
15561TIP3    H268099   3.896   1.741  13.149  0.0273 -1.7263  1.2735
15562TIP3   OH268100   5.412   1.625  10.729  0.3524 -0.4984 -0.4134
15562TIP3    H168101   5.381   1.568  10.659  1.2497 -0.0354 -1.2159
15562TIP3    H268102   5.333   1.667  10.763 -0.1824 -1.3336 -0.5895
15563TIP3   OH268103   3.875   4.290  14.694 -0.0703 -0.3133 -0.1712
15563TIP3    H168104   3.920   4.217  14.650 -0.2242 -0.8522  0.5476
15563TIP3    H268105   3.821   4.329  14.625  1.6827  0.5339 -1.1264
15564TIP3   OH268106   5.360   2.467  12.525  0.1267 -0.1783  0.1801
15564TIP3    H168107   5.384   2.381  12.491 -1.8305 -0.0067 -1.8756
15564TIP3    H268108   5.433   2.524  12.499  0.0067 -0.6468 -1.3137
15565TIP3   OH268109   1.812   4.804   2.078 -0.0974  0.0710  0.4373
15565TIP3    H168110   1.729   4.819   2.122 -0.1678 -0.5901  0.5449
15565TIP3    H268111   1.789   4.757   1.998  0.0352  1.2110 -0.2905
15566TIP3   OH268112   6.399   3.959   5.614  0.1870  0.1206 -0.2061
15566TIP3    H168113   6.377   3.995   5.528  0.2304  1.1912  0.2146
15566TIP3    H268114   6.477   4.008   5.640  0.1936 -0.2269  0.4291
15567TIP3   OH268115   0.309   0.900   6.108  0.2411  0.9201 -0.3983
15567TIP3    H168116   0.358   0.883   6.028  0.0321  1.3919 -0.6343
15567TIP3    H268117   0.331   0.827   6.166  2.2800  1.7891  0.0134
15568TIP3   OH268118   4.581   0.855  10.532 -0.0835  0.5759 -0.0351
15568TIP3    H168119   4.489   0.832  10.545 -0.6037  1.8902 -1.1682
15568TIP3    H268120   4.623   0.773  10.505 -1.0279  0.0896 -0.0358
15569TIP3   OH268121   4.032   1.326   4.368  0.3191 -0.4758  0.5742
15569TIP3    H168122   3.973   1.316   4.443  1.1259 -0.5396  1.2223
15569TIP3    H268123   4.114   1.356   4.407  0.1512  1.5860 -0.5292
15570TIP3   OH268124   1.999   3.254   5.215  0.4356 -0.4591  0.2174
15570TIP3    H168125   2.024   3.338   5.175 -0.7420  0.5054  1.3909
15570TIP3    H268126   2.064   3.241   5.284  1.4812 -1.2800 -0.8886
15571TIP3   OH268127   1.224   5.103   3.195  0.1580  0.1950 -0.3928
15571TIP3    H168128   1.135   5.084   3.226 -0.1564 -1.3973 -2.1025
15571TIP3    H268129   1.227   5.198   3.190 -0.9723  0.3480  0.9961
15572TIP3   OH268130   0.966   5.911   4.335  0.1082 -0.1332 -0.0375
15572TIP3    H168131   1.024   5.900   4.411  0.9467  0.3488 -0.5869
15572TIP3    H268132   0.931   5.824   4.318  0.6045 -0.4169  0.3660
15573TIP3   OH268133   4.150   1.924  16.552 -0.0802  0.5427  0.0406
15573TIP3    H168134   4.234   1.959  16.583 -0.0971  0.7923 -0.2019
15573TIP3    H268135   4.090   1.998  16.554 -0.2400  0.4157 -0.0089
15574TIP3   OH268136   4.503   4.018  17.289  0.0100 -0.1357  0.0838
15574TIP3    H168137   4.418   4.048  17.321 -0.4095 -1.8720  0.7335
15574TIP3    H268138   4.489   4.003  17.195 -0.7169 -1.2811  0.3453
15575TIP3   OH268139   2.025   0.662   0.751 -0.8809 -0.1641  0.2920
15575TIP3    H168140   2.034   0.588   0.812  0.7258 -2.4070 -2.4183
15575TIP3    H268141   1.975   0.626   0.678 -4.1964  2.9073  0.7934
15576TIP3   OH268142   5.342   5.785  13.426  0.0446 -0.1006 -0.8376
15576TIP3    H168143   5.388   5.863  13.395  0.8441 -0.3901 -0.4133
15576TIP3    H268144   5.257   5.788  13.383 -0.4083  1.6501  0.0701
15577TIP3   OH268145   1.365   0.451   5.159 -0.0875  0.1521 -0.0061
15577TIP3    H168146   1.454   0.446   5.123  0.2854 -0.3297  0.9506
15577TIP3    H268147   1.309   0.460   5.083  0.5915 -1.8289 -0.7907
15578TIP3   OH268148   2.157   1.334  11.472  0.1482 -0.2259  0.0113
15578TIP3    H168149   2.196   1.290  11.396 -0.6081  0.2707 -0.6804
15578TIP3    H268150   2.062   1.324  11.460  0.0144 -0.1277  0.8869
15579TIP3   OH268151   3.675   6.065  12.423  0.3406  0.1143 -0.7842
15579TIP3    H168152   3.649   6.036  12.335 -0.0745  0.1250 -0.6667
15579TIP3    H268153   3.766   6.090  12.413  0.0149  1.1044 -1.4655
15580TIP3   OH268154   5.159   3.824  13.754  0.2287  0.5048  0.4381
15580TIP3    H168155   5.150   3.750  13.694 -1.3471  0.1269  1.1015
15580TIP3    H268156   5.236   3.872  13.721  1.6348 -1.6813  0.3093
15581TIP3   OH268157   0.729   2.844   6.083 -0.5481 -0.8174 -0.3331
15581TIP3    H168158   0.663   2.909   6.105  1.0120  1.0306 -0.8091
15581TIP3    H268159   0.766   2.817   6.167 -1.0983 -0.9930 -0.1449
15582TIP3   OH268160   6.262   2.650  15.727 -0.0216 -0.4101 -0.5289
15582TIP3    H168161   6.262   2.583  15.796  0.2469 -0.6456 -0.7534
15582TIP3    H268162   6.177   2.640  15.683 -0.3323 -0.0366 -0.0229
15583TIP3   OH268163   0.061   5.711  12.815 -0.0595  0.7981 -0.5343
15583TIP3    H168164   0.034   5.625  12.845  0.0954  1.7273  2.5888
15583TIP3    H268165   0.119   5.693  12.741  0.4290 -1.8050  0.3743
15584TIP3   OH268166   4.339   2.425   1.278 -0.2096  0.4416  0.4547
15584TIP3    H168167   4.414   2.403   1.334  0.6203  1.4423 -0.2328
15584TIP3    H268168   4.305   2.507   1.314  0.9789  1.6630 -1.0784
15585TIP3   OH268169   6.208   2.618  10.887  0.1509 -0.3117  0.2072
15585TIP3    H168170   6.270   2.633  10.815 -0.8488  0.8328 -0.4431
15585TIP3    H268171   6.158   2.541  10.860  1.4009 -1.4074  0.8540
15586TIP3   OH268172   3.620   2.098  10.874  0.0209  0.0961  0.1408
15586TIP3    H168173   3.543   2.156  10.873  0.2114  0.3505  0.3210
15586TIP3    H268174   3.666   2.119  10.792 -0.0744 -0.0214  0.0571
15587TIP3   OH268175   5.125   4.139  14.650 -0.3773 -0.6506 -0.2579
15587TIP3    H168176   5.036   4.159  14.679  0.1401 -1.3775  2.0992
15587TIP3    H268177   5.179   4.207  14.690  0.1802 -0.3449 -1.4863
15588TIP3   OH268178   6.375   3.481  16.418  0.0723  0.2115 -0.1899
15588TIP3    H168179   6.467   3.455  16.410 -0.3427 -1.7901  0.9266
15588TIP3    H268180   6.377   3.576  16.410  1.9608  0.0731 -2.4138
15589TIP3   OH268181   2.842   0.259  11.316  0.1857  0.0275 -0.0623
15589TIP3    H168182   2.929   0.221  11.303  0.2844  0.3155 -0.2549
15589TIP3    H268183   2.788   0.186  11.347  0.9574  0.2496  1.9637
15590TIP3   OH268184   5.393   2.588   1.515 -0.0950 -0.0522  0.5137
15590TIP3    H168185   5.360   2.579   1.426 -1.6979 -1.8928  1.2055
15590TIP3    H268186   5.486   2.607   1.505 -0.2894  0.0560 -1.5331
15591TIP3   OH268187   4.475   4.361   5.796 -0.1076 -0.0897  1.0815
15591TIP3    H168188   4.427   4.338   5.716  0.8235 -0.0529  0.5054
15591TIP3    H268189   4.564   4.378   5.767 -0.4267  3.1889  1.5815
15592TIP3   OH268190   3.236   2.864  14.317  0.0974 -0.4251  0.0391
15592TIP3    H168191   3.191   2.846  14.235  1.1646 -2.4051 -0.1773
15592TIP3    H268192   3.309   2.802  14.319 -0.7578 -1.5107  3.1725
15593TIP3   OH268193   5.322   2.517  17.175  0.1329 -0.4428  0.4714
15593TIP3    H168194   5.406   2.535  17.134  0.0143  2.7365  1.3474
15593TIP3    H268195   5.263   2.500  17.101  1.0982 -0.5670 -0.2895
15594TIP3   OH268196   4.263   1.238   4.866  0.0467  0.1471 -0.3273
15594TIP3    H168197   4.327   1.249   4.937 -1.7622  2.4423  1.0821
15594TIP3    H268198   4.195   1.182   4.904  0.8821 -1.8536 -1.6428
15595TIP3   OH268199   4.158   4.556   3.946  0.0638 -0.2671 -0.3884
15595TIP3    H168200   4.148   4.650   3.963 -3.1206 -0.4062 -0.7751
15595TIP3    H268201   4.192   4.521   4.028 -3.5037  0.6849  1.7632
15596TIP3   OH268202   0.572   4.285   4.322  0.7964 -0.1492  0.0654
15596TIP3    H168203   0.608   4.209   4.369 -0.1379 -0.0483  0.9664
15596TIP3    H268204   0.585   4.263   4.229  2.0647 -0.6469  0.3334
15597TIP3   OH268205   0.471   6.705  12.759 -1.1275 -0.2141  0.0513
15597TIP3    H168206   0.470   6.679  12.851  0.7444 -0.5135  0.0342
15597TIP3    H268207   0.452   6.624  12.712 -0.9521 -0.3061  0.1391
15598TIP3   OH268208   3.934   1.287   5.453 -0.3860 -0.0404 -0.1287
15598TIP3    H168209   3.985   1.262   5.376  0.0596  0.9132 -0.1664
15598TIP3    H268210   3.896   1.205   5.485  0.5658 -0.6591 -0.5386
15599TIP3   OH268211   5.949   6.405  12.282  0.3028  0.0864  1.0270
15599TIP3    H168212   5.994   6.431  12.202  0.2026 -1.3317  0.4886
15599TIP3    H268213   5.876   6.466  12.289 -0.2649 -0.3692 -0.5120
15600TIP3   OH268214   3.935   1.942  14.204 -0.2300 -0.3693  0.3573
15600TIP3    H168215   3.948   1.850  14.180 -1.6404 -0.2644 -0.9404
15600TIP3    H268216   3.845   1.961  14.178  0.4342  1.7426 -0.5863
15601TIP3   OH268217   2.365   1.852  16.031 -0.2637 -0.2691  0.2899
15601TIP3    H168218   2.344   1.855  16.125  2.3701 -0.7243  0.9777
15601TIP3    H268219   2.346   1.762  16.005 -2.1970  0.1765  0.0171
15602TIP3   OH268220   3.805   1.748   2.334  0.2193 -0.1789 -0.4383
15602TIP3    H168221   3.861   1.815   2.296 -0.2938  0.1785 -0.5752
15602TIP3    H268222   3.866   1.682   2.368  0.7777  0.8504  0.6367
15603TIP3   OH268223   2.152   4.893  10.894 -0.1377 -0.7488 -0.8567
15603TIP3    H168224   2.228   4.946  10.921  0.3746  0.4217 -4.0717
15603TIP3    H268225   2.076   4.943  10.924  0.3709  0.3228 -1.3014
15604TIP3   OH268226   6.243   1.122  17.248 -0.2018 -0.5651 -0.0292
15604TIP3    H168227   6.239   1.212  17.215  0.7237 -0.2800  0.5977
15604TIP3    H268228   6.265   1.069  17.172 -1.1127 -0.3183 -0.4795
15605TIP3   OH268229   3.249   5.790  15.455 -0.4363  0.8038  0.2592
15605TIP3    H168230   3.340   5.761  15.466 -0.9446 -0.5868  1.1334
15605TIP3    H268231   3.254   5.863  15.393  1.2152  0.4224 -0.1043
15606TIP3   OH268232   6.018   4.016   0.275 -0.0037 -0.2365 -0.2068
15606TIP3    H168233   5.982   3.983   0.192  1.0902  0.4189 -0.9517
15606TIP3    H268234   5.955   4.082   0.303  1.7079  2.8378 -2.8331
15607TIP3   OH268235   1.387   0.229   5.641 -0.5662  0.0451 -0.0841
15607TIP3    H168236   1.337   0.267   5.569 -0.2908 -2.3496 -1.6221
15607TIP3    H268237   1.477   0.225   5.609 -0.1570  0.2503  0.9818
15608TIP3   OH268238   3.079   4.109   2.731  0.3747 -0.0031 -0.3624
15608TIP3    H168239   3.092   4.097   2.825 -1.4637  1.7077  0.1873
15608TIP3    H268240   3.036   4.029   2.702  0.3047 -0.2492  0.4027
15609TIP3   OH268241   1.470   4.551   0.742  0.3295 -0.5810  0.7921
15609TIP3    H168242   1.469   4.602   0.661  0.5779 -0.3612  0.9246
15609TIP3    H268243   1.500   4.613   0.809 -0.9374 -0.4581  1.2691
15610TIP3   OH268244   4.799   1.621   1.810  0.4742 -0.3957  0.3065
15610TIP3    H168245   4.757   1.535   1.802 -1.6640  0.6026  0.0005
15610TIP3    H268246   4.799   1.655   1.720 -2.0265  1.3221  0.8479
15611TIP3   OH268247   3.148   5.421  15.618  0.0744  0.0726  0.5795
15611TIP3    H168248   3.230   5.462  15.645 -0.2664  0.6572  0.7447
15611TIP3    H268249   3.151   5.421  15.522  0.6305 -0.6710  0.5818
15612TIP3   OH268250   5.334   6.742  13.869  0.0826 -0.0194  0.4076
15612TIP3    H168251   5.399   6.812  13.873 -0.7894  0.8490 -0.2338
15612TIP3    H268252   5.259   6.776  13.918 -0.6986 -0.1037 -0.6858
15613TIP3   OH268253   4.167   3.705   3.249 -0.1639 -0.2095  0.5085
15613TIP3    H168254   4.178   3.614   3.278  1.2742 -0.1782  0.1284
15613TIP3    H268255   4.165   3.756   3.330  1.6177 -0.3446  0.6681
15614TIP3   OH268256   0.736   4.814  15.835 -0.1499  0.0835 -0.1937
15614TIP3    H168257   0.718   4.729  15.874 -1.3698  1.1947  1.8135
15614TIP3    H268258   0.682   4.816  15.756 -0.0545 -1.0136 -0.2992
15615TIP3   OH268259   4.201   3.644   5.728 -0.4867 -0.2696  0.3674
15615TIP3    H168260   4.210   3.738   5.709  1.1187 -0.4264  0.2083
15615TIP3    H268261   4.286   3.607   5.703 -0.8224 -1.6426  1.2037
15616TIP3   OH268262   2.606   2.913  14.543  0.1268 -0.7366 -0.2713
15616TIP3    H168263   2.594   3.002  14.576  0.5838 -1.0701  0.8387
15616TIP3    H268264   2.532   2.864  14.578 -1.0603 -0.4659 -2.2495
15617TIP3   OH268265   2.460   5.653   3.772  0.1537 -0.5059 -0.1708
15617TIP3    H168266   2.412   5.609   3.702  0.9439 -1.3913 -0.1878
15617TIP3    H268267   2.393   5.699   3.822 -0.5550 -0.7490 -0.8786
15618TIP3   OH268268   3.873   5.088  16.469 -0.5349 -0.0503 -0.0782
15618TIP3    H168269   3.828   5.015  16.426  0.3736 -2.2233  2.4106
15618TIP3    H268270   3.941   5.114  16.407 -1.1661 -1.0076 -1.2090
15619TIP3   OH268271   1.553   4.434   1.535 -0.4474  1.0237 -0.5313
15619TIP3    H168272   1.632   4.382   1.521 -0.4887  0.6927  0.3971
15619TIP3    H268273   1.526   4.412   1.624 -2.7395 -0.4294 -1.5084
15620TIP3   OH268274   5.543   4.195  15.470  0.2247 -0.2785 -0.3751
15620TIP3    H168275   5.518   4.161  15.384  0.7508  0.1821 -0.7222
15620TIP3    H268276   5.518   4.126  15.532  0.9211 -1.1306 -1.0184
15621TIP3   OH268277   0.575   6.582  12.009  0.5254  0.6415 -0.3507
15621TIP3    H168278   0.595   6.674  11.992 -0.6673  1.0159  0.1669
15621TIP3    H268279   0.625   6.534  11.943  0.6930  1.7005 -1.0154
15622TIP3   OH268280   3.315   3.330  13.997  0.3356  0.1211 -0.2271
15622TIP3    H168281   3.284   3.327  14.087  0.7726 -2.1759 -0.1077
15622TIP3    H268282   3.239   3.303  13.945  0.9842 -1.7376 -0.2518
15623TIP3   OH268283   5.862   4.867  12.883 -0.2092  0.0977 -0.5854
15623TIP3    H168284   5.873   4.839  12.973  1.1030 -0.2044 -0.8206
15623TIP3    H268285   5.787   4.926  12.885 -0.3278 -0.0821  0.6600
15624TIP3   OH268286   4.275   6.278  14.724  0.0284 -0.0945  0.6913
15624TIP3    H168287   4.249   6.211  14.787  0.4137 -1.6179 -0.6900
15624TIP3    H268288   4.334   6.335  14.773  0.1539 -1.1002  1.7614
15625TIP3   OH268289   4.518   3.729   0.472  0.2822 -0.3595  0.3454
15625TIP3    H168290   4.439   3.716   0.420  0.4600 -1.6707  0.3534
15625TIP3    H268291   4.589   3.733   0.407  0.2354  0.7649  0.3406
15626TIP3   OH268292   4.690   2.362  13.207  0.7098  0.6635  1.2438
15626TIP3    H168293   4.742   2.414  13.145  0.6220 -1.1128 -0.4366
15626TIP3    H268294   4.613   2.415  13.224  1.3694  1.7692  0.8628
15627TIP3   OH268295   3.353   1.464   6.883  0.1793  0.7439  0.0645
15627TIP3    H168296   3.427   1.524   6.889 -0.7990  2.1790 -1.4814
15627TIP3    H268297   3.390   1.378   6.904  1.5885  1.8479  2.4660
15628TIP3   OH268298   6.101   3.312  15.876 -0.4055 -0.0277  0.1958
15628TIP3    H168299   6.096   3.405  15.899  2.4467  0.2170  0.1934
15628TIP3    H268300   6.015   3.291  15.841 -0.5494  3.1934 -1.7876
15629TIP3   OH268301   0.758   5.987   4.135 -0.4090  0.4135 -0.1642
15629TIP3    H168302   0.851   5.973   4.151 -0.1021  1.3444 -1.0500
15629TIP3    H268303   0.732   6.051   4.201  0.3404  2.5476 -1.8215
15630TIP3   OH268304   0.424   1.974   4.251 -0.0654 -0.7785  0.1365
15630TIP3    H168305   0.490   1.905   4.244 -1.6679 -2.2335 -2.0336
15630TIP3    H268306   0.341   1.927   4.256 -1.0789  1.0153  1.3602
15631TIP3   OH268307   5.787   5.913   0.248  0.1407 -0.3814 -0.1855
15631TIP3    H168308   5.815   5.919   0.157 -0.6412 -1.1339 -0.4831
15631TIP3    H268309   5.708   5.968   0.252  0.4884  0.1019  0.1771
15632TIP3   OH268310   4.699   0.761   2.816  0.2443 -0.5274  0.2675
15632TIP3    H168311   4.750   0.815   2.756  1.4532  0.5359  2.1459
15632TIP3    H268312   4.763   0.700   2.853 -0.4234 -0.9890  0.6871
15633TIP3   OH268313   4.340   3.721   1.880  0.5244 -0.3812 -0.1935
15633TIP3    H168314   4.424   3.709   1.925  0.2553 -1.7220 -0.0082
15633TIP3    H268315   4.317   3.634   1.848  0.1822  0.3459 -2.0334
15634TIP3   OH268316   0.350   2.864   5.985 -0.4793 -0.2037 -0.1600
15634TIP3    H168317   0.372   2.784   6.032  0.8622  0.7308  0.8867
15634TIP3    H268318   0.401   2.861   5.905 -0.5623 -0.4729 -0.2026
15635TIP3   OH268319   1.829   2.173  15.484 -0.1121  0.2546 -0.4557
15635TIP3    H168320   1.749   2.223  15.494 -0.1021  0.0315  1.1151
15635TIP3    H268321   1.801   2.089  15.447 -0.3632  0.7580 -1.4339
15636TIP3   OH268322   4.985   4.363   1.378  0.5945 -0.3214 -0.7213
15636TIP3    H168323   5.043   4.291   1.354  0.8912  0.2677 -1.8727
15636TIP3    H268324   5.042   4.427   1.421  0.2754 -0.8764  0.5825
15637TIP3   OH268325   1.172   4.122   5.201 -0.0853  0.2005 -0.2596
15637TIP3    H168326   1.215   4.095   5.120 -0.5256 -0.4396 -0.2903
15637TIP3    H268327   1.159   4.041   5.250 -1.4515  0.3321 -0.3609
15638TIP3   OH268328   6.489   5.473   0.936 -0.1817 -0.2978 -0.1386
15638TIP3    H168329   6.549   5.499   0.867  0.9519  1.3036  1.3675
15638TIP3    H268330   6.407   5.519   0.915  0.3825  0.7819 -0.0341
15639TIP3   OH268331   1.883   1.900  14.356  0.1164  0.1464 -0.1057
15639TIP3    H168332   1.873   1.937  14.443 -0.1738 -0.7562  0.2634
15639TIP3    H268333   1.810   1.934  14.306 -0.2434 -0.0544  0.2755
15640TIP3   OH268334   0.048   2.131  15.824  0.2073 -0.8343  0.9458
15640TIP3    H168335   0.023   2.131  15.731  1.1111 -0.4055  0.6969
15640TIP3    H268336  -0.012   2.194  15.864 -1.2182 -2.1402  0.9603
15641TIP3   OH268337   2.942   6.251   4.263 -0.0356  0.5590  0.4328
15641TIP3    H168338   2.874   6.306   4.225  0.8816  0.1632 -1.9565
15641TIP3    H268339   3.023   6.301   4.250  0.7414 -1.0326 -1.3303
15642TIP3   OH268340   1.679   0.840   1.405  0.5588 -0.3112 -0.7714
15642TIP3    H168341   1.688   0.754   1.364  2.0628  0.0572 -1.2797
15642TIP3    H268342   1.746   0.893   1.364 -0.2516  1.0822 -0.3526
15643TIP3   OH268343   3.974   2.655   2.772  0.1594  0.4016 -0.3724
15643TIP3    H168344   3.913   2.626   2.704  0.4974 -1.9993  0.2568
15643TIP3    H268345   4.053   2.681   2.724  0.1297 -0.5426 -0.9517
15644TIP3   OH268346   6.509   4.153   2.121  0.1711  0.1913 -0.7136
15644TIP3    H168347   6.512   4.085   2.188  3.2463  0.8994  0.0107
15644TIP3    H268348   6.552   4.113   2.045  0.7663  0.8848 -0.7431
15645TIP3   OH268349   0.186   0.471  14.704  0.0069 -0.4253  0.3109
15645TIP3    H168350   0.255   0.449  14.767  0.8349 -2.0283 -1.0666
15645TIP3    H268351   0.220   0.440  14.620 -1.3334  1.0732 -0.8366
15646TIP3   OH268352   2.121   3.429   5.021 -0.0081  0.1406 -0.4242
15646TIP3    H168353   2.144   3.472   4.939  2.4283  0.5317  0.3750
15646TIP3    H268354   2.205   3.409   5.062 -1.1381 -0.5958  1.7048
15647TIP3   OH268355   0.830   5.336   5.954  0.3963  0.4958  0.5194
15647TIP3    H168356   0.883   5.264   5.920 -1.4942 -0.2172 -1.1331
15647TIP3    H268357   0.742   5.320   5.919 -0.2033  3.3604  0.4572
15648TIP3   OH268358   5.283   4.353  14.736 -0.0773  0.2928 -0.6256
15648TIP3    H168359   5.348   4.369  14.804 -0.9475 -0.8855  0.5228
15648TIP3    H268360   5.333   4.358  14.654  1.2763  0.3027  0.1674
15649TIP3   OH268361   0.090   5.827   4.018 -0.2444  0.4579  0.0847
15649TIP3    H168362   0.076   5.774   3.940 -0.1172  0.7329 -0.1281
15649TIP3    H268363   0.008   5.874   4.030 -0.2588  0.4272  0.1054
15650TIP3   OH268364   6.657   3.454   1.765  0.0268  0.4847  0.0156
15650TIP3    H168365   6.707   3.406   1.831 -1.4223 -1.5235 -0.2406
15650TIP3    H268366   6.710   3.448   1.686  0.6569  0.8012  0.4115
15651TIP3   OH268367   2.379   3.129  16.758  0.1609  0.7929  0.7944
15651TIP3    H168368   2.327   3.055  16.728 -0.9317  1.4059  1.1302
15651TIP3    H268369   2.442   3.145  16.688  0.2980 -0.3355  0.6479
15652TIP3   OH268370   6.108   6.156   2.817 -0.2061 -0.6545  0.9084
15652TIP3    H168371   6.154   6.073   2.825 -0.0453 -0.6026  0.5441
15652TIP3    H268372   6.034   6.136   2.759  0.2575 -0.3751  0.2071
15653TIP3   OH268373   5.254   5.495   1.290 -0.4912 -0.1776  0.1410
15653TIP3    H168374   5.251   5.415   1.238  2.1198  0.0129 -0.4169
15653TIP3    H268375   5.182   5.548   1.257 -0.9919 -1.4558 -0.8977
15654TIP3   OH268376   0.281   5.582   2.185 -0.0062 -0.0650 -0.1234
15654TIP3    H168377   0.344   5.652   2.167  2.2078 -1.7226  0.8028
15654TIP3    H268378   0.256   5.550   2.098 -1.8082  2.3955 -0.6168
15655TIP3   OH268379   6.741   4.499  11.118  0.0830 -0.3882  0.0343
15655TIP3    H168380   6.671   4.488  11.055  0.6606 -1.2141 -0.4793
15655TIP3    H268381   6.770   4.410  11.138  0.3391 -0.1067  0.9720
15656TIP3   OH268382   2.308   4.619   3.108 -0.2131 -0.1900 -0.5573
15656TIP3    H168383   2.348   4.657   3.186 -2.0411 -0.7418  0.7214
15656TIP3    H268384   2.350   4.534   3.097 -1.1278 -0.8727  0.9148
15657TIP3   OH268385   1.896   2.558  13.106  0.3388  0.5557  0.0856
15657TIP3    H168386   1.820   2.572  13.164 -0.2558  1.4027 -0.8715
15657TIP3    H268387   1.888   2.467  13.079  1.7042 -0.4945  2.8050
15658TIP3   OH268388   4.419   5.397  12.922 -0.4570 -0.0569 -0.4255
15658TIP3    H168389   4.411   5.485  12.959 -0.8771 -0.5495  0.6792
15658TIP3    H268390   4.331   5.376  12.890 -0.4439 -0.2247 -0.3507
15659TIP3   OH268391   5.001   3.475   5.407  0.2471 -0.5634  0.1191
15659TIP3    H168392   5.077   3.423   5.432  0.1773 -1.8953 -2.1949
15659TIP3    H268393   5.028   3.521   5.328 -0.8643  0.2017  0.1525
15660TIP3   OH268394   1.085   5.160  11.522  0.0844  0.4096 -0.0880
15660TIP3    H168395   1.099   5.255  11.525  1.2144  0.2303  1.1851
15660TIP3    H268396   1.162   5.123  11.565 -0.3299 -1.0997 -0.5804
15661TIP3   OH268397   1.209   5.498  12.145  0.0030 -0.1184  0.0994
15661TIP3    H168398   1.238   5.476  12.234 -1.2131  1.0715  0.8341
15661TIP3    H268399   1.214   5.416  12.097 -0.8526 -1.1726  1.7044
15662TIP3   OH268400   0.685   3.157  15.239  0.2015  0.3675  0.1315
15662TIP3    H168401   0.616   3.222  15.225 -1.2700 -1.1421  0.0074
15662TIP3    H268402   0.732   3.188  15.316 -0.2292  1.7538 -0.1378
15663TIP3   OH268403   6.030   6.515   4.032  0.1283  0.0774  0.2283
15663TIP3    H168404   5.947   6.494   3.989  0.1799 -2.1113  1.0457
15663TIP3    H268405   6.014   6.597   4.078 -1.4002 -0.0194 -0.0898
15664TIP3   OH268406   1.402   2.066   3.206  0.2635  0.0880  0.8027
15664TIP3    H168407   1.490   2.089   3.236  0.5442 -0.7237  0.6116
15664TIP3    H268408   1.409   1.975   3.179 -0.8839 -0.2791  1.7033
15665TIP3   OH268409   3.871   5.489   2.068 -0.5328  0.2011  0.4550
15665TIP3    H168410   3.778   5.469   2.066 -1.0780  2.4530 -0.2877
15665TIP3    H268411   3.882   5.538   2.150  0.1480 -0.6545  0.8805
15666TIP3   OH268412   1.645   2.208   3.269 -0.1806 -0.1678 -0.1416
15666TIP3    H168413   1.661   2.278   3.206  1.2750 -1.3959 -1.2346
15666TIP3    H268414   1.706   2.226   3.340  0.9718 -0.8479 -0.9143
15667TIP3   OH268415   0.139   1.846  13.275 -0.1815 -0.2843  0.3479
15667TIP3    H168416   0.152   1.867  13.368 -0.4636  0.6284  0.1877
15667TIP3    H268417   0.182   1.761  13.264 -1.9483 -1.4834  1.8047
15668TIP3   OH268418   5.651   4.504   3.928 -0.2482  0.4638  0.0167
15668TIP3    H168419   5.720   4.458   3.976 -1.2830 -0.0340  1.0852
15668TIP3    H268420   5.607   4.437   3.877  0.0035  0.7699 -0.6167
15669TIP3   OH268421   1.602   3.871   0.473 -0.1910 -0.0519  0.3695
15669TIP3    H168422   1.685   3.908   0.443  1.3579 -1.9468  2.0032
15669TIP3    H268423   1.558   3.944   0.518  1.9434  0.3543  1.9827
15670TIP3   OH268424   5.199   3.546   4.739  0.3620 -0.4216  0.9544
15670TIP3    H168425   5.206   3.481   4.669 -2.7348 -0.5344  0.6248
15670TIP3    H268426   5.214   3.630   4.694 -3.6692 -0.2641 -0.5528
15671TIP3   OH268427   3.705   0.866   6.550  0.7951 -0.4451  0.5550
15671TIP3    H168428   3.614   0.884   6.573 -0.1093 -0.7063 -2.3877
15671TIP3    H268429   3.748   0.952   6.553  1.1361 -0.5925  4.0952
15672TIP3   OH268430   4.584   0.619  12.388  0.3850 -0.4194 -0.4547
15672TIP3    H168431   4.509   0.678  12.385 -0.6435 -1.6642 -0.2211
15672TIP3    H268432   4.624   0.634  12.474 -0.7247 -1.0415  0.1986
15673TIP3   OH268433   5.645   4.887   6.402  0.4661  0.2800  0.1377
15673TIP3    H168434   5.660   4.855   6.490 -0.8473 -2.3122 -0.4730
15673TIP3    H268435   5.727   4.869   6.355  1.2473  1.8784  0.8274
15674TIP3   OH268436   4.013   5.900   1.162 -0.1238 -0.5087 -0.5169
15674TIP3    H168437   4.015   5.900   1.258 -0.9520  1.1652 -0.4735
15674TIP3    H268438   3.988   5.989   1.138  0.3844 -0.8104 -2.3154
15675TIP3   OH268439   4.842   2.102  14.724 -0.5981 -0.0437 -0.0074
15675TIP3    H168440   4.760   2.053  14.734 -0.8357  0.3558  0.0486
15675TIP3    H268441   4.846   2.157  14.802 -0.3429  0.0340 -0.0760
15676TIP3   OH268442   4.969   0.904   2.411  0.1377  0.1920  0.0572
15676TIP3    H168443   5.008   0.984   2.446  0.8254 -0.5919  1.1638
15676TIP3    H268444   4.970   0.843   2.485 -1.3309 -0.5105 -0.4699
15677TIP3   OH268445   5.642   1.675  15.896  0.0236 -0.1265 -0.4168
15677TIP3    H168446   5.691   1.595  15.876  0.0343 -0.3664  0.5103
15677TIP3    H268447   5.589   1.691  15.819  1.2402 -0.1025 -1.2753
15678TIP3   OH268448   3.373   4.662  12.427 -0.2219  0.6096 -0.0062
15678TIP3    H168449   3.423   4.612  12.492 -0.9179 -1.2274 -0.8132
15678TIP3    H268450   3.429   4.663  12.349  0.4124  2.4086  0.4222
15679TIP3   OH268451   2.407   1.665  17.172  0.3937  0.2369 -0.7721
15679TIP3    H168452   2.372   1.603  17.236  1.1567  0.1434 -0.4314
15679TIP3    H268453   2.404   1.750  17.217 -0.6224  0.4534 -1.2287
15680TIP3   OH268454   0.487   5.131  17.104 -0.1623 -0.4009  0.1585
15680TIP3    H168455   0.463   5.222  17.118 -1.3558 -0.5362 -0.7993
15680TIP3    H268456   0.404   5.083  17.109  0.2283 -1.2306 -0.8502
15681TIP3   OH268457   5.330   0.289   5.694 -0.4862 -0.2266  0.1141
15681TIP3    H168458   5.335   0.363   5.633 -0.7192 -1.7029 -1.7986
15681TIP3    H268459   5.236   0.269   5.699 -0.5544  0.3343  1.5984
15682TIP3   OH268460   1.880   6.702  14.796 -0.3479 -0.4269 -0.3723
15682TIP3    H168461   1.905   6.769  14.732 -0.1361 -1.1572 -1.0594
15682TIP3    H268462   1.818   6.747  14.854  1.5470  1.0574  0.6249
15683TIP3   OH268463   0.835   1.145   1.179 -0.4594  0.0352  0.0456
15683TIP3    H168464   0.762   1.101   1.220 -1.2922  1.6895  0.4137
15683TIP3    H268465   0.797   1.190   1.103  0.3231  0.2586 -0.2279
15684TIP3   OH268466   1.583   1.842   3.493  0.5067  0.0117 -0.3891
15684TIP3    H168467   1.547   1.773   3.549 -0.5816  0.0096 -1.0500
15684TIP3    H268468   1.643   1.890   3.549 -1.0384  0.4155  0.9823
15685TIP3   OH268469   5.627   5.361  14.094  0.2400  0.0711  0.1247
15685TIP3    H168470   5.718   5.390  14.082  0.5499 -0.1643  1.7105
15685TIP3    H268471   5.635   5.270  14.120 -0.5436 -0.3552 -1.0817
15686TIP3   OH268472   3.071   2.800   4.431 -0.1074  0.2489 -0.9009
15686TIP3    H168473   3.044   2.856   4.358 -0.5903 -1.8573 -2.4106
15686TIP3    H268474   3.162   2.777   4.412 -0.1972 -0.2180 -0.7823
15687TIP3   OH268475   1.244   3.672   5.103  0.7234  0.1690  0.2144
15687TIP3    H168476   1.332   3.709   5.100  0.6384  0.7437  2.4935
15687TIP3    H268477   1.238   3.632   5.190 -1.0828 -0.3421 -0.0971
15688TIP3   OH268478   5.596   6.492   3.190  0.4090  0.2339 -0.5605
15688TIP3    H168479   5.518   6.438   3.198 -0.4082  1.3855 -0.4840
15688TIP3    H268480   5.610   6.527   3.278  1.5812 -0.6916 -0.3517
15689TIP3   OH268481   3.355   4.054   4.704  0.3990  0.3737  0.0258
15689TIP3    H168482   3.409   3.993   4.653 -1.3240 -1.2039 -0.0174
15689TIP3    H268483   3.417   4.121   4.734  2.3441 -1.2234 -0.1799
15690TIP3   OH268484   6.391   0.825  13.367  0.5533  0.0308  0.3922
15690TIP3    H168485   6.458   0.799  13.429  1.9203  0.8491 -0.6739
15690TIP3    H268486   6.421   0.909  13.333 -1.5588  0.9438  0.6335
15691TIP3   OH268487   5.097   3.971   1.581  0.1351  0.0274 -0.1484
15691TIP3    H168488   5.164   4.003   1.521  0.0073  1.1916  0.3187
15691TIP3    H268489   5.017   4.018   1.555 -0.1752 -0.2923  0.2114
15692TIP3   OH268490   3.643   4.816   6.048 -0.5917  0.1502 -0.3460
15692TIP3    H168491   3.629   4.722   6.058 -1.1359  0.0325 -1.9947
15692TIP3    H268492   3.620   4.853   6.134  1.1325 -1.3401  0.8304
15693TIP3   OH268493   5.532   3.693  15.097 -0.0708 -0.0017  0.1651
15693TIP3    H168494   5.458   3.743  15.060 -0.2988  1.0361  1.8993
15693TIP3    H268495   5.494   3.610  15.124 -0.1210 -0.3419 -0.8881
15694TIP3   OH268496   4.006   3.926  12.226 -0.0601  0.0365  0.0752
15694TIP3    H168497   4.050   3.842  12.212 -1.0629 -0.4553 -0.2155
15694TIP3    H268498   4.061   3.972  12.289  1.8067  0.1633 -1.5400
15695TIP3   OH268499   6.671   0.392   0.910 -0.2567 -0.1014  0.0736
15695TIP3    H168500   6.602   0.344   0.955 -0.1461 -0.3603 -0.0308
15695TIP3    H268501   6.742   0.328   0.900  0.2244  0.3204  0.6985
15696TIP3   OH268502   3.956   4.054  15.517  0.3623 -0.0555 -0.4094
15696TIP3    H168503   3.875   4.084  15.476  0.4530 -0.3993 -0.8526
15696TIP3    H268504   3.944   4.073  15.610 -0.8127 -1.3672 -0.2577
15697TIP3   OH268505   6.642   3.838   2.834  0.1873 -0.4554 -0.1440
15697TIP3    H168506   6.636   3.744   2.816  1.2204 -0.3912 -0.9383
15697TIP3    H268507   6.686   3.843   2.919  1.2035 -0.7034 -0.6284
15698TIP3   OH268508   4.813   0.719   2.003  0.2496  0.1228  0.2637
15698TIP3    H168509   4.873   0.744   2.072 -0.8876 -0.7516  1.6200
15698TIP3    H268510   4.743   0.784   2.006 -0.5123 -0.7029  0.9040
15699TIP3   OH268511   1.374   3.319  15.470  0.1950  0.6926  0.3599
15699TIP3    H168512   1.384   3.414  15.477  0.2612  0.8922 -1.8990
15699TIP3    H268513   1.399   3.299  15.380 -0.6418 -1.3672  0.5440
15700TIP3   OH268514   4.868   6.045  14.550 -0.0026  0.0963 -0.0751
15700TIP3    H168515   4.952   6.063  14.591 -0.0812 -2.0399  1.1894
15700TIP3    H268516   4.825   6.130  14.544  1.4945  0.9663  0.9559
15701TIP3   OH268517   5.681   4.080  11.746 -0.6527  0.2015 -0.3578
15701TIP3    H168518   5.757   4.027  11.768 -2.6899 -1.7020  2.8308
15701TIP3    H268519   5.714   4.170  11.746  2.3222 -0.6698 -3.1999
15702TIP3   OH268520   5.865   4.060  11.115  0.6362  0.1667  0.4315
15702TIP3    H168521   5.889   4.150  11.095  0.8386  0.2777  1.1651
15702TIP3    H268522   5.773   4.065  11.143  0.2428 -0.0351 -0.7271
15703TIP3   OH268523   6.397   0.729  13.119  0.5335  0.3009  0.8912
15703TIP3    H168524   6.475   0.696  13.165 -0.3234 -0.5349  1.7907
15703TIP3    H268525   6.340   0.761  13.189 -1.2308 -1.8941  0.5879
15704TIP3   OH268526   3.037   6.454   5.161 -0.0612  0.3936  0.1468
15704TIP3    H168527   3.131   6.445   5.143 -0.2916  0.7833 -1.3267
15704TIP3    H268528   3.021   6.390   5.231  1.4959  1.0682  1.1877
15705TIP3   OH268529   2.051   6.587   0.711  0.7141 -0.4553  0.4518
15705TIP3    H168530   2.105   6.512   0.737  1.1232 -0.1557  0.4878
15705TIP3    H268531   2.108   6.663   0.725  0.3177 -0.1418  0.3803
15706TIP3   OH268532   4.648   0.196   6.432 -0.2839 -0.0802  0.4446
15706TIP3    H168533   4.677   0.201   6.523 -0.4646 -1.7424  0.6218
15706TIP3    H268534   4.728   0.209   6.381 -0.3718  2.1724  0.7575
15707TIP3   OH268535   4.917   0.010   2.038  0.3019 -1.0249 -0.4638
15707TIP3    H168536   4.924   0.059   2.120 -0.4576  0.7260 -1.3986
15707TIP3    H268537   4.823   0.010   2.019  0.1077 -3.9231  0.0768
15708TIP3   OH268538   5.446   0.136  14.557 -0.0788  0.1777  0.2785
15708TIP3    H168539   5.493   0.213  14.590 -0.8680  0.8222 -0.0588
15708TIP3    H268540   5.407   0.097  14.636 -1.6597  1.5071  0.2187
15709TIP3   OH268541   3.190   3.761   2.382  0.2603  0.4859 -0.1586
15709TIP3    H168542   3.237   3.821   2.440  2.0954 -0.7139 -0.3213
15709TIP3    H268543   3.164   3.816   2.308  0.3022  1.4507  0.5182
15710TIP3   OH268544   5.393   4.445  15.521 -0.0201  0.2499  0.0729
15710TIP3    H168545   5.413   4.356  15.550 -1.9034  0.2305  1.4769
15710TIP3    H268546   5.363   4.434  15.430 -2.1509 -0.8914  0.8402
15711TIP3   OH268547   0.073   4.194  14.289 -0.5018  0.1504 -0.1132
15711TIP3    H168548  -0.000   4.236  14.334 -1.5026 -0.7257 -0.8664
15711TIP3    H268549   0.053   4.101  14.293  0.4114 -0.0829 -0.6237
15712TIP3   OH268550   1.630   2.070  12.927  0.7123  0.2529 -0.5106
15712TIP3    H168551   1.705   2.088  12.869  0.8691 -0.8632 -0.6910
15712TIP3    H268552   1.554   2.102  12.879  1.0265  0.9798 -0.5305
15713TIP3   OH268553   2.105   0.800   2.114  0.1516  0.3267 -0.3714
15713TIP3    H168554   2.056   0.811   2.033  3.0555  1.4759 -2.1445
15713TIP3    H268555   2.062   0.859   2.176 -0.3736  1.7836 -2.0244
15714TIP3   OH268556   6.138   6.624  14.119  0.1434  0.0645  0.4970
15714TIP3    H168557   6.113   6.717  14.121  0.1574  0.0810  0.0377
15714TIP3    H268558   6.059   6.579  14.089  0.6165  0.1067 -0.8878
15715TIP3   OH268559   5.493   5.270   6.274 -0.2462 -0.4736  0.6518
15715TIP3    H168560   5.575   5.237   6.310  0.5993  0.7694 -0.0632
15715TIP3    H268561   5.425   5.216   6.315  0.9297 -1.6441  1.1211
15716TIP3   OH268562   4.136   1.061  17.045  0.8768  0.0886  0.1542
15716TIP3    H168563   4.113   0.997  17.113 -1.4133  0.0671 -0.5529
15716TIP3    H268564   4.228   1.045  17.026  0.2944 -3.3230 -0.3111
15717TIP3   OH268565   6.455   5.167   3.343  0.9200 -0.1032  0.0809
15717TIP3    H168566   6.542   5.129   3.326  1.2738  0.4043  0.7130
15717TIP3    H268567   6.400   5.092   3.366  1.3127 -0.3712  0.1597
15718TIP3   OH268568   0.226   0.067  11.658  0.2454 -0.1609  0.3198
15718TIP3    H168569   0.165   0.055  11.731  1.3467 -0.4077  1.2234
15718TIP3    H268570   0.279  -0.013  11.658  0.9640  0.3102 -0.0703
15719TIP3   OH268571   0.999   0.110   3.191  0.6212  0.4987 -0.2904
15719TIP3    H168572   0.961   0.197   3.180  0.0545  0.0971 -1.7656
15719TIP3    H268573   1.014   0.079   3.101 -2.6497 -2.4325 -0.0325
15720TIP3   OH268574   4.939   1.469   1.033  0.2909  0.0592 -0.4113
15720TIP3    H168575   4.988   1.534   1.083  0.7448  0.3575 -1.2187
15720TIP3    H268576   5.007   1.417   0.989 -0.0812 -0.5868 -0.2287
15721TIP3   OH268577   0.843   4.043   1.878  0.3361 -0.1380  0.2467
15721TIP3    H168578   0.827   4.137   1.887  0.7111  0.0820 -1.0898
15721TIP3    H268579   0.900   4.021   1.952  0.1097  0.6544  0.6628
15722TIP3   OH268580   6.070   0.343   0.854 -0.5120 -0.4529  0.5504
15722TIP3    H168581   6.022   0.344   0.937 -0.0537 -1.1412  0.8332
15722TIP3    H268582   6.104   0.254   0.847 -2.0626 -0.9554 -1.2862
15723TIP3   OH268583   4.942   1.467  13.468  0.0035  0.0323  0.2899
15723TIP3    H168584   4.937   1.535  13.535  1.3516  1.9091 -1.3791
15723TIP3    H268585   4.868   1.486  13.410 -0.4973 -0.8883  0.6052
15724TIP3   OH268586   0.852   0.732  16.437  0.2423 -0.0528  0.2578
15724TIP3    H168587   0.910   0.663  16.402 -0.1426 -0.1768 -0.1493
15724TIP3    H268588   0.902   0.813  16.426  0.0430 -0.0607 -0.8099
15725TIP3   OH268589   4.976   5.697   5.661  0.2318 -0.4796 -0.6188
15725TIP3    H168590   4.996   5.732   5.574 -0.5058 -0.0424 -0.6250
15725TIP3    H268591   4.883   5.676   5.658  0.0831 -0.0120  0.2045
15726TIP3   OH268592   3.426   6.744   2.501 -0.2346  0.3811  0.0560
15726TIP3    H168593   3.437   6.802   2.577  0.2329  0.2411  0.1032
15726TIP3    H268594   3.333   6.724   2.498 -0.4667  1.4501 -0.1924
15727TIP3   OH268595   3.717   0.050   6.917 -0.0879 -0.1689  0.1562
15727TIP3    H168596   3.769   0.054   6.837  0.0557  0.3350  0.2718
15727TIP3    H268597   3.723  -0.041   6.946  0.8531 -0.0801  0.2553
15728TIP3   OH268598   1.728   5.152   4.049 -0.3616 -0.2411 -0.0440
15728TIP3    H168599   1.763   5.082   4.104  0.3006 -0.7390 -1.0680
15728TIP3    H268600   1.665   5.197   4.105  1.7014  0.5346  1.8400
15729TIP3   OH268601   6.007   3.718  15.834  0.6901 -0.0183 -0.1715
15729TIP3    H168602   5.919   3.680  15.833  0.2962  0.4914  2.9978
15729TIP3    H268603   6.060   3.654  15.882  2.1514 -0.3809 -2.1546
15730TIP3   OH268604   1.711   4.384   2.420  0.9405 -0.3834  0.6319
15730TIP3    H168605   1.678   4.471   2.400  1.2109 -0.1741  1.0745
15730TIP3    H268606   1.632   4.330   2.428  0.7704 -0.1684  0.4042
15731TIP3   OH268607   0.841   3.428   0.401 -0.1029 -0.1486 -0.3783
15731TIP3    H168608   0.839   3.333   0.412 -0.1160 -0.2025 -0.8124
15731TIP3    H268609   0.765   3.448   0.347  0.4913 -0.0203 -1.1876
15732TIP3   OH268610   2.553   5.739   5.005  0.0699  0.0326 -0.4917
15732TIP3    H168611   2.567   5.833   5.010 -0.6786  0.4088 -3.5336
15732TIP3    H268612   2.538   5.721   4.912 -1.8807 -2.7971  0.2199
15733TIP3   OH268613   2.735   4.790   2.016  0.3103 -0.0884  0.6765
15733TIP3    H168614   2.737   4.880   2.049  2.3979  0.0445  0.3365
15733TIP3    H268615   2.744   4.735   2.095  1.6845  0.1202  0.6953
15734TIP3   OH268616   6.218   1.928   3.623 -0.6682 -0.1684  0.0388
15734TIP3    H168617   6.261   1.950   3.706  1.3102 -1.8822 -0.4399
15734TIP3    H268618   6.260   1.986   3.559 -1.8129  0.7759  0.1054
15735TIP3   OH268619   3.345   1.412  16.828 -0.2876 -0.0052 -0.0614
15735TIP3    H168620   3.354   1.504  16.851  0.3488 -0.0697 -0.0334
15735TIP3    H268621   3.424   1.371  16.864  0.5644 -0.1852 -2.0304
15736TIP3   OH268622   2.608   0.494  12.123 -0.4113 -0.5451  0.3873
15736TIP3    H168623   2.563   0.413  12.150  0.4965 -0.5872  1.9422
15736TIP3    H268624   2.700   0.477  12.143 -0.1216  0.6372  0.0989
15737TIP3   OH268625   2.534   0.861   6.722 -0.2418  0.0221 -0.1640
15737TIP3    H168626   2.578   0.777   6.712 -1.5119 -0.6588 -0.2827
15737TIP3    H268627   2.604   0.923   6.745  0.4236 -1.5380  2.4791
15738TIP3   OH268628   1.223   5.907   1.386  0.2685  0.5197 -0.6316
15738TIP3    H168629   1.177   5.853   1.322  0.8293 -0.9825  0.2008
15738TIP3    H268630   1.246   5.847   1.456 -1.9679  2.4352  1.9644
15739TIP3   OH268631   0.725   5.768   0.993  0.8228 -0.5127  0.2833
15739TIP3    H168632   0.691   5.855   1.012  0.5749 -0.4414 -0.4817
15739TIP3    H268633   0.775   5.745   1.071  0.9525  0.3440  0.4627
15740TIP3   OH268634   4.753   4.082   1.026  0.5835  0.1135  0.0745
15740TIP3    H168635   4.772   4.028   0.949  0.8184 -2.6478  1.9450
15740TIP3    H268636   4.789   4.168   1.004  0.8493 -0.6224 -2.7852
15741TIP3   OH268637   3.349   3.554  11.666  0.1627 -0.2792 -0.1477
15741TIP3    H168638   3.430   3.513  11.698  0.3352  0.7484  0.7852
15741TIP3    H268639   3.342   3.525  11.575  1.5776 -0.3933 -0.2414
15742TIP3   OH268640   5.151   0.644   1.528 -0.3348  0.3609 -0.3928
15742TIP3    H168641   5.244   0.664   1.538 -0.3154  1.2105 -1.8849
15742TIP3    H268642   5.149   0.555   1.492  0.0221  1.0091 -2.1115
15743TIP3   OH268643   4.753   1.054   0.858  0.2935 -0.2082 -0.6156
15743TIP3    H168644   4.699   1.133   0.859  1.5054  0.6426 -0.5240
15743TIP3    H268645   4.695   0.985   0.825 -0.8685  0.6468 -0.3930
15744TIP3   OH268646   3.138   0.562  16.919  0.1252 -0.1599 -0.1004
15744TIP3    H168647   3.126   0.622  16.846 -2.0958  1.1618  1.2317
15744TIP3    H268648   3.070   0.496  16.908  0.4966 -0.5868  0.1542
15745TIP3   OH268649   3.600   2.643  17.031  0.0308  0.4960 -0.7644
15745TIP3    H168650   3.592   2.725  17.079 -0.5624  0.5596 -0.9772
15745TIP3    H268651   3.566   2.661  16.944 -0.9127 -0.1931 -0.5594
15746TIP3   OH268652   5.587   5.897  17.119 -0.4980 -0.1000  0.1071
15746TIP3    H168653   5.567   5.877  17.211  0.6481  0.7877  0.5893
15746TIP3    H268654   5.604   5.991  17.119 -1.5823  0.1301 -1.2522
15747TIP3   OH268655   1.850   5.003  15.195 -0.0266 -0.0176 -0.5024
15747TIP3    H168656   1.858   5.005  15.099 -0.4192 -0.1554 -0.5364
15747TIP3    H268657   1.903   5.078  15.224  1.2782 -0.8192 -0.7435
15748TIP3   OH268658   2.987   4.326  12.731  0.1328  0.4785  0.0876
15748TIP3    H168659   2.936   4.247  12.749  0.3720  0.9191  3.1961
15748TIP3    H268660   3.056   4.297  12.670  0.5367 -1.8733  1.5424
15749TIP3   OH268661   2.088   4.977   3.676  0.2157  0.1562  0.3606
15749TIP3    H168662   2.150   4.916   3.635  1.2571  1.6241 -0.3839
15749TIP3    H268663   2.004   4.959   3.634  0.9065  0.4677 -1.2187
15750TIP3   OH268664   6.639   4.688  11.315  0.2479 -0.3219  0.2720
15750TIP3    H168665   6.679   4.604  11.291  0.0490  0.2955 -2.4358
15750TIP3    H268666   6.547   4.678  11.293 -0.8462 -0.9246  4.3322
15751TIP3   OH268667   0.317   3.102   4.731  0.0833 -0.5514 -0.3120
15751TIP3    H168668   0.231   3.141   4.713 -0.3209 -1.5479 -0.6210
15751TIP3    H268669   0.334   3.122   4.823  0.3482  1.1988 -0.7188
15752TIP3   OH268670   6.702   6.402   0.291  0.1812 -0.2743 -0.4419
15752TIP3    H168671   6.730   6.442   0.373  1.0309 -0.0998 -0.7985
15752TIP3    H268672   6.716   6.308   0.303 -0.3422 -0.3115 -0.1455
15753TIP3   OH268673   1.060   5.133   1.773  0.7142  0.3660 -0.1038
15753TIP3    H168674   1.004   5.116   1.849  0.6624 -1.7173 -0.5286
15753TIP3    H268675   1.008   5.101   1.698  1.8690 -0.2651 -0.6658
15754TIP3   OH268676   6.023   2.383  11.401 -0.3563  0.1606  0.1323
15754TIP3    H168677   6.049   2.473  11.422  0.2694 -0.1446  0.6947
15754TIP3    H268678   6.067   2.329  11.466 -0.2415 -0.6178 -0.5681
15755TIP3   OH268679   1.075   4.313  14.524  0.1124  0.0140  0.4285
15755TIP3    H168680   1.011   4.255  14.567 -0.2893  0.1486  0.0264
15755TIP3    H268681   1.106   4.263  14.449 -2.3756  1.3266 -1.6307
15756TIP3   OH268682   5.664   1.492   4.153 -0.2416 -0.0070 -0.2685
15756TIP3    H168683   5.714   1.507   4.234 -1.5446 -1.5764  0.8823
15756TIP3    H268684   5.708   1.417   4.112 -0.1649  0.1753 -0.5183
15757TIP3   OH268685   1.092   1.593  14.787  0.3084  0.3470 -0.4210
15757TIP3    H168686   1.048   1.553  14.711  0.3040 -1.9181  0.6917
15757TIP3    H268687   1.157   1.528  14.813  0.7764  1.3905  1.1045
15758TIP3   OH268688   2.843   1.606  14.491 -0.0904  0.5295  0.5917
15758TIP3    H168689   2.774   1.672  14.500 -2.1588 -1.4069 -0.0425
15758TIP3    H268690   2.865   1.608  14.398 -1.1811 -0.5447  0.2747
15759TIP3   OH268691   0.431   5.447   4.126 -0.1670 -0.0318 -0.0351
15759TIP3    H168692   0.406   5.534   4.094  2.4865  0.8421  0.0487
15759TIP3    H268693   0.427   5.391   4.049  0.5151  0.7346 -0.6415
15760TIP3   OH268694   0.408   4.166  17.400 -0.1731 -0.4166  0.1073
15760TIP3    H168695   0.484   4.222  17.415 -0.7865  0.1054  1.3989
15760TIP3    H268696   0.433   4.111  17.325  1.6558 -0.6015  0.7980
15761TIP3   OH268697   0.540   1.801   5.560 -0.3270 -0.6134 -1.1916
15761TIP3    H168698   0.548   1.864   5.488 -0.4790  0.4104 -0.3253
15761TIP3    H268699   0.522   1.854   5.637 -1.1081 -1.7706 -0.5443
15762TIP3   OH268700   2.541   6.573  12.778  0.5216  0.3802  0.6382
15762TIP3    H168701   2.524   6.502  12.840  1.8651 -0.1973  0.3764
15762TIP3    H268702   2.601   6.535  12.713 -0.9851  0.9206 -1.1375
15763TIP3   OH268703   6.081   3.100   0.421  0.2792 -0.1545 -0.5128
15763TIP3    H168704   6.116   3.127   0.506 -0.4000  0.7467 -0.5015
15763TIP3    H268705   5.995   3.063   0.441  1.6402 -3.5194 -0.3989
15764TIP3   OH268706   6.101   2.787   2.256 -0.5133 -0.4219 -0.0204
15764TIP3    H168707   6.084   2.843   2.332 -0.6915 -0.3835 -0.0883
15764TIP3    H268708   6.044   2.711   2.269  0.2750 -0.9518  0.4565
15765TIP3   OH268709   6.661   1.089   0.332  0.9368  0.2517 -0.0701
15765TIP3    H168710   6.653   0.997   0.309 -0.1888  0.1388  0.7255
15765TIP3    H268711   6.571   1.119   0.342  1.2774  0.3786  3.8376
15766TIP3   OH268712   5.738   1.950  15.950 -0.0690  0.8514  0.6164
15766TIP3    H168713   5.746   1.988  15.863 -1.1608  1.8942  0.9337
15766TIP3    H268714   5.708   1.861  15.935  1.4365  0.4353 -0.1096
15767TIP3   OH268715   4.805   3.054  11.712  0.1573  0.0992  0.0302
15767TIP3    H168716   4.748   3.018  11.643 -1.1814  0.6802  0.7852
15767TIP3    H268717   4.840   3.135  11.674 -0.1931  0.1665 -0.1591
15768TIP3   OH268718   3.226   4.147  15.741 -0.2216  0.0619  0.0424
15768TIP3    H168719   3.297   4.105  15.692  0.4678  0.7414  0.4390
15768TIP3    H268720   3.260   4.155  15.830 -0.7541  0.4822  0.2103
15769TIP3   OH268721   0.679   1.417  12.605  0.4399 -0.8469 -0.8228
15769TIP3    H168722   0.592   1.409  12.644  1.6199 -0.0323  2.2007
15769TIP3    H268723   0.678   1.503  12.561  0.0407 -0.3750  0.0931
15770TIP3   OH268724   4.009   5.244   0.224  0.1308 -0.0467  0.1857
15770TIP3    H168725   4.040   5.294   0.148  0.4503 -0.4121  0.0690
15770TIP3    H268726   4.031   5.153   0.202 -0.7951 -0.2858  0.2192
15771TIP3   OH268727   6.424   5.957   5.241  0.0366 -0.0395  0.4519
15771TIP3    H168728   6.411   5.932   5.333  1.3403  0.1250  0.7055
15771TIP3    H268729   6.417   5.875   5.193  1.2303 -0.4590  0.9377
15772TIP3   OH268730   1.293   5.636   2.436  0.5993 -0.2639 -0.2352
15772TIP3    H168731   1.383   5.618   2.408  1.1003  0.9394  0.5045
15772TIP3    H268732   1.291   5.731   2.450 -0.7651 -0.2868 -0.1526
15773TIP3   OH268733   0.417   0.813  14.043 -0.4960 -0.2146 -0.3417
15773TIP3    H168734   0.472   0.780  14.114 -0.1062 -0.8549 -0.9241
15773TIP3    H268735   0.353   0.744  14.028 -0.8981  0.1407 -0.2712
15774TIP3   OH268736   3.848   3.834   4.005  0.1003 -0.2382 -0.2667
15774TIP3    H168737   3.773   3.867   3.956  0.1538  1.1449  0.5501
15774TIP3    H268738   3.810   3.789   4.080  0.0201  2.7688  1.6468
15775TIP3   OH268739   2.903   0.503   5.781 -0.4012 -0.0859  0.0463
15775TIP3    H168740   2.935   0.592   5.767  0.9613 -0.5602 -0.0415
15775TIP3    H268741   2.927   0.483   5.871  0.8036 -0.9268 -0.4341
15776TIP3   OH268742   0.126   5.162  11.435 -0.4569 -0.2654 -0.1187
15776TIP3    H168743   0.131   5.093  11.369  0.8438 -0.5653  0.2773
15776TIP3    H268744   0.096   5.239  11.386 -0.1502 -0.6534 -0.9325
15777TIP3   OH268745   1.455   5.245   1.310  0.0499 -0.2674  0.0771
15777TIP3    H168746   1.375   5.295   1.297  0.4994  0.2010 -1.0828
15777TIP3    H268747   1.459   5.229   1.404 -1.6164 -0.6921  0.0916
15778TIP3   OH268748   4.813   3.634   4.454  0.3175  0.3795 -0.1978
15778TIP3    H168749   4.788   3.652   4.544  0.8966 -0.1841  0.0848
15778TIP3    H268750   4.833   3.540   4.453  2.4427  0.7920 -0.3755
15779TIP3   OH268751   1.562   4.870  15.204 -0.1452 -0.1726  1.0074
15779TIP3    H168752   1.514   4.866  15.287  0.2461 -3.4051  1.2079
15779TIP3    H268753   1.652   4.888  15.230 -0.1228 -0.6108  1.2456
15780TIP3   OH268754   4.985   5.539  11.664  0.3842  0.1688 -0.0047
15780TIP3    H168755   5.025   5.626  11.657  0.8176  0.0557  0.9378
15780TIP3    H268756   4.979   5.508  11.573  0.7872  0.9309 -0.3011
15781TIP3   OH268757   1.161   1.598  15.375 -1.1855 -0.2536 -0.1594
15781TIP3    H168758   1.170   1.507  15.347 -1.5294 -0.1091 -0.7538
15781TIP3    H268759   1.213   1.648  15.313 -0.1015 -0.1373  0.8123
15782TIP3   OH268760   1.416   3.718   5.683 -0.4971 -0.2467  0.1575
15782TIP3    H168761   1.479   3.730   5.753 -0.5230 -0.0608  0.1493
15782TIP3    H268762   1.386   3.627   5.693  1.9211 -1.3453 -1.6175
15783TIP3   OH268763   6.278   4.047  13.827 -0.1395 -0.1426 -0.8825
15783TIP3    H168764   6.282   4.134  13.786 -0.6357  0.1604 -0.3030
15783TIP3    H268765   6.228   3.994  13.765  1.0072 -0.2923 -1.7061
15784TIP3   OH268766   5.133   2.437  16.971  0.2571  0.1426  0.3955
15784TIP3    H168767   5.110   2.393  16.889  1.4703 -1.6045  0.9369
15784TIP3    H268768   5.067   2.405  17.033 -0.3111  1.0156  0.2621
15785TIP3   OH268769   5.224   4.411   2.055  0.2644 -0.5362 -0.6275
15785TIP3    H168770   5.170   4.355   1.999  3.0667 -2.3285 -1.7571
15785TIP3    H268771   5.223   4.368   2.141 -0.3312 -0.3701 -0.5468
15786TIP3   OH268772   0.187   4.343  17.341  0.6915 -0.1914 -0.1104
15786TIP3    H168773   0.110   4.291  17.363 -0.0984  1.0119  0.0773
15786TIP3    H268774   0.259   4.280  17.337 -0.4672 -1.4975 -1.3330
15787TIP3   OH268775   6.276   0.968   1.036 -0.0192 -0.1552  0.4610
15787TIP3    H168776   6.353   1.011   1.074 -0.0248  1.1003 -0.8825
15787TIP3    H268777   6.214   0.962   1.109  1.0149 -0.4048  1.3486
15788TIP3   OH268778   3.959   3.591  11.893 -0.0693  0.4345  0.1604
15788TIP3    H168779   3.944   3.674  11.849 -2.7869 -1.3162 -2.6964
15788TIP3    H268780   3.918   3.526  11.835  1.8645 -2.9070  2.2265
15789TIP3   OH268781   2.111   6.427   0.429  0.4111  0.0489  0.1911
15789TIP3    H168782   2.122   6.518   0.456  0.5445 -0.3636  1.6076
15789TIP3    H268783   2.192   6.384   0.456 -0.7579 -1.0694  2.2157
15790TIP3   OH268784   0.286   4.978  13.385  0.8876  0.1496  1.0710
15790TIP3    H168785   0.353   5.041  13.410 -0.9301  1.9857  1.6397
15790TIP3    H268786   0.203   5.021  13.408 -0.5955 -1.2090 -1.3275
15791TIP3   OH268787   3.922   2.582  10.961 -0.1530  0.3783 -0.8944
15791TIP3    H168788   3.968   2.666  10.967 -0.4314  0.4471  1.3451
15791TIP3    H268789   3.947   2.546  10.876  0.9201  2.1861 -1.3862
15792TIP3   OH268790   6.136   4.514  14.379  0.0434 -0.2296 -0.3773
15792TIP3    H168791   6.091   4.466  14.309  0.0903 -0.7156 -0.0793
15792TIP3    H268792   6.067   4.568  14.418 -0.1430 -0.4787 -0.3514
15793TIP3   OH268793   1.698   1.302   0.452 -0.4897  0.0170  0.2263
15793TIP3    H168794   1.697   1.228   0.391  0.8841  0.5694 -0.5008
15793TIP3    H268795   1.607   1.329   0.459 -0.8737 -1.0868 -0.3121
15794TIP3   OH268796   3.459   6.345  17.064 -0.4627 -0.3499  0.4923
15794TIP3    H168797   3.549   6.323  17.086 -0.0748 -1.3760 -1.8440
15794TIP3    H268798   3.409   6.267  17.089 -0.4337 -0.4510  0.2376
15795TIP3   OH268799   3.746   4.455   5.830 -0.1744  0.1778 -0.5666
15795TIP3    H168800   3.806   4.385   5.806 -1.5936 -1.8175  1.3193
15795TIP3    H268801   3.799   4.517   5.879  0.4267 -1.4711  0.9420
15796TIP3   OH268802   2.785   0.943   1.220  0.4537  0.4224 -0.1814
15796TIP3    H168803   2.795   0.947   1.124 -0.4843 -0.7268 -0.3560
15796TIP3    H268804   2.839   1.014   1.253  3.0230 -0.8023 -1.4116
15797TIP3   OH268805   4.676   2.446   5.965 -0.5018 -0.0556 -0.2059
15797TIP3    H168806   4.769   2.457   5.944 -0.6611 -0.3416 -1.0627
15797TIP3    H268807   4.669   2.476   6.056  0.1092  1.6653 -0.6762
15798TIP3   OH268808   5.089   3.832  17.000 -1.0677  0.1717  0.0104
15798TIP3    H168809   5.106   3.762  16.938 -1.0917  1.3136 -1.3413
15798TIP3    H268810   5.000   3.862  16.978 -0.1234  2.2939 -1.2111
15799TIP3   OH268811   5.664   5.715   0.835  0.8228  0.1720 -0.3473
15799TIP3    H168812   5.651   5.621   0.850  0.8257  0.1355 -0.5645
15799TIP3    H268813   5.692   5.750   0.919  1.8645 -0.2044 -0.5328
15800TIP3   OH268814   0.149   5.584  11.469 -0.3106  0.2303 -0.3377
15800TIP3    H168815   0.175   5.500  11.507  0.6326  0.4406 -0.4928
15800TIP3    H268816   0.138   5.565  11.375 -1.7211 -0.0740 -0.1471
15801TIP3   OH268817   5.621   0.612   5.601 -0.8293  0.1986 -0.5407
15801TIP3    H168818   5.601   0.643   5.689 -2.0737 -0.2289 -0.6628
15801TIP3    H268819   5.717   0.607   5.599 -0.7828  0.1562  0.8067
15802TIP3   OH268820   0.985   4.371   2.177 -0.6117  0.1026  0.3690
15802TIP3    H168821   1.077   4.379   2.152 -0.5212  1.2884  1.0351
15802TIP3    H268822   0.987   4.336   2.266 -0.7517  1.3008  0.8577
15803TIP3   OH268823   2.287   3.636  13.343 -0.4832 -0.6700 -0.4627
15803TIP3    H168824   2.241   3.714  13.374  1.6463  0.0094  1.1846
15803TIP3    H268825   2.349   3.669  13.278 -1.8218 -1.5089 -2.2659
15804TIP3   OH268826   0.972   0.695  14.286 -0.1404  0.3565  0.0689
15804TIP3    H168827   0.933   0.681  14.373 -0.1574 -0.6217 -0.0769
15804TIP3    H268828   1.047   0.635  14.284  0.0475  0.6103 -0.4720
15805TIP3   OH268829   5.797   1.456   2.540 -0.3089 -0.1981  0.1758
15805TIP3    H168830   5.736   1.385   2.556  1.2017 -1.4598  0.5305
15805TIP3    H268831   5.881   1.425   2.574  0.1660  2.2215  1.4307
15806TIP3   OH268832   2.796   5.934  17.274 -0.4630  0.0822 -0.8107
15806TIP3    H168833   2.704   5.952  17.293 -0.4050  1.4581 -1.6918
15806TIP3    H268834   2.825   6.010  17.224  2.1177  1.3866  2.3844
15807TIP3   OH268835   2.778   1.168  11.545  0.1828  0.3390 -0.7299
15807TIP3    H168836   2.860   1.149  11.498  1.0440  2.3712 -0.1584
15807TIP3    H268837   2.725   1.217  11.482 -0.0306  0.2163 -0.6466
15808TIP3   OH268838   3.114   1.676  12.548  0.3036  0.6107 -0.1821
15808TIP3    H168839   3.099   1.686  12.454  1.1108 -0.0667 -0.4000
15808TIP3    H268840   3.209   1.665  12.556  0.0325 -1.9045  0.4284
15809TIP3   OH268841   2.785   6.497   4.515 -0.2360 -0.0914  0.6518
15809TIP3    H168842   2.718   6.434   4.488  0.0122 -0.0502 -0.0889
15809TIP3    H268843   2.788   6.489   4.611 -1.5408  0.1582  0.7288
15810TIP3   OH268844   0.545   2.598  16.320  0.4197  0.4827 -0.1619
15810TIP3    H168845   0.467   2.562  16.276 -0.6670  0.0554  1.9706
15810TIP3    H268846   0.599   2.521  16.338 -0.7011  0.1276  2.0918
15811TIP3   OH268847   1.165   0.843   1.126  0.5038  0.5162 -0.4307
15811TIP3    H168848   1.251   0.811   1.154  0.4042  1.0207  0.4868
15811TIP3    H268849   1.181   0.934   1.099  0.4777  0.2342 -1.4411
15812TIP3   OH268850   0.622   1.157   5.552 -0.6705  0.1986 -0.0537
15812TIP3    H168851   0.653   1.208   5.627  2.0868  0.5619 -1.3211
15812TIP3    H268852   0.693   1.163   5.488 -1.9553 -1.9710 -1.8184
15813TIP3   OH268853   0.708   3.419  15.048  0.0070  0.0002  0.0085
15813TIP3    H168854   0.703   3.324  15.033 -1.8448  0.1770 -0.7179
15813TIP3    H268855   0.621   3.451  15.026  0.7821  1.9708 -0.3420
15814TIP3   OH268856   4.150   4.178   1.133 -0.0659 -0.2023  0.3720
15814TIP3    H168857   4.100   4.259   1.143  0.0713 -0.0922  0.1712
15814TIP3    H268858   4.216   4.181   1.202  0.3899  0.1926 -0.0700
15815TIP3   OH268859   5.895   3.329  17.383  0.5827 -0.0386  0.1768
15815TIP3    H168860   5.834   3.403  17.389  0.2416 -0.3402  0.5104
15815TIP3    H268861   5.841   3.256  17.353  0.5660 -0.5409  1.3788
15816TIP3   OH268862   1.272   2.865   1.934 -0.1908 -0.2271  0.5152
15816TIP3    H168863   1.189   2.899   1.968 -0.0651  2.9960 -1.9481
15816TIP3    H268864   1.338   2.896   1.995 -0.5886 -1.5967  1.7059
15817TIP3   OH268865   4.101   3.291  14.487  0.3276 -0.5488  0.4672
15817TIP3    H168866   4.152   3.309  14.408 -0.2342 -1.6067 -0.1552
15817TIP3    H268867   4.059   3.375  14.508 -1.3715 -0.7446 -1.7298
15818TIP3   OH268868   2.401   2.427  16.287  0.1580  0.1459 -0.2654
15818TIP3    H168869   2.400   2.488  16.212  0.8036  1.9140  1.0993
15818TIP3    H268870   2.493   2.423  16.313 -0.3596  2.0020  2.2656
15819TIP3   OH268871   2.593   3.939  12.764 -0.5272  0.3199  0.1235
15819TIP3    H168872   2.528   3.966  12.699 -1.5591 -0.0161  0.9853
15819TIP3    H268873   2.602   3.845  12.752 -2.0187 -0.0505  1.5585
15820TIP3   OH268874   2.263   0.720   4.096 -0.1766 -0.3020 -0.4910
15820TIP3    H168875   2.296   0.637   4.062 -0.2943 -0.5075 -0.1123
15820TIP3    H268876   2.192   0.694   4.156 -0.1275  0.0631 -0.2743
15821TIP3   OH268877   6.058   4.604   4.574 -0.2255  0.0936 -0.3291
15821TIP3    H168878   6.021   4.688   4.601 -0.4723 -0.1276  0.0279
15821TIP3    H268879   6.152   4.613   4.587 -0.4568 -0.6164  2.3645
15822TIP3   OH268880   2.655   6.510  11.495  0.0316 -0.4571  0.1413
15822TIP3    H168881   2.565   6.490  11.520  0.1531 -1.1441  0.0447
15822TIP3    H268882   2.656   6.501  11.400 -0.0116  0.4422  0.0479
15823TIP3   OH268883   4.425   3.988  14.298  0.1145 -0.2373 -0.6336
15823TIP3    H168884   4.509   3.954  14.328  0.1136 -0.2563 -0.6518
15823TIP3    H268885   4.409   4.065  14.352 -0.9964 -1.5638  1.0536
15824TIP3   OH268886   6.464   2.734  11.403  0.4343  0.8002  0.5803
15824TIP3    H168887   6.450   2.822  11.438 -1.0511  0.8575 -0.0463
15824TIP3    H268888   6.528   2.746  11.333  1.7287  1.0374  1.7687
15825TIP3   OH268889   3.662   2.302   3.104 -0.0515 -0.2564 -0.3807
15825TIP3    H168890   3.568   2.319   3.117  0.1219  2.5367 -1.9018
15825TIP3    H268891   3.669   2.282   3.010  0.8428 -0.8904 -0.1897
15826TIP3   OH268892   0.746   5.374   3.222 -0.5576  0.1212  0.3512
15826TIP3    H168893   0.718   5.409   3.138 -0.1131  3.1268  1.3278
15826TIP3    H268894   0.666   5.340   3.263 -0.7338 -1.6088 -1.2935
15827TIP3   OH268895   0.054   6.481  15.351 -0.0521 -0.4669  0.0280
15827TIP3    H168896   0.016   6.394  15.342  1.1813 -1.3607  2.5354
15827TIP3    H268897   0.112   6.490  15.274  0.0989 -2.0205 -0.0768
15828TIP3   OH268898   3.841   6.593  11.921 -0.0897  0.3343  0.4589
15828TIP3    H168899   3.778   6.663  11.935 -1.0212 -0.1466 -1.0731
15828TIP3    H268900   3.898   6.596  11.997 -1.1093  1.6919  1.2036
15829TIP3   OH268901   1.320   3.855  15.506 -0.3905 -0.0088 -0.9654
15829TIP3    H168902   1.324   3.900  15.422  0.1979 -0.4390 -1.1744
15829TIP3    H268903   1.344   3.922  15.571 -0.3799  0.2001 -1.1852
15830TIP3   OH268904   3.253   1.934   3.102 -0.0916 -0.7321  0.4053
15830TIP3    H168905   3.328   1.885   3.135  1.4866  1.1100 -0.2925
15830TIP3    H268906   3.291   2.001   3.046 -2.2076  0.8536  0.7706
15831TIP3   OH268907   3.160   6.618   4.153 -0.3287 -0.2438  0.3337
15831TIP3    H168908   3.174   6.559   4.078 -0.8358  1.7102 -1.3735
15831TIP3    H268909   3.190   6.567   4.228  3.1072 -1.2619 -1.4758
15832TIP3   OH268910   5.346   1.662   1.555  0.3811  0.0219 -0.1082
15832TIP3    H168911   5.416   1.709   1.509  1.0113 -1.4269 -0.6876
15832TIP3    H268912   5.352   1.572   1.523 -1.9381 -0.1060 -0.3846
15833TIP3   OH268913   4.397   5.151   5.542 -0.4286 -0.1639  0.3968
15833TIP3    H168914   4.339   5.094   5.592 -2.8812  0.8290 -1.1447
15833TIP3    H268915   4.339   5.204   5.487  1.9421  0.9458 -1.2591
15834TIP3   OH268916   6.042   4.294  12.074 -0.1885 -0.6445  0.0221
15834TIP3    H168917   5.962   4.342  12.054 -0.3448 -0.7599  0.3627
15834TIP3    H268918   6.035   4.213  12.022  1.0168  0.5622 -2.1519
15835TIP3   OH268919   1.505   0.869   3.097  0.0434 -0.2577  0.0565
15835TIP3    H168920   1.481   0.819   3.019 -1.0784  0.1293  0.1368
15835TIP3    H268921   1.601   0.872   3.095  0.0726 -1.1934 -0.7032
15836TIP3   OH268922   4.443   5.176   0.300 -0.2184 -1.2770 -0.1687
15836TIP3    H168923   4.358   5.216   0.317  0.1222 -0.7585  0.3355
15836TIP3    H268924   4.503   5.221   0.359 -0.0570 -3.4937  1.4866
15837TIP3   OH268925   3.821   6.489   5.580 -0.0009 -0.4938  0.3498
15837TIP3    H168926   3.770   6.503   5.660 -0.0959  0.9333  0.0774
15837TIP3    H268927   3.859   6.402   5.590 -0.3646 -0.5159  1.7507
15838TIP3   OH268928   2.062   2.119   2.648 -0.6838 -0.2850 -0.5894
15838TIP3    H168929   1.968   2.120   2.666 -0.6401 -0.0548 -0.3646
15838TIP3    H268930   2.093   2.036   2.684 -0.4606  0.4967  1.1418
15839TIP3   OH268931   3.893   0.501   2.758 -0.2097  0.5658  0.0924
15839TIP3    H168932   3.981   0.522   2.727 -0.3933  0.9543 -0.1720
15839TIP3    H268933   3.887   0.543   2.844  0.8001 -1.6744  1.3455
15840TIP3   OH268934   4.407   3.396  11.950  0.6572  0.2636 -0.1025
15840TIP3    H168935   4.475   3.333  11.927 -0.2147 -1.0326  0.7372
15840TIP3    H268936   4.437   3.435  12.032 -0.0225 -0.9920  0.7673
15841TIP3   OH268937   5.781   1.164  12.509 -0.1907  0.1074  0.0275
15841TIP3    H168938   5.688   1.185  12.506 -0.2202  0.1562  1.0581
15841TIP3    H268939   5.800   1.128  12.422 -1.0482  0.5720 -0.3668
15842TIP3   OH268940   1.488   1.286   1.228 -0.4611  0.4531  0.0208
15842TIP3    H168941   1.395   1.262   1.225 -0.1344 -0.8325 -2.2404
15842TIP3    H268942   1.491   1.376   1.196 -0.7872 -0.2826 -2.2537
15843TIP3   OH268943   5.176   1.917   3.368  0.3715  0.0998 -0.0869
15843TIP3    H168944   5.192   2.002   3.327  3.0117 -0.5867 -0.7108
15843TIP3    H268945   5.168   1.936   3.461  0.7891  1.0679 -0.2408
15844TIP3   OH268946   0.913   2.329  10.716  0.3580 -0.8210  0.0268
15844TIP3    H168947   0.853   2.381  10.662 -0.3425 -0.8520  0.7622
15844TIP3    H268948   0.909   2.241  10.679  0.0374 -0.7970  0.0046
15845TIP3   OH268949   2.822   5.827  11.634  0.1671  0.0904  0.3122
15845TIP3    H168950   2.816   5.763  11.706 -0.9033 -0.0104  0.1490
15845TIP3    H268951   2.897   5.797  11.582  0.1407 -0.5989  0.6546
15846TIP3   OH268952   6.080   1.013  13.926 -0.5221  0.3532  0.3819
15846TIP3    H168953   6.000   1.052  13.959 -1.4420 -1.8003  0.8809
15846TIP3    H268954   6.113   0.961  14.000  1.0134  0.7091 -0.0169
15847TIP3   OH268955   1.813   3.698  12.055 -0.0593 -0.5480  0.3350
15847TIP3    H168956   1.790   3.700  11.963  0.4287  0.2368  0.2180
15847TIP3    H268957   1.893   3.645  12.059 -0.1671 -0.7103  0.3264
15848TIP3   OH268958   5.760   3.044  13.420  0.5693 -0.6239  0.1626
15848TIP3    H168959   5.726   3.088  13.498 -0.0514  2.2771 -1.5690
15848TIP3    H268960   5.693   2.979  13.398 -0.6169  0.4093  0.5592
15849TIP3   OH268961   2.297   2.868  14.397 -0.3221  0.6969  0.0681
15849TIP3    H168962   2.316   2.960  14.378  0.7157  0.3232 -0.8003
15849TIP3    H268963   2.301   2.862  14.492  1.8150  1.1243  0.0639
15850TIP3   OH268964   4.066   2.809   1.257 -0.1248 -0.1420 -0.2126
15850TIP3    H168965   3.983   2.830   1.300  0.1314  0.8220 -0.1666
15850TIP3    H268966   4.040   2.775   1.171 -0.6644 -2.7235  0.8858
15851TIP3   OH268967   2.986   6.335   0.924 -0.1271  0.2105  0.6221
15851TIP3    H168968   2.966   6.377   0.840  0.9062 -2.9668 -1.4005
15851TIP3    H268969   2.901   6.324   0.965 -0.7367  1.3105 -0.2721
15852TIP3   OH268970   3.257   2.677  14.957 -0.1961  0.1130  0.3935
15852TIP3    H168971   3.213   2.710  14.879 -0.8684 -0.1593  0.6483
15852TIP3    H268972   3.235   2.584  14.960 -1.7729  0.4817  1.9171
15853TIP3   OH268973   5.722   3.218  14.208 -0.0890  0.4586  0.0735
15853TIP3    H168974   5.629   3.234  14.193  0.0753  0.2292 -1.3305
15853TIP3    H268975   5.767   3.275  14.146  0.6813 -0.0639  0.1346
15854TIP3   OH268976   4.116   0.415  16.046 -0.2887  0.3764 -0.1076
15854TIP3    H168977   4.160   0.355  15.985 -0.6485 -0.6699  0.6260
15854TIP3    H268978   4.183   0.437  16.110 -0.4381 -0.0917  0.2145
15855TIP3   OH268979   2.732   3.361  15.890  0.4986  0.5639  0.9567
15855TIP3    H168980   2.757   3.431  15.950  1.0495 -0.0585  1.4738
15855TIP3    H268981   2.755   3.280  15.936  0.9389  0.0696 -0.0878
15856TIP3   OH268982   2.328   0.788  10.577 -0.0877 -0.5417  0.0019
15856TIP3    H168983   2.340   0.774  10.671  2.3370  0.7353 -0.0575
15856TIP3    H268984   2.271   0.716  10.550 -0.6390 -1.0985  2.3798
15857TIP3   OH268985   4.205   6.551   1.689 -0.1229  0.3396 -0.1508
15857TIP3    H168986   4.167   6.625   1.737  2.1892  1.3520  0.2528
15857TIP3    H268987   4.292   6.581   1.663  1.5820 -2.7131  1.3557
15858TIP3   OH268988   2.711   0.035  12.490 -0.6628 -0.2451 -0.1490
15858TIP3    H168989   2.683   0.019  12.400 -2.3829  2.8879 -0.3208
15858TIP3    H268990   2.765   0.114  12.485 -0.2845 -0.3583  1.5149
15859TIP3   OH268991   3.502   5.017   5.090 -0.1434 -0.0952  0.3048
15859TIP3    H168992   3.581   5.060   5.057 -1.1907  1.2456 -0.5809
15859TIP3    H268993   3.436   5.087   5.092 -1.5680 -1.3856  0.1127
15860TIP3   OH268994   1.412   2.759  14.656  0.0425 -0.0630  0.3501
15860TIP3    H168995   1.420   2.736  14.749  3.6683 -2.6111 -0.3819
15860TIP3    H268996   1.481   2.823  14.641  0.4939 -0.7966 -0.8462
15861TIP3   OH268997   4.667   5.104  17.349  0.8206  0.0173  0.5328
15861TIP3    H168998   4.682   5.143  17.435  0.7157  1.0166  0.1114
15861TIP3    H268999   4.749   5.120  17.302  0.0396  1.6704 -0.3495
15862TIP3   OH269000   0.381   5.909   3.966  0.6183  0.1914 -0.1101
15862TIP3    H169001   0.358   5.867   4.048 -0.8279  0.1178 -0.5303
15862TIP3    H269002   0.313   5.975   3.952 -0.5336 -1.3443 -2.3823
15863TIP3   OH269003   1.803   6.177  16.450  0.5734 -0.3062  0.0018
15863TIP3    H169004   1.749   6.113  16.404  1.9682  0.2132 -2.5324
15863TIP3    H269005   1.748   6.205  16.524 -1.4849 -1.7955 -0.8500
15864TIP3   OH269006   1.921   1.409   4.997 -0.3457 -0.7446  0.9688
15864TIP3    H169007   1.923   1.504   5.003 -4.5751 -0.3691 -0.4765
15864TIP3    H269008   1.874   1.381   5.075 -0.2645 -1.5447  0.7432
15865TIP3   OH269009   2.785   4.583   2.583  0.6889  0.1940  0.0905
15865TIP3    H169010   2.805   4.489   2.579 -2.2265 -0.4813 -1.6493
15865TIP3    H269011   2.744   4.595   2.669 -1.6451 -0.8479 -0.8040
15866TIP3   OH269012   0.207   6.217   0.529  0.1819 -0.2066  0.3654
15866TIP3    H169013   0.139   6.219   0.461  1.2484 -0.7025 -0.7591
15866TIP3    H269014   0.160   6.200   0.610 -0.9706 -1.2913 -0.4931
15867TIP3   OH269015   2.872   2.710   0.291  0.7778  0.3646 -0.3264
15867TIP3    H169016   2.837   2.708   0.202  1.6042  0.7835 -0.6733
15867TIP3    H269017   2.837   2.631   0.333 -1.1931  1.1504 -0.3893
15868TIP3   OH269018   3.731   1.320   3.767 -0.2006  0.5410  0.0936
15868TIP3    H169019   3.798   1.268   3.723  0.6837  2.2937 -0.7424
15868TIP3    H269020   3.768   1.338   3.854  0.0941  0.8563 -0.0923
15869TIP3   OH269021   2.196   2.374  16.450 -0.5907 -0.4071  0.1047
15869TIP3    H169022   2.131   2.441  16.472 -0.0854 -0.2262  1.1106
15869TIP3    H269023   2.258   2.418  16.392 -0.9458 -0.3599 -0.2398
15870TIP3   OH269024   1.925   4.775  12.704  0.2694 -0.2726  0.2934
15870TIP3    H169025   2.014   4.790  12.670  0.3865 -4.5935 -2.1189
15870TIP3    H269026   1.939   4.721  12.782 -0.2113  0.1493  0.6700
15871TIP3   OH269027   4.486   2.433   3.701  0.0847  0.0803  0.2222
15871TIP3    H169028   4.443   2.497   3.644 -2.6895  0.0478  2.0534
15871TIP3    H269029   4.473   2.469   3.789  1.4017 -1.3933  1.0529
15872TIP3   OH269030   0.622   5.898  17.190 -0.5416 -0.7460 -0.4320
15872TIP3    H169031   0.707   5.912  17.231 -0.0772 -0.7249 -1.3625
15872TIP3    H269032   0.621   5.959  17.115 -0.7278 -1.8344 -1.3459
15873TIP3   OH269033   1.960   4.497  11.526  0.5306 -0.6748  0.1916
15873TIP3    H169034   2.000   4.428  11.578  0.9123 -0.4518  0.1960
15873TIP3    H269035   1.934   4.563  11.590  0.3463 -0.7257  0.1692
15874TIP3   OH269036   3.791   4.116  12.662 -0.2632 -0.4957 -0.2385
15874TIP3    H169037   3.825   4.175  12.729  1.6364  0.3370 -1.8206
15874TIP3    H269038   3.800   4.029  12.700  2.2327 -0.1733  0.0795
15875TIP3   OH269039   4.995   2.576  17.367  0.0587 -0.0859 -0.0052
15875TIP3    H169040   5.050   2.549  17.294 -1.5356 -1.5316 -0.7570
15875TIP3    H269041   5.024   2.522  17.441 -1.0724 -1.7319 -0.7070
15876TIP3   OH269042   0.888   4.634  16.142 -0.0269 -0.3598  0.3349
15876TIP3    H169043   0.923   4.670  16.224  0.9419 -0.7872  0.1130
15876TIP3    H269044   0.957   4.578  16.109 -0.6720 -0.6984 -0.4577
15877TIP3   OH269045   0.025   2.747   4.387  0.6323 -0.3132  0.7346
15877TIP3    H169046  -0.054   2.764   4.438 -1.0401 -1.5229 -1.2600
15877TIP3    H269047   0.024   2.652   4.373 -0.0233  0.0928 -2.9129
15878TIP3   OH269048   4.245   3.057  15.307 -0.0646 -0.5333 -0.5342
15878TIP3    H169049   4.177   3.036  15.243  0.4809 -0.1034 -1.2712
15878TIP3    H269050   4.273   2.972  15.341 -1.0843 -0.6987 -0.0948
15879TIP3   OH269051   2.195   4.852  16.097 -0.4439 -0.6421 -0.6993
15879TIP3    H169052   2.210   4.892  16.182  1.2893 -1.3317 -0.6390
15879TIP3    H269053   2.261   4.892  16.040  0.3325 -2.2802 -0.9891
15880TIP3   OH269054   0.195   3.271   4.419  0.2902  0.0581 -0.6611
15880TIP3    H169055   0.272   3.326   4.405 -0.8282  1.7972 -0.3303
15880TIP3    H269056   0.230   3.183   4.433  2.2873  0.9725  0.4983
15881TIP3   OH269057   4.738   2.273   1.623  0.6899 -0.1618  0.3856
15881TIP3    H169058   4.677   2.343   1.647  2.0216  1.2907 -0.2578
15881TIP3    H269059   4.723   2.205   1.689 -2.0814 -0.1943 -0.1801
15882TIP3   OH269060   1.862   5.328  15.546  0.3019 -0.3480  0.1237
15882TIP3    H169061   1.906   5.304  15.465  0.9808 -0.5488  0.5449
15882TIP3    H269062   1.895   5.265  15.611 -0.3179 -0.2623  0.5318
15883TIP3   OH269063   6.681   6.301   3.289 -0.1813 -0.4214 -0.0579
15883TIP3    H169064   6.657   6.393   3.299  0.6918 -0.3878  2.2674
15883TIP3    H269065   6.598   6.254   3.288 -0.6114  0.3380 -0.7402
15884TIP3   OH269066   3.233   3.010  12.416 -0.5528 -0.5099  0.3051
15884TIP3    H169067   3.216   2.967  12.333 -0.0797 -1.4656  0.6812
15884TIP3    H269068   3.198   2.950  12.482 -2.3416  0.9581  0.7578
15885TIP3   OH269069   6.684   1.670   1.786 -0.1100 -0.6186  0.0347
15885TIP3    H169070   6.592   1.650   1.768 -0.5522  0.0597  1.4183
15885TIP3    H269071   6.718   1.707   1.705 -0.5867 -2.4089 -1.0250
15886TIP3   OH269072   2.172   6.702   5.008  0.4725 -0.3886  0.2344
15886TIP3    H169073   2.133   6.633   5.063 -1.4936  0.1440 -0.4201
15886TIP3    H269074   2.103   6.726   4.947  1.3886  1.6144 -0.0892
15887TIP3   OH269075   3.669   5.684  16.849  0.7101  0.0133  0.4394
15887TIP3    H169076   3.695   5.714  16.763 -1.9592 -0.8089 -0.7727
15887TIP3    H269077   3.717   5.602  16.862  0.9922  0.0548 -0.3394
15888TIP3   OH269078   1.871   1.063  11.616 -0.1774  0.1091 -0.9243
15888TIP3    H169079   1.898   1.081  11.705  0.6101  0.0136 -1.1378
15888TIP3    H269080   1.951   1.036  11.571 -0.5620  0.1468 -1.6554
15889TIP3   OH269081   4.152   0.185   5.564  0.1060 -0.3487  0.0007
15889TIP3    H169082   4.218   0.194   5.495  0.3564 -3.3071 -0.2430
15889TIP3    H269083   4.201   0.191   5.645  0.1426  0.8425 -0.0933
15890TIP3   OH269084   2.662   2.404  16.387  1.7161 -0.1523  0.5680
15890TIP3    H169085   2.733   2.368  16.334  0.6003 -2.5621  0.5630
15890TIP3    H269086   2.699   2.412  16.475  2.0673 -1.2386  0.5363
15891TIP3   OH269087   5.948   4.056  11.978 -0.1284  0.2162  0.4667
15891TIP3    H169088   5.881   4.022  12.038 -0.2526 -0.6145 -0.1307
15891TIP3    H269089   5.924   4.021  11.893  1.1607 -0.2443  0.2712
15892TIP3   OH269090   1.834   3.122  12.991 -0.2309  0.0150 -0.0135
15892TIP3    H169091   1.922   3.086  13.001  0.1381  1.1627  1.2477
15892TIP3    H269092   1.846   3.204  12.943 -0.8960 -0.8009 -1.6580
15893TIP3   OH269093   3.521   5.121  14.042 -0.1903 -0.0409  0.0960
15893TIP3    H169094   3.433   5.120  14.079 -0.5051 -1.7840 -0.5785
15893TIP3    H269095   3.570   5.181  14.097 -1.0778 -1.2089  2.2660
15894TIP3   OH269096   0.618   4.033   4.848  0.2519  0.1986  0.1151
15894TIP3    H169097   0.594   4.105   4.789 -0.5576  0.8292  1.1693
15894TIP3    H269098   0.648   4.077   4.927  0.0704 -0.6262  0.6538
15895TIP3   OH269099   6.713   6.102   2.412 -0.4254 -0.3006  0.0198
15895TIP3    H169100   6.798   6.141   2.432  0.4265 -2.7289  1.5766
15895TIP3    H269101   6.668   6.099   2.497 -2.5750  1.8602 -0.9310
15896TIP3   OH269102   4.468   3.159  12.342 -0.0815  0.0683  0.2322
15896TIP3    H169103   4.553   3.176  12.302  0.3396 -0.5180  0.8450
15896TIP3    H269104   4.440   3.076  12.304 -1.0977  0.9930 -1.1010
15897TIP3   OH269105   4.920   4.496   3.031  0.1033 -0.4352 -0.1083
15897TIP3    H169106   4.964   4.489   2.946  1.1826 -0.2819  0.4145
15897TIP3    H269107   4.921   4.407   3.066 -0.0366 -0.4364 -0.1075
15898TIP3   OH269108   5.461   6.531  11.530 -0.6944 -0.2107  0.8679
15898TIP3    H169109   5.474   6.542  11.624  0.2542  0.3824  0.6752
15898TIP3    H269110   5.494   6.443  11.511 -0.1590 -0.0323  0.9623
15899TIP3   OH269111   4.896   5.647   0.187 -0.8835 -0.4524 -0.5728
15899TIP3    H169112   4.955   5.668   0.260  1.2631  0.4966 -2.4424
15899TIP3    H269113   4.852   5.730   0.168  1.0829  0.2649 -2.3987
15900TIP3   OH269114   3.972   5.229  15.314 -0.0919  0.3144  0.0560
15900TIP3    H169115   4.044   5.251  15.255 -0.0923 -0.7147 -0.3424
15900TIP3    H269116   3.953   5.137  15.296 -2.3050  0.8532 -0.6958
15901TIP3   OH269117   4.453   5.489   3.269  0.5711  0.0334 -0.0092
15901TIP3    H169118   4.482   5.576   3.240 -2.3725  0.8927 -0.7107
15901TIP3    H269119   4.406   5.506   3.351  0.2624 -0.9586  0.0317
15902TIP3   OH269120   5.032   4.946   2.223  0.4144  0.6050  0.1033
15902TIP3    H169121   5.026   4.904   2.308 -1.1719 -0.0131 -0.2812
15902TIP3    H269122   5.001   5.035   2.238  0.1369  0.4967  0.1667
15903TIP3   OH269123   6.155   2.539  13.810  0.2663 -0.5933  0.1561
15903TIP3    H169124   6.072   2.585  13.796  1.8276  2.0218 -1.3100
15903TIP3    H269125   6.179   2.506  13.723  1.2820 -0.3198  0.3153
15904TIP3   OH269126   2.657   3.607  14.187 -0.0760  0.0164  0.3666
15904TIP3    H169127   2.598   3.560  14.128  0.8219  0.1888 -0.7058
15904TIP3    H269128   2.739   3.613  14.138  0.8295 -0.2014  1.8122
15905TIP3   OH269129   6.047   5.802   1.575 -0.4117  0.4464 -0.2412
15905TIP3    H169130   6.020   5.891   1.598 -1.8020  0.6223 -2.3028
15905TIP3    H269131   5.977   5.770   1.519 -0.8457 -2.6498  1.8336
15906TIP3   OH269132   4.537   4.579   3.169 -0.3502  0.3773 -0.8891
15906TIP3    H169133   4.524   4.637   3.245 -0.0296  2.6411 -2.4578
15906TIP3    H269134   4.466   4.515   3.176 -0.4934  0.6861  1.1490
15907TIP3   OH269135   4.669   2.187   0.025  0.0455 -0.2423  0.2002
15907TIP3    H169136   4.671   2.281   0.008 -0.8476 -0.3120 -0.3879
15907TIP3    H269137   4.609   2.178   0.099 -0.9225 -0.4413 -0.5843
15908TIP3   OH269138   4.224   3.690   5.432  0.1495 -0.2893 -0.0844
15908TIP3    H169139   4.285   3.744   5.483 -0.4576  0.2660  0.0612
15908TIP3    H269140   4.195   3.747   5.361  0.3635 -0.7970 -0.5923
15909TIP3   OH269141   3.253   3.560   2.851  0.3155  0.1378  0.5096
15909TIP3    H169142   3.167   3.520   2.863  0.4882  0.1481  1.9669
15909TIP3    H269143   3.246   3.644   2.896 -0.0293  1.8484 -2.4441
15910TIP3   OH269144   4.445   5.180  17.199  0.5526  0.0087 -0.0217
15910TIP3    H169145   4.507   5.155  17.267  0.6642 -1.8232 -0.7582
15910TIP3    H269146   4.359   5.159  17.237  0.0244  4.1261  1.7123
15911TIP3   OH269147   6.612   3.974  15.609  0.3461  0.3405 -0.2237
15911TIP3    H169148   6.661   4.039  15.659  0.8432  0.4948 -0.8921
15911TIP3    H269149   6.561   4.026  15.547  0.1551  0.1299 -0.2419
15912TIP3   OH269150   0.095   0.766  14.889  0.1312 -0.4858  0.4189
15912TIP3    H169151   0.178   0.746  14.933 -0.2575 -1.0204  0.9148
15912TIP3    H269152   0.116   0.761  14.796  0.4608 -1.4771  0.5351
15913TIP3   OH269153   4.333   3.679  15.067 -0.3310  0.5987  0.4587
15913TIP3    H169154   4.301   3.592  15.045 -0.0255  0.3478  0.9910
15913TIP3    H269155   4.297   3.696  15.154 -1.1417  1.3806 -0.0190
15914TIP3   OH269156   2.939   5.836  13.715 -0.1432  0.3053 -0.7585
15914TIP3    H169157   2.933   5.901  13.785  3.4820  0.3947 -0.3430
15914TIP3    H269158   2.910   5.882  13.636 -1.9109  0.9626  0.2324
15915TIP3   OH269159   6.570   0.747  14.690  0.6248  0.0991  0.0507
15915TIP3    H169160   6.650   0.794  14.666  0.1024  1.8973  1.5212
15915TIP3    H269161   6.600   0.661  14.719  2.1400  0.9787  1.2729
15916TIP3   OH269162   3.108   6.047  13.102  0.2615 -0.3140  0.8422
15916TIP3    H169163   3.085   6.074  13.013  0.9095 -1.2511  0.3665
15916TIP3    H269164   3.108   6.129  13.153  0.5818  0.3456 -0.1812
15917TIP3   OH269165   3.211   3.747   3.699 -0.1507  0.0640 -0.1941
15917TIP3    H169166   3.203   3.703   3.613  0.2396  0.6509 -0.5341
15917TIP3    H269167   3.268   3.689   3.750  1.1291  0.6182 -0.9519
15918TIP3   OH269168   2.860   1.836   5.554  0.0210  0.0231  0.1524
15918TIP3    H169169   2.809   1.756   5.567  0.4243 -0.5251 -1.3479
15918TIP3    H269170   2.944   1.819   5.597  0.6988 -1.0440 -1.4933
15919TIP3   OH269171   0.085   5.327   4.758  0.3955 -0.0543 -0.4455
15919TIP3    H169172   0.123   5.405   4.797  1.5149 -1.8935  2.5061
15919TIP3    H269173   0.146   5.304   4.688  1.5023  0.3254  0.3570
15920TIP3   OH269174   2.208   2.185  13.854 -0.4123  0.5736  0.2183
15920TIP3    H169175   2.125   2.188  13.901 -1.0768  0.2339 -0.9017
15920TIP3    H269176   2.274   2.186  13.923 -1.3314  1.0817  1.1253
15921TIP3   OH269177   1.808   0.600   0.592  0.5531  0.1712 -0.5050
15921TIP3    H169178   1.714   0.592   0.575  0.5975  0.8320 -1.0989
15921TIP3    H269179   1.846   0.624   0.507  1.0450  1.5202  0.0805
15922TIP3   OH269180   4.937   1.740  16.916  0.2406 -0.4440  0.1981
15922TIP3    H169181   4.872   1.680  16.880 -0.4087  0.3756 -0.0222
15922TIP3    H269182   4.994   1.761  16.841  0.2454 -0.4893  0.1889
15923TIP3   OH269183   4.594   3.537   6.571 -0.0818 -0.1282 -0.2784
15923TIP3    H169184   4.531   3.608   6.560  0.4819  0.8815  2.3254
15923TIP3    H269185   4.678   3.574   6.545  0.5621  0.9743  2.8551
15924TIP3   OH269186   5.799   4.414   1.790 -0.2557 -0.2230 -0.0194
15924TIP3    H169187   5.865   4.377   1.849  0.1712 -1.3895 -1.1810
15924TIP3    H269188   5.837   4.404   1.703 -0.7172  1.7916 -0.4970
15925TIP3   OH269189   1.729   4.641   0.150 -0.0993 -0.1959  0.3934
15925TIP3    H169190   1.818   4.647   0.118 -0.2872 -1.0521 -0.3131
15925TIP3    H269191   1.676   4.683   0.082 -0.4324 -1.4749 -0.1655
15926TIP3   OH269192   3.495   2.957  14.825 -0.2679  0.1532  0.4143
15926TIP3    H169193   3.411   2.986  14.789  0.0974  0.3832 -0.2948
15926TIP3    H269194   3.552   2.948  14.748  0.3521 -0.0101  0.8785
15927TIP3   OH269195   2.244   1.476   4.271  0.1169  0.8798 -0.1628
15927TIP3    H169196   2.178   1.498   4.337  0.3901  0.9295  0.0891
15927TIP3    H269197   2.194   1.475   4.189 -0.2959  0.4618  0.0822
15928TIP3   OH269198   0.250   3.980   5.433  0.4888 -0.2416  0.6193
15928TIP3    H169199   0.304   3.905   5.457  0.8934 -0.3125 -0.4512
15928TIP3    H269200   0.290   4.054   5.479 -0.5045 -0.7868  2.4952
15929TIP3   OH269201   3.870   0.966  15.072 -0.3376 -0.7200 -0.1705
15929TIP3    H169202   3.806   0.932  15.134 -0.3759 -0.7540 -0.2279
15929TIP3    H269203   3.843   1.057  15.057 -1.2933 -1.1796 -1.3803
15930TIP3   OH269204   4.405   4.196  13.660 -0.0767  0.2390 -0.4976
15930TIP3    H169205   4.334   4.168  13.602 -1.0641  0.4792  0.5406
15930TIP3    H269206   4.406   4.291  13.652 -1.0166  0.3776  0.7221
15931TIP3   OH269207   5.552   6.529  12.912  0.1547 -0.2198  0.6733
15931TIP3    H169208   5.476   6.510  12.965 -1.1259  1.5665 -0.3956
15931TIP3    H269209   5.606   6.450  12.916 -0.8871 -0.8692  2.8740
15932TIP3   OH269210   6.090   6.708  12.452 -0.0565 -0.3410 -0.1019
15932TIP3    H169211   6.142   6.655  12.392  0.0820 -2.2473  1.5624
15932TIP3    H269212   6.006   6.663  12.456  0.6430 -1.6595  2.7115
15933TIP3   OH269213   5.100   3.265  12.271  0.4539  0.2536 -0.4854
15933TIP3    H169214   5.088   3.204  12.343  0.0333  0.6327 -0.2301
15933TIP3    H269215   5.074   3.215  12.193 -3.0292  1.0203  0.0248
15934TIP3   OH269216   0.081   1.200  13.165  0.3618 -0.0666  0.5527
15934TIP3    H169217   0.164   1.240  13.191  0.4497  0.3187 -0.3069
15934TIP3    H269218   0.031   1.270  13.124 -0.1206 -0.4589  0.4517
15935TIP3   OH269219   2.010   3.632   3.742 -0.0295  0.3611  0.1972
15935TIP3    H169220   2.074   3.704   3.739  1.4686 -0.9422 -1.9932
15935TIP3    H269221   2.062   3.554   3.761 -1.3517 -0.4434  0.6752
15936TIP3   OH269222   1.888   5.498   3.123  0.3329 -0.4279  0.2684
15936TIP3    H169223   1.901   5.404   3.110  1.6552 -0.0519 -1.4227
15936TIP3    H269224   1.834   5.525   3.048  2.3473  0.6200 -0.8805
15937TIP3   OH269225   4.280   2.325   0.036  0.4812  0.1922 -0.3579
15937TIP3    H169226   4.237   2.395  -0.013 -0.7986 -0.2122  0.1487
15937TIP3    H269227   4.243   2.244  -0.001 -1.3678 -0.1110  1.9572
15938TIP3   OH269228   4.503   6.748   5.186 -0.1640  0.5032 -0.1144
15938TIP3    H169229   4.488   6.781   5.274 -0.5958  0.2807 -0.1032
15938TIP3    H269230   4.416   6.744   5.146 -0.1812 -0.8924 -0.0093
15939TIP3   OH269231   0.706   5.292   4.130 -0.1688  1.0309 -0.3531
15939TIP3    H169232   0.628   5.347   4.131 -1.2040 -0.3748  0.3837
15939TIP3    H269233   0.687   5.225   4.064 -0.3467 -0.3000  0.9882
15940TIP3   OH269234   6.163   4.174   4.040 -0.5075 -0.2698  0.1888
15940TIP3    H169235   6.163   4.210   4.129  2.2904  0.0545  0.1548
15940TIP3    H269236   6.201   4.243   3.986  1.4446 -1.7964 -0.5354
15941TIP3   OH269237   1.050   4.206  11.865  0.3085 -0.1310 -0.0213
15941TIP3    H169238   1.081   4.287  11.824 -0.6452  0.3673  0.2090
15941TIP3    H269239   0.977   4.178  11.810  0.6004 -0.8215 -0.0713
15942TIP3   OH269240   4.922   5.388  14.880 -0.4383  0.2545 -0.0260
15942TIP3    H169241   4.871   5.314  14.848 -1.0614  0.5514  0.2516
15942TIP3    H269242   4.919   5.452  14.809  0.8217 -0.2951 -0.6199
15943TIP3   OH269243   0.755   5.124  14.204 -0.1338  0.1966  0.1330
15943TIP3    H169244   0.704   5.192  14.160  0.7558  0.2382 -0.8689
15943TIP3    H269245   0.739   5.045  14.152 -1.7044 -0.5638  1.6774
15944TIP3   OH269246   5.640   5.820  13.868  0.1944 -0.4463 -0.3052
15944TIP3    H169247   5.643   5.915  13.877 -0.3814 -0.3844 -0.7397
15944TIP3    H269248   5.633   5.805  13.773 -2.4236 -0.8436 -0.0999
15945TIP3   OH269249   1.241   0.457  13.416  0.1538 -0.6479 -0.2606
15945TIP3    H169250   1.254   0.545  13.380 -1.3251 -0.2391  0.1275
15945TIP3    H269251   1.302   0.402  13.368  1.8835  0.7603  0.2057
15946TIP3   OH269252   2.382   0.579  14.955 -0.1016  0.0064 -0.3140
15946TIP3    H169253   2.391   0.547  14.865 -0.8150 -2.3378  0.3640
15946TIP3    H269254   2.322   0.653  14.948 -0.4404 -0.3583 -1.7178
15947TIP3   OH269255   3.546   6.022  16.048 -0.5851  0.2978  0.1562
15947TIP3    H169256   3.621   6.057  15.999  0.1316  0.1296  1.0889
15947TIP3    H269257   3.540   5.930  16.020 -0.6470  0.3935 -0.1522
15948TIP3   OH269258   3.208   5.793   3.049  0.1958  0.4366  0.5352
15948TIP3    H169259   3.299   5.798   3.018  0.8213 -1.3171  1.8999
15948TIP3    H269260   3.212   5.821   3.140 -0.6790  0.5165  0.5554
15949TIP3   OH269261   5.960   1.273   5.667  0.1846  0.2972  0.4902
15949TIP3    H169262   5.987   1.357   5.630 -0.3233  0.7720  1.1582
15949TIP3    H269263   5.998   1.273   5.755 -1.2989  0.6490  1.1678
15950TIP3   OH269264   4.878   0.153   4.629  0.0191 -0.0009  0.5337
15950TIP3    H169265   4.820   0.109   4.567 -0.3218  1.0582  0.0749
15950TIP3    H269266   4.944   0.195   4.574  0.8273 -0.6197  1.0136
15951TIP3   OH269267   4.239   5.784  15.614  0.2998  0.3650  0.0784
15951TIP3    H169268   4.186   5.864  15.619  2.2518  1.7663 -0.3241
15951TIP3    H269269   4.249   5.768  15.520  1.2192  0.5928  0.1281
15952TIP3   OH269270   3.037   0.835  15.101 -0.1544  0.0401 -0.2512
15952TIP3    H169271   3.034   0.930  15.111  0.8120 -0.0030  0.6547
15952TIP3    H269272   3.129   0.813  15.111 -0.3526 -0.9924 -0.5747
15953TIP3   OH269273   2.712   2.093   5.846  0.0897 -0.4278  0.1689
15953TIP3    H169274   2.716   2.126   5.935 -0.5716 -1.8025  0.7295
15953TIP3    H269275   2.648   2.022   5.849  0.0475 -0.4929 -1.3970
15954TIP3   OH269276   4.224   2.191   1.168 -0.4038  0.1022  0.4084
15954TIP3    H169277   4.307   2.170   1.125 -0.6186  0.9374 -0.4508
15954TIP3    H269278   4.239   2.277   1.209 -0.5264 -0.2137  1.1336
15955TIP3   OH269279   4.146   5.165   1.578  0.3339 -0.2894  0.0612
15955TIP3    H169280   4.199   5.212   1.514  0.5777 -1.9040 -0.9731
15955TIP3    H269281   4.167   5.207   1.662  2.2704 -0.0304 -0.5002
15956TIP3   OH269282   0.939   3.765  12.341  0.3179 -0.4552 -0.1524
15956TIP3    H169283   0.919   3.719  12.423  1.1289 -2.6914 -1.1352
15956TIP3    H269284   0.863   3.748  12.285 -0.1584  0.9274  0.0255
15957TIP3   OH269285   1.002   2.570   4.880 -0.3768 -0.1415 -0.0021
15957TIP3    H169286   1.077   2.576   4.939 -0.1656 -0.2440 -0.2571
15957TIP3    H269287   1.020   2.634   4.811  0.7095 -1.8767 -1.4232
15958TIP3   OH269288   4.411   4.292  12.239  0.5219 -0.0653  0.0058
15958TIP3    H169289   4.388   4.235  12.166  1.3459  0.4197 -0.6464
15958TIP3    H269290   4.447   4.371  12.198 -1.5998  1.4170  0.8416
15959TIP3   OH269291   3.839   3.964   3.316  0.2818  0.2946  0.0499
15959TIP3    H169292   3.904   3.921   3.372  1.1027  0.8026 -0.4961
15959TIP3    H269293   3.867   4.056   3.313 -0.7307  0.6142  0.1801
15960TIP3   OH269294   1.555   5.552   4.112  0.4068  0.4064 -0.1442
15960TIP3    H169295   1.473   5.532   4.067 -0.3312 -0.9599  1.6842
15960TIP3    H269296   1.536   5.633   4.160 -0.0310 -0.1062  0.5722
15961TIP3   OH269297   6.016   5.459  15.934 -0.2953 -0.1364  0.0678
15961TIP3    H169298   6.070   5.532  15.907 -0.2273 -0.0710  0.3775
15961TIP3    H269299   5.927   5.494  15.935 -0.2339  0.0184  0.4677
15962TIP3   OH269300   1.299   1.995   0.873 -0.1451 -0.1860 -0.2495
15962TIP3    H169301   1.303   1.984   0.968  1.2239  0.0152 -0.2599
15962TIP3    H269302   1.235   2.065   0.859  1.1798  1.2675  0.6795
15963TIP3   OH269303   6.011   2.677  12.232  0.2476 -0.1273  0.0440
15963TIP3    H169304   6.103   2.653  12.225  0.3964  0.4889 -0.1487
15963TIP3    H269305   5.964   2.603  12.193  0.7566  0.3691 -1.5916
15964TIP3   OH269306   3.516   2.054   6.005  0.1956  0.0687  0.1058
15964TIP3    H169307   3.451   2.089   5.943 -0.6143 -1.3021  0.1297
15964TIP3    H269308   3.464   2.028   6.081  0.8899 -0.2764  0.4635
15965TIP3   OH269309   4.385   1.194   2.314  0.1787 -0.2306  0.5456
15965TIP3    H169310   4.379   1.289   2.311 -2.1551 -0.3215 -0.1927
15965TIP3    H269311   4.414   1.174   2.403 -0.0914  1.1632  0.9653
15966TIP3   OH269312   3.651   4.762  15.219  0.1142  0.6045  0.2419
15966TIP3    H169313   3.574   4.819  15.212  0.6261  1.1543 -1.8809
15966TIP3    H269314   3.721   4.819  15.250 -0.1426  0.2714  1.4830
15967TIP3   OH269315   2.368   4.809  12.434  0.2516  0.1389 -0.0265
15967TIP3    H169316   2.348   4.790  12.342  0.6132  2.2473 -0.5979
15967TIP3    H269317   2.463   4.804  12.439  0.3372  1.3207 -0.1263
15968TIP3   OH269318   5.363   0.303  13.218  0.9105 -0.0872 -0.1275
15968TIP3    H169319   5.447   0.338  13.245 -0.3676  1.9588  1.4919
15968TIP3    H269320   5.350   0.339  13.130  1.0079  0.9899  0.2825
15969TIP3   OH269321   3.518   0.107  16.823 -0.2992 -0.0524  0.4570
15969TIP3    H169322   3.565   0.024  16.820  1.6409  1.0156 -0.6599
15969TIP3    H269323   3.426   0.082  16.818  0.2444 -2.1157 -0.5896
15970TIP3   OH269324   4.596   1.444   5.750 -0.1241 -0.5051 -0.6457
15970TIP3    H169325   4.623   1.390   5.824 -1.0157 -2.1399 -1.4582
15970TIP3    H269326   4.654   1.520   5.753 -0.4345 -0.2962  1.9756
15971TIP3   OH269327   4.933   3.305   5.611  0.2584  0.1688  0.2370
15971TIP3    H169328   4.883   3.345   5.682  0.5884  0.1884  0.4603
15971TIP3    H269329   4.926   3.367   5.539  0.5446  0.5031  0.4946
15972TIP3   OH269330   0.735   1.461  11.855  0.1347 -0.4781 -0.0449
15972TIP3    H169331   0.822   1.441  11.820  0.6852  0.6226  0.6108
15972TIP3    H269332   0.721   1.553  11.831 -0.3710 -0.3298  0.7841
15973TIP3   OH269333   4.101   4.688  12.546 -0.9700  0.1582 -0.1523
15973TIP3    H169334   4.050   4.719  12.621 -0.2536 -0.1042  0.4578
15973TIP3    H269335   4.190   4.678  12.580 -0.5053  0.6007 -1.1946
15974TIP3   OH269336   4.822   5.372   5.919  0.0662 -0.2247 -0.6354
15974TIP3    H169337   4.868   5.403   5.997 -0.6681 -0.4226 -0.1148
15974TIP3    H269338   4.812   5.278   5.932 -0.8228 -0.1297 -0.5536
15975TIP3   OH269339   0.871   6.747  11.827 -0.6261 -0.2027  0.0710
15975TIP3    H169340   0.781   6.763  11.857 -0.2515 -1.2613  1.8765
15975TIP3    H269341   0.907   6.835  11.814 -0.9884  0.3226  2.3115
15976TIP3   OH269342   5.496   4.583  17.245  0.6809  0.2018 -0.0809
15976TIP3    H169343   5.421   4.563  17.189  1.0158 -1.5779  0.0358
15976TIP3    H269344   5.553   4.637  17.191 -0.6931  1.6635 -0.1383
15977TIP3   OH269345   4.846   4.842   5.967  0.2349  0.2632 -0.1718
15977TIP3    H169346   4.893   4.923   5.987 -0.9577  0.6966  1.0365
15977TIP3    H269347   4.866   4.825   5.875  1.4947  1.2462 -0.1099
15978TIP3   OH269348   0.685   1.087  15.883  0.0722  0.3718 -0.0967
15978TIP3    H169349   0.755   1.034  15.920  0.4534  0.9136 -0.0279
15978TIP3    H269350   0.731   1.156  15.835 -0.4149  0.1660 -0.8770
15979TIP3   OH269351   1.887   3.621   5.048 -0.6784  0.0011 -0.5862
15979TIP3    H169352   1.959   3.565   5.017 -0.0917 -0.4822  1.4652
15979TIP3    H269353   1.925   3.709   5.051 -0.1980 -0.2249  0.3221
15980TIP3   OH269354   4.861   0.320  11.972 -0.3520 -0.1593  0.0129
15980TIP3    H169355   4.927   0.363  11.918  0.5121 -0.9770  0.3751
15980TIP3    H269356   4.865   0.366  12.056 -1.1291  0.5930 -0.3553
15981TIP3   OH269357   6.117   5.967  15.653 -0.7034 -0.8553  0.5581
15981TIP3    H169358   6.164   5.975  15.570  0.0451 -2.3016  0.7937
15981TIP3    H269359   6.064   6.046  15.659 -0.6494 -0.6449 -1.2133
15982TIP3   OH269360   3.080   1.165  16.256  0.6412 -0.4753  0.2647
15982TIP3    H169361   3.020   1.159  16.180  0.9251 -0.8843  0.0711
15982TIP3    H269362   3.088   1.075  16.287  2.6322 -0.7354 -0.8620
15983TIP3   OH269363   1.566   3.551  16.172 -0.3167 -0.4681 -0.0520
15983TIP3    H169364   1.573   3.640  16.204 -3.1696 -0.4197  0.6896
15983TIP3    H269365   1.657   3.524  16.157  0.7272  1.9451  1.2961
15984TIP3   OH269366   3.465   4.238   1.305 -0.1036 -0.3033 -0.0515
15984TIP3    H169367   3.550   4.259   1.346 -0.2908  0.9205 -0.2431
15984TIP3    H269368   3.401   4.259   1.373 -0.2441 -1.7959  0.3048
15985TIP3   OH269369   0.215   3.477  15.636 -0.0309  0.0098  0.1071
15985TIP3    H169370   0.283   3.536  15.670 -0.9561  2.0194 -1.3749
15985TIP3    H269371   0.140   3.491  15.694  0.2492 -0.9804  0.7387
15986TIP3   OH269372   4.318   2.546  13.029 -0.2415 -0.1589  0.2158
15986TIP3    H169373   4.380   2.562  12.957 -1.5776 -0.4308 -1.0347
15986TIP3    H269374   4.371   2.556  13.108  2.4062 -4.2652 -0.7617
15987TIP3   OH269375   3.037   0.115   1.514  0.0073  0.3713 -0.3173
15987TIP3    H169376   3.044   0.020   1.525 -1.1171  0.1817 -1.0371
15987TIP3    H269377   2.943   0.133   1.523  0.1878  1.3886 -0.3797
15988TIP3   OH269378   5.608   4.465   6.806 -0.0135  0.0636 -0.5839
15988TIP3    H169379   5.607   4.369   6.805  0.2176 -0.0184  1.6073
15988TIP3    H269380   5.546   4.490   6.737 -1.2215 -1.6951 -0.2274
15989TIP3   OH269381   5.074   4.405  12.731 -0.5211  0.1040 -1.1750
15989TIP3    H169382   5.118   4.378  12.651 -0.9825  1.4711 -1.9137
15989TIP3    H269383   5.005   4.339  12.743 -0.7782  0.1650 -2.1998
15990TIP3   OH269384   1.159   5.929   1.850 -0.1383 -0.0775 -0.2961
15990TIP3    H169385   1.098   5.932   1.777 -0.7940 -2.7934  0.0388
15990TIP3    H269386   1.105   5.907   1.926  0.9377 -0.2251  0.4524
15991TIP3   OH269387   4.609   0.609   4.716  0.0118  0.1572 -0.4715
15991TIP3    H169388   4.694   0.571   4.693 -0.5116 -1.7337  0.4991
15991TIP3    H269389   4.554   0.595   4.639  0.0338 -0.4052 -0.3868
15992TIP3   OH269390   2.100   3.900  15.511  0.5886 -0.1566  0.0223
15992TIP3    H169391   2.156   3.976  15.497  0.3922  0.1214  0.6935
15992TIP3    H269392   2.051   3.921  15.591 -0.9508 -0.0893 -0.8838
15993TIP3   OH269393   5.264   6.744  17.280  0.5533 -0.0122 -0.1329
15993TIP3    H169394   5.304   6.686  17.215  1.8866  0.8142 -0.0947
15993TIP3    H269395   5.328   6.748  17.351 -0.0382  0.6068  0.3744
15994TIP3   OH269396   2.692   5.604   5.567  0.3480  0.0953 -0.0933
15994TIP3    H169397   2.603   5.616   5.601  0.8335  3.1526  0.3637
15994TIP3    H269398   2.692   5.647   5.482  1.1300 -0.8996 -0.6252
15995TIP3   OH269399   1.389   1.640  15.845  0.0114 -0.3143 -0.6214
15995TIP3    H169400   1.315   1.665  15.789  0.4638 -1.6522 -1.8768
15995TIP3    H269401   1.391   1.707  15.913 -2.0911 -0.0107 -0.7902
15996TIP3   OH269402   3.862   4.674   2.955  0.8181  0.2684  0.4040
15996TIP3    H169403   3.827   4.597   2.910 -0.0085  0.2905  0.9998
15996TIP3    H269404   3.928   4.640   3.014 -0.6537 -0.1993  1.8437
15997TIP3   OH269405   0.292   2.573  14.978 -0.8002  0.3122  0.1517
15997TIP3    H169406   0.331   2.646  15.026 -1.4468  0.8189 -0.0860
15997TIP3    H269407   0.355   2.554  14.909 -0.8654  0.9764 -0.0949
15998TIP3   OH269408   4.839   4.280  12.138 -0.3347 -0.2362  0.2120
15998TIP3    H169409   4.812   4.362  12.096 -0.1563  0.1719  0.8900
15998TIP3    H269410   4.831   4.297  12.232 -0.3021 -0.9985  0.3571
15999TIP3   OH269411   3.237   4.124   5.966  0.0737 -0.1575 -0.2306
15999TIP3    H169412   3.249   4.156   6.056  0.8311 -1.8212  0.2998
15999TIP3    H269413   3.317   4.075   5.948 -0.6333 -0.9285 -1.3446
16000TIP3   OH269414   0.967   3.980  14.478 -0.2926 -0.6021 -0.0409
16000TIP3    H169415   0.924   3.996  14.562 -0.8355 -1.1220 -0.2115
16000TIP3    H269416   0.896   3.954  14.419  0.0004  0.2805 -0.8102
16001TIP3   OH269417   3.058   5.320   5.115 -0.3146 -0.3182 -0.1648
16001TIP3    H169418   2.979   5.336   5.063 -0.1936  0.3690 -0.1436
16001TIP3    H269419   3.028   5.323   5.206 -0.2485  0.0379 -0.1541
16002TIP3   OH269420   2.140   3.611  16.371  0.5037  0.1922 -0.0360
16002TIP3    H169421   2.083   3.637  16.444  0.9117  0.6509  0.1231
16002TIP3    H269422   2.194   3.541  16.408  0.0968 -0.1963 -0.1648
16003TIP3   OH269423   6.271   0.089  16.578 -0.3546 -0.6703 -0.2537
16003TIP3    H169424   6.197   0.073  16.520 -0.5039 -0.5611 -0.0976
16003TIP3    H269425   6.295   0.180  16.563 -0.2410 -0.7097 -0.3154
16004TIP3   OH269426   6.013   5.768  15.814 -0.1506  0.1099 -0.3207
16004TIP3    H169427   6.040   5.842  15.760 -0.3870 -0.7870 -1.6939
16004TIP3    H269428   6.095   5.736  15.854  0.1448  0.2674 -0.7952
16005TIP3   OH269429   0.457   2.858  13.309  0.3147  0.0778  0.0659
16005TIP3    H169430   0.516   2.881  13.237 -0.8236 -0.3570 -1.0591
16005TIP3    H269431   0.411   2.939  13.329 -0.1818 -0.0487 -0.5121
16006TIP3   OH269432   4.209   0.695   6.276  0.1473 -0.4880 -0.1806
16006TIP3    H169433   4.229   0.644   6.197  1.0675 -1.4027  0.6275
16006TIP3    H269434   4.294   0.714   6.315 -0.3172 -0.4714  0.8584
16007TIP3   OH269435   4.668   2.482   1.962  0.9053  0.2419 -0.2450
16007TIP3    H169436   4.669   2.387   1.978  1.0912  0.4403  0.9942
16007TIP3    H269437   4.668   2.521   2.049  1.4960  1.3990 -0.7443
16008TIP3   OH269438   1.772   1.197  15.321  0.4502  0.9892 -0.0905
16008TIP3    H169439   1.698   1.136  15.311  2.5024 -1.7145 -0.0713
16008TIP3    H269440   1.733   1.276  15.358 -1.8957 -2.0459  5.1293
16009TIP3   OH269441   0.939   4.683   5.131  0.0111 -0.0514  0.3757
16009TIP3    H169442   0.951   4.590   5.147  0.1448  0.1688  1.6365
16009TIP3    H269443   1.016   4.708   5.078  0.0264 -0.6252  0.1241
16010TIP3   OH269444   1.526   3.843   1.426  0.5831  0.0773 -0.2323
16010TIP3    H169445   1.438   3.872   1.451  0.8489  0.4844  0.2764
16010TIP3    H269446   1.518   3.749   1.412  0.1149  0.0746  0.0381
16011TIP3   OH269447   1.845   2.022  16.497  0.1231  0.6302  0.2862
16011TIP3    H169448   1.819   1.987  16.583 -0.5681 -3.5219 -1.3553
16011TIP3    H269449   1.772   2.078  16.471 -1.1553 -0.5621  1.1551
16012TIP3   OH269450   5.462   6.026   2.455  0.2004  0.5973 -0.2388
16012TIP3    H169451   5.395   6.046   2.520 -0.2045  1.1073 -0.8087
16012TIP3    H269452   5.523   5.968   2.501 -0.7996 -0.1434  0.1866
16013TIP3   OH269453   5.265   1.012  13.534 -0.1436 -0.2104  0.1590
16013TIP3    H169454   5.193   0.955  13.558  1.2411 -1.2230  2.1872
16013TIP3    H269455   5.295   0.977  13.450  0.1722 -2.0414  0.9763
16014TIP3   OH269456   6.450   5.817  13.494 -0.1272 -0.0363 -0.2702
16014TIP3    H169457   6.381   5.759  13.526  0.4340 -0.0568  0.9347
16014TIP3    H269458   6.529   5.786  13.537  0.3094  1.1675 -0.1882
16015TIP3   OH269459   5.560   5.078   4.950  0.5265 -0.3223 -0.0733
16015TIP3    H169460   5.477   5.121   4.927  1.7557  1.3512 -1.7434
16015TIP3    H269461   5.569   5.008   4.885  0.5838 -0.3028 -0.0853
16016TIP3   OH269462   6.299   6.650  14.545  0.1257  0.2899 -0.3324
16016TIP3    H169463   6.288   6.743  14.526 -1.1811  0.0179 -1.0039
16016TIP3    H269464   6.384   6.628  14.507  0.3771  1.1752 -0.3029
16017TIP3   OH269465   6.638   1.892  11.110  0.6222 -0.6039 -0.4017
16017TIP3    H169466   6.638   1.833  11.185  0.5880  0.9474  0.8777
16017TIP3    H269467   6.546   1.904  11.088  0.3633  1.4375  1.4464
16018TIP3   OH269468   6.641   0.727  10.800  0.4512  0.0162 -0.0025
16018TIP3    H169469   6.564   0.776  10.770 -0.1647  0.1890  1.7156
16018TIP3    H269470   6.663   0.669  10.727  0.2655  1.7552 -1.5180
16019TIP3   OH269471   1.684   5.127  14.613 -0.8608  0.3170 -0.0215
16019TIP3    H169472   1.709   5.035  14.611 -1.3104  0.2055 -1.1356
16019TIP3    H269473   1.650   5.140  14.702  1.5111  0.0753  1.0157
16020TIP3   OH269474   4.921   6.316  16.820 -0.0368 -0.0672  0.2145
16020TIP3    H169475   4.996   6.261  16.843 -0.1167  0.0770  0.8602
16020TIP3    H269476   4.845   6.266  16.850 -0.3256 -0.9072 -1.8051
16021TIP3   OH269477   6.048   2.223  13.441 -0.9487  0.1344  0.8539
16021TIP3    H169478   6.114   2.159  13.469 -0.2113  0.7682  0.6109
16021TIP3    H269479   5.972   2.170  13.416 -0.3403 -0.6509  0.6100
16022TIP3   OH269480   1.062   4.827  12.873  0.1850 -0.3964  0.4980
16022TIP3    H169481   1.146   4.849  12.831  0.1128  0.6165  0.8464
16022TIP3    H269482   1.045   4.737  12.847  1.0376 -0.3826 -0.1633
16023TIP3   OH269483   6.148   3.822   1.693  0.2382 -0.1854  0.5574
16023TIP3    H169484   6.159   3.729   1.713  1.6492  0.0166  0.8115
16023TIP3    H269485   6.091   3.823   1.616 -0.0989 -1.2369  0.7662
16024TIP3   OH269486   4.024   1.744   5.223  0.2350 -0.4219  0.8699
16024TIP3    H169487   4.018   1.688   5.146  3.5912  1.6393 -1.1356
16024TIP3    H269488   4.066   1.689   5.289 -0.7172 -1.5704  0.5620
16025TIP3   OH269489   1.836   1.255   5.211 -0.2083  0.3282  0.0312
16025TIP3    H169490   1.772   1.185   5.200  0.1682 -0.0756  0.4061
16025TIP3    H269491   1.917   1.221   5.174  0.0068  0.5131  0.3209
16026TIP3   OH269492   4.648   4.334   4.515  0.3038 -0.9047  1.1401
16026TIP3    H169493   4.680   4.424   4.525 -0.2688 -0.3653 -1.2597
16026TIP3    H269494   4.619   4.309   4.603  1.0023  1.0377  1.9758
16027TIP3   OH269495   2.378   1.797  14.018 -0.1273 -0.2072  0.4828
16027TIP3    H169496   2.388   1.867  13.953 -0.2427 -0.5395  0.1061
16027TIP3    H269497   2.284   1.791  14.033 -0.1690 -0.7306  0.0211
16028TIP3   OH269498   6.269   3.030   0.959  0.0729  0.9124  0.0162
16028TIP3    H169499   6.339   2.966   0.964 -0.2831  0.5138  0.0041
16028TIP3    H269500   6.288   3.093   1.028 -0.3617 -0.0183  1.0118
16029TIP3   OH269501   4.884   3.408   2.198 -0.7872  0.4049 -0.2530
16029TIP3    H169502   4.808   3.451   2.236 -0.2790  1.3736 -0.2961
16029TIP3    H269503   4.950   3.477   2.191 -0.3110 -0.1314 -1.3529
16030TIP3   OH269504   4.163   1.698   6.706 -0.3987 -0.5390 -0.3164
16030TIP3    H169505   4.208   1.768   6.753 -0.9135 -0.8640  0.6889
16030TIP3    H269506   4.233   1.652   6.659  0.2890 -0.8574  0.9916
16031TIP3   OH269507   2.722   5.128   5.613  0.1771 -0.1460 -0.4897
16031TIP3    H169508   2.679   5.204   5.573 -0.6000  0.0145  0.5971
16031TIP3    H269509   2.775   5.165   5.684  0.7447 -0.5221 -0.7040
16032TIP3   OH269510   0.798   5.109   6.141  0.4493  0.3385  0.2194
16032TIP3    H169511   0.751   5.183   6.102  0.2526 -0.0161 -0.2298
16032TIP3    H269512   0.730   5.056   6.183  0.7477  1.1375  1.7904
16033TIP3   OH269513   5.100   0.119  12.370  0.3041 -0.1212 -0.4526
16033TIP3    H169514   5.177   0.122  12.427  1.7323 -0.6436 -2.2424
16033TIP3    H269515   5.066   0.030  12.380  0.5956 -0.2343 -0.4489
16034TIP3   OH269516   6.286   4.080  12.983 -0.6733 -0.3752  0.1232
16034TIP3    H169517   6.325   4.158  12.943 -1.6207  0.3408  0.5577
16034TIP3    H269518   6.221   4.051  12.920 -1.6996  0.3626  0.8108
16035TIP3   OH269519   5.936   0.726  11.893  0.2171  0.2870  0.2489
16035TIP3    H169520   6.018   0.698  11.853 -0.1052 -0.5444  0.1401
16035TIP3    H269521   5.959   0.747  11.983  0.1236 -2.4463  0.9871
16036TIP3   OH269522   6.125   3.062  14.225 -0.5697  0.3512  0.9184
16036TIP3    H169523   6.036   3.050  14.193  0.5042 -2.6934 -1.4522
16036TIP3    H269524   6.179   3.068  14.146  1.4105  1.6411  2.2690
16037TIP3   OH269525   6.600   5.362  16.858 -0.1555  0.1644 -0.5738
16037TIP3    H169526   6.683   5.369  16.811  0.1602 -1.0270 -0.2237
16037TIP3    H269527   6.587   5.449  16.898 -1.0565  1.6612 -3.7860
16038TIP3   OH269528   5.792   4.906   3.270  0.4452  0.1634  0.2500
16038TIP3    H169529   5.866   4.953   3.309  0.1035  1.9604 -1.1316
16038TIP3    H269530   5.799   4.817   3.304  1.4807  1.0520  2.5176
16039TIP3   OH269531   2.749   1.924  17.278 -0.0529  0.3256 -0.2589
16039TIP3    H169532   2.810   1.889  17.213 -1.2324  1.1682 -1.8890
16039TIP3    H269533   2.758   2.019  17.269  0.9765  0.5162  2.0405
16040TIP3   OH269534   3.439   4.343  13.730  0.0305  0.0088  0.2947
16040TIP3    H169535   3.436   4.266  13.786 -0.6439  0.0008  0.2564
16040TIP3    H269536   3.502   4.320  13.662  0.2283 -0.3036  0.5782
16041TIP3   OH269537   4.960   5.701   3.099 -0.0271 -0.8431  0.5803
16041TIP3    H169538   5.000   5.785   3.118 -0.3951 -0.2262 -1.1451
16041TIP3    H269539   4.951   5.658   3.184  3.2212 -0.5568  1.1667
16042TIP3   OH269540   2.981   3.088  15.095 -0.0133  0.3309  0.3511
16042TIP3    H169541   2.955   2.996  15.095 -0.8534  0.5609  0.3522
16042TIP3    H269542   3.034   3.098  15.174 -2.0075  0.4066  1.7462
16043TIP3   OH269543   6.574   1.215  16.996 -0.1220 -0.2141  0.0987
16043TIP3    H169544   6.577   1.227  17.091 -3.5593 -0.4451  0.3686
16043TIP3    H269545   6.613   1.129  16.980  0.4832 -0.1709  1.2914
16044TIP3   OH269546   3.248   2.142  11.568 -0.3846 -0.2830 -0.3264
16044TIP3    H169547   3.306   2.067  11.552 -0.0780 -0.2430  0.4980
16044TIP3    H269548   3.181   2.136  11.501  0.2542 -0.6705 -0.9439
16045TIP3   OH269549   4.502   2.374  14.579  0.2106 -0.0483  0.1010
16045TIP3    H169550   4.557   2.325  14.640  0.4155  1.3839  1.1004
16045TIP3    H269551   4.466   2.446  14.631 -0.2167  0.7733 -1.2913
16046TIP3   OH269552   4.225   4.563   3.486 -0.2676 -0.3160 -0.8939
16046TIP3    H169553   4.319   4.575   3.480 -0.3634  0.1803 -1.5327
16046TIP3    H269554   4.189   4.651   3.472 -0.8731 -0.7649 -2.3490
16047TIP3   OH269555   1.203   1.293  12.739  0.3164 -0.2063 -0.5726
16047TIP3    H169556   1.238   1.380  12.719  0.1022  0.0390  0.0973
16047TIP3    H269557   1.108   1.304  12.735  0.2915 -0.5302 -0.9652
16048TIP3   OH269558   4.626   3.531   2.747 -0.1405 -0.3331  0.0800
16048TIP3    H169559   4.597   3.569   2.830 -1.0456  0.5366 -0.6187
16048TIP3    H269560   4.633   3.437   2.765 -3.0284 -0.5486  0.4081
16049TIP3   OH269561   1.062   2.208   3.387 -0.1631 -0.2182  0.0626
16049TIP3    H169562   1.144   2.250   3.414 -1.3600  1.8417  0.7881
16049TIP3    H269563   1.030   2.165   3.466 -1.1848  1.5355  0.6753
16050TIP3   OH269564   3.582   4.291  12.107 -0.1248 -0.0596  0.3096
16050TIP3    H169565   3.639   4.326  12.176  0.2463  0.7123 -0.3703
16050TIP3    H269566   3.572   4.364  12.046 -3.1841  0.4089  1.1936
16051TIP3   OH269567   5.390   5.936   4.176  0.7881  0.2616 -0.4430
16051TIP3    H169568   5.314   5.949   4.119  0.5940  1.4392  0.0564
16051TIP3    H269569   5.464   5.930   4.116  0.1906 -2.1593 -1.0113
16052TIP3   OH269570   2.566   6.649  17.127  0.3455  0.2626  0.3400
16052TIP3    H169571   2.591   6.591  17.199  0.5225  0.9604  0.8511
16052TIP3    H269572   2.586   6.599  17.048 -0.2283 -0.6737  0.7660
16053TIP3   OH269573   2.689   6.246   1.844  0.3322 -0.2912  0.0449
16053TIP3    H169574   2.671   6.331   1.804  0.6448  0.1352  0.7907
16053TIP3    H269575   2.628   6.185   1.801  0.6518  0.1484 -1.0570
16054TIP3   OH269576   1.276   3.736  14.945 -0.3825  0.4085  0.1221
16054TIP3    H169577   1.344   3.700  15.002  0.4224 -0.1016 -1.1227
16054TIP3    H269578   1.194   3.702  14.981  0.1017  0.0555  0.9328
16055TIP3   OH269579   0.219   4.501  16.954  0.1224 -0.0675 -0.0290
16055TIP3    H169580   0.292   4.528  17.010 -0.3603  2.9121 -0.6734
16055TIP3    H269581   0.141   4.516  17.008 -0.1269 -2.9579  0.5541
16056TIP3   OH269582   6.706   3.770  13.465  0.3460 -0.6923  0.0755
16056TIP3    H169583   6.693   3.724  13.548 -0.6475 -2.5324 -1.0434
16056TIP3    H269584   6.619   3.775  13.426  1.1338 -2.5678 -2.1797
16057TIP3   OH269585   2.543   4.785  14.369  0.0328  0.3211 -0.1978
16057TIP3    H169586   2.512   4.854  14.311 -1.1477 -0.3962 -0.4446
16057TIP3    H269587   2.483   4.787  14.443  0.2213 -0.1939 -0.0270
16058TIP3   OH269588   2.942   0.957  14.318 -0.3538 -0.0642 -0.0551
16058TIP3    H169589   2.972   0.866  14.318 -0.6460 -0.1739  0.6849
16058TIP3    H269590   2.849   0.951  14.339 -0.3757  0.4023 -0.0170
16059TIP3   OH269591   2.322   6.163  15.683 -0.0936  0.0793  0.1688
16059TIP3    H169592   2.354   6.244  15.643  1.5840 -0.3254  0.6006
16059TIP3    H269593   2.363   6.162  15.769  0.6714 -1.6622 -0.1825
16060TIP3   OH269594   0.833   4.331   5.787 -0.8394  0.2093 -0.3265
16060TIP3    H169595   0.836   4.242   5.751  1.5337  0.5967 -1.2535
16060TIP3    H269596   0.884   4.326   5.868 -2.8731  0.2293  1.0424
16061TIP3   OH269597   4.392   0.361   4.830  0.1719 -0.1497  0.0855
16061TIP3    H169598   4.458   0.292   4.821 -0.6703 -1.0472  0.5997
16061TIP3    H269599   4.370   0.361   4.923 -1.5290 -0.8089 -0.2853
16062TIP3   OH269600   2.579   2.525  13.137 -0.7186  0.2065 -0.1859
16062TIP3    H169601   2.573   2.449  13.079 -0.1260  0.0015  0.0098
16062TIP3    H269602   2.672   2.530  13.160 -0.8973  0.4688  0.5072
16063TIP3   OH269603   6.697   2.709  11.252 -0.6485  0.0137 -0.4094
16063TIP3    H169604   6.761   2.768  11.214 -0.3970 -0.4947 -0.7855
16063TIP3    H269605   6.677   2.647  11.182 -1.0504 -0.2333 -0.0826
16064TIP3   OH269606   1.648   4.842  14.575  0.1547  0.1238  1.1883
16064TIP3    H169607   1.680   4.807  14.659  0.4293  0.9987  1.4660
16064TIP3    H269608   1.728   4.864  14.527  0.0132 -1.0519  0.3788
16065TIP3   OH269609   1.772   0.946  13.531  0.2424 -0.5737 -0.0667
16065TIP3    H169610   1.695   0.895  13.505  0.5370 -0.9488 -0.2109
16065TIP3    H269611   1.797   0.909  13.616  0.1824 -0.3597  0.0443
16066TIP3   OH269612   5.074   0.248   5.638  0.5837  0.3344 -0.8535
16066TIP3    H169613   5.032   0.293   5.711 -2.3818 -1.1691 -1.4931
16066TIP3    H269614   5.024   0.277   5.561  0.7015 -1.5361 -1.6746
16067TIP3   OH269615   5.513   3.706   2.725  0.3952 -0.1179  0.1188
16067TIP3    H169616   5.579   3.776   2.723 -0.0826  0.3270 -0.6569
16067TIP3    H269617   5.555   3.635   2.773  0.3983  1.1873  2.1524
16068TIP3   OH269618   5.580   1.556  10.547  0.0668 -0.3315  0.1803
16068TIP3    H169619   5.617   1.636  10.511 -0.1736  0.1167  0.8969
16068TIP3    H269620   5.545   1.582  10.633  0.7538 -1.3798  0.8058
16069TIP3   OH269621   4.617   0.936   3.014  1.5048  0.5232  0.3259
16069TIP3    H169622   4.676   1.012   3.016  1.0158  0.9066  0.3562
16069TIP3    H269623   4.657   0.876   2.951  1.5572  1.0891 -0.1907
16070TIP3   OH269624   2.543   1.959  16.561  0.0814 -0.2836 -0.1495
16070TIP3    H169625   2.604   1.952  16.634 -0.0283 -1.5269 -0.1603
16070TIP3    H269626   2.457   1.943  16.600 -0.2990  1.5723 -0.1101
16071TIP3   OH269627   2.731   3.785  15.197 -0.0281  0.4663 -0.3951
16071TIP3    H169628   2.735   3.764  15.104 -1.6510 -0.3497 -0.3169
16071TIP3    H269629   2.656   3.843  15.206 -0.7098 -0.5051  0.5545
16072TIP3   OH269630   6.309   6.428  16.830  0.1480 -0.1475 -0.4705
16072TIP3    H169631   6.388   6.480  16.816  0.6208 -0.7315 -0.0077
16072TIP3    H269632   6.241   6.493  16.851  0.3325  0.4070 -1.5302
16073TIP3   OH269633   0.086   1.036   5.191 -0.1758  0.1716  0.2871
16073TIP3    H169634   0.079   1.040   5.287  0.5199 -0.7802  0.3995
16073TIP3    H269635  -0.004   1.030   5.161 -0.4248  0.9095  0.8563
16074TIP3   OH269636   0.388   1.612  15.216 -0.3499  0.3257  0.1219
16074TIP3    H169637   0.314   1.591  15.159 -0.1986 -1.5158  0.5442
16074TIP3    H269638   0.465   1.605  15.159 -0.3518  0.2924  0.1227
16075TIP3   OH269639   1.400   3.996  15.735  0.0438  0.5983  0.3092
16075TIP3    H169640   1.473   4.021  15.678 -1.4270  0.7862 -1.6201
16075TIP3    H269641   1.426   3.912  15.772  1.4474  0.9050  0.0767
16076TIP3   OH269642   5.451   2.847  15.940 -0.4507 -0.5132  0.1972
16076TIP3    H169643   5.487   2.850  16.029 -0.9286 -0.3565  0.3882
16076TIP3    H269644   5.436   2.753  15.924 -1.0355 -0.4898  0.5615
16077TIP3   OH269645   4.518   3.259   6.612 -0.3199  0.1267 -0.5989
16077TIP3    H169646   4.496   3.245   6.704  2.1500  0.1443  0.0669
16077TIP3    H269647   4.525   3.354   6.603  1.0760  0.0801 -0.3174
16078TIP3   OH269648   3.192   5.743   2.350  0.4164 -0.2775  0.6395
16078TIP3    H169649   3.249   5.671   2.323  0.0377 -0.2126 -0.3455
16078TIP3    H269650   3.224   5.819   2.301 -1.4353 -0.5508 -1.1317
16079TIP3   OH269651   3.575   2.540  14.060 -0.2621  0.0549  0.3749
16079TIP3    H169652   3.634   2.594  14.113 -1.3722  1.1185  0.5692
16079TIP3    H269653   3.632   2.500  13.994  0.8199  0.2997  1.1356
16080TIP3   OH269654   6.542   1.832  16.845 -0.3229  0.2908 -0.6217
16080TIP3    H169655   6.552   1.838  16.750  1.2463 -0.6841 -0.5490
16080TIP3    H269656   6.519   1.740  16.861 -0.9681  0.5355 -0.0701
16081TIP3   OH269657   0.276   5.853   6.882  0.8282  0.3176 -0.0762
16081TIP3    H169658   0.318   5.807   6.810  1.0411  0.1797  0.1329
16081TIP3    H269659   0.234   5.929   6.842  1.5183  0.6132 -0.2471
16082TIP3   OH269660   6.386   4.510  14.731  0.5814  0.3725  0.1532
16082TIP3    H169661   6.425   4.529  14.646  1.4704  0.6870  0.6133
16082TIP3    H269662   6.294   4.536  14.722  0.6262  0.2345 -0.7542
16083TIP3   OH269663   2.799   1.307  12.943 -0.0078  0.1089  0.8089
16083TIP3    H169664   2.706   1.292  12.926 -0.2097 -0.5603  2.3350
16083TIP3    H269665   2.820   1.248  13.015  1.8980 -0.5908 -0.2472
16084TIP3   OH269666   6.373   0.112  14.842  0.0929 -0.9075 -0.3470
16084TIP3    H169667   6.457   0.116  14.797  0.0668 -0.3310 -0.3586
16084TIP3    H269668   6.337   0.201  14.834 -0.3735 -1.0654 -0.0741
16085TIP3   OH269669   2.907   2.217   2.910 -0.4314 -0.4517  0.3932
16085TIP3    H169670   2.973   2.149   2.919 -0.3620 -0.7090 -1.5287
16085TIP3    H269671   2.957   2.298   2.901 -0.5046 -0.1614  2.3168
16086TIP3   OH269672   3.922   6.059  13.014  0.0960  0.0559 -0.4314
16086TIP3    H169673   3.898   6.141  12.972 -1.0304  0.1696  0.3785
16086TIP3    H269674   3.904   6.074  13.107  0.6016 -0.8545 -0.1763
16087TIP3   OH269675   3.523   5.076  12.082 -0.2059 -0.3130 -0.1293
16087TIP3    H169676   3.541   5.091  12.175 -0.5120 -0.3156 -0.0673
16087TIP3    H269677   3.451   5.135  12.062 -1.3995 -1.6434  0.1015
16088TIP3   OH269678   0.898   2.745   3.620  0.4890  0.5550 -0.0021
16088TIP3    H169679   0.878   2.830   3.660 -1.1562 -0.5001  1.5551
16088TIP3    H269680   0.840   2.741   3.544  1.1203  1.1007 -0.5356
16089TIP3   OH269681   4.320   4.114  16.065  0.2983  0.0310 -0.2918
16089TIP3    H169682   4.297   4.206  16.059  0.6168  0.0547 -1.3354
16089TIP3    H269683   4.337   4.099  16.158  1.1448  1.2417 -0.2318
16090TIP3   OH269684   6.044   2.104   0.391  0.5338  0.5877  0.1288
16090TIP3    H169685   6.010   2.119   0.303  0.8876  0.3863 -0.0454
16090TIP3    H269686   5.967   2.108   0.448 -0.3888 -3.0896 -0.5866
16091TIP3   OH269687   2.659   4.310  12.595  0.5164 -0.9190 -0.1990
16091TIP3    H169688   2.611   4.257  12.530  1.6136 -3.1375  0.7206
16091TIP3    H269689   2.590   4.351  12.647 -0.3894  0.3234 -2.2148
16092TIP3   OH269690   3.438   5.584  16.554 -0.5838 -0.2506  0.3374
16092TIP3    H169691   3.522   5.629  16.544  0.2332 -1.3744  1.7349
16092TIP3    H269692   3.412   5.602  16.645 -1.3243 -0.7977  0.2464
16093TIP3   OH269693   3.031   6.567  17.400 -0.2292  0.5476 -0.3409
16093TIP3    H169694   2.968   6.600  17.336  0.7187  2.2404 -0.4500
16093TIP3    H269695   3.058   6.644  17.449 -1.1041 -0.7037  2.3387
16094TIP3   OH269696   2.146   3.517   5.916 -0.1220 -0.4663 -0.5608
16094TIP3    H169697   2.180   3.597   5.876  0.6433 -0.6138 -0.2297
16094TIP3    H269698   2.057   3.539   5.942 -1.0129 -0.6220 -3.1259
16095TIP3   OH269699   2.358   2.435  16.757 -0.5473  0.0990 -0.1242
16095TIP3    H169700   2.426   2.371  16.734  0.9826  1.4926  0.3496
16095TIP3    H269701   2.378   2.459  16.847 -2.7752 -0.7513  0.6546
16096TIP3   OH269702   1.775   4.217  16.923  0.3927 -0.0161 -0.0066
16096TIP3    H169703   1.845   4.204  16.986  1.0170  0.7039 -0.5484
16096TIP3    H269704   1.811   4.275  16.857 -0.8876  0.8044 -0.0207
16097TIP3   OH269705   1.083   5.081  10.881  0.5207  0.4436  0.0086
16097TIP3    H169706   1.046   5.155  10.833  0.1690 -0.6440 -1.4569
16097TIP3    H269707   1.021   5.066  10.953  0.3710  1.2859  0.0689
16098TIP3   OH269708   2.574   6.625  15.547 -0.1015  0.1488 -0.1916
16098TIP3    H169709   2.543   6.664  15.629  0.0447  0.6688 -0.3816
16098TIP3    H269710   2.650   6.677  15.523 -1.1959  1.1838 -1.6058
16099TIP3   OH269711   0.497   3.072  12.035 -0.2461  0.1110 -0.7018
16099TIP3    H169712   0.423   3.132  12.038  2.6739  4.0651 -0.4265
16099TIP3    H269713   0.528   3.067  12.125  1.2504  0.5504 -1.1704
16100TIP3   OH269714   1.050   3.325  12.266 -0.0459 -0.1026  0.1476
16100TIP3    H169715   1.103   3.399  12.236 -0.1103  0.3339  1.0703
16100TIP3    H269716   1.005   3.294  12.188 -0.4019  1.1580 -0.1667
16101TIP3   OH269717   1.570   1.483   0.698 -0.4348 -0.0641  0.1227
16101TIP3    H169718   1.487   1.496   0.651 -0.2415 -1.1076 -0.5211
16101TIP3    H269719   1.611   1.409   0.655 -0.2178 -1.0273  1.9117
16102TIP3   OH269720   4.583   1.754  11.984 -0.2637  0.0338  0.2094
16102TIP3    H169721   4.635   1.702  12.045  0.0720  0.7500  0.5412
16102TIP3    H269722   4.645   1.817  11.946 -0.4734 -0.3714 -0.8501
16103TIP3   OH269723   5.223   0.056   3.154 -0.1012  0.1761 -0.4021
16103TIP3    H169724   5.250   0.138   3.113  0.2154 -0.2168 -0.9717
16103TIP3    H269725   5.300   0.026   3.202 -0.4278  0.5643  0.3847
16104TIP3   OH269726   2.803   3.071  11.128 -0.2692 -0.2539 -0.2624
16104TIP3    H169727   2.736   3.139  11.119  0.0759  0.1779  0.3816
16104TIP3    H269728   2.758   2.990  11.106 -1.4134 -0.1647  1.6105
16105TIP3   OH269729   1.683   1.317   5.965 -0.1151  0.0357 -0.1004
16105TIP3    H169730   1.750   1.266   5.918 -0.4802 -2.7658  2.0951
16105TIP3    H269731   1.722   1.334   6.050 -0.8427  1.7158 -0.0630
16106TIP3   OH269732   4.180   2.830  14.999  0.0623 -0.2692  0.4255
16106TIP3    H169733   4.232   2.892  14.948 -1.7241  1.3152  0.4118
16106TIP3    H269734   4.170   2.754  14.941 -0.1397  0.6241 -0.7359
16107TIP3   OH269735   0.325   5.823   4.978 -0.2096  0.7847  0.4585
16107TIP3    H169736   0.234   5.795   4.989 -0.2612  0.2378 -1.1296
16107TIP3    H269737   0.321   5.896   4.917  0.6149 -1.4864 -2.5796
16108TIP3   OH269738   6.155   3.551  14.839  0.2513 -0.4199  0.4747
16108TIP3    H169739   6.191   3.565  14.927  0.7234  1.2996  0.0455
16108TIP3    H269740   6.206   3.477  14.805  1.3082  0.0336  1.0075
16109TIP3   OH269741   0.254   2.031   4.820 -0.1380 -0.5612 -0.5499
16109TIP3    H169742   0.176   1.988   4.855  0.0744 -1.7898 -1.5257
16109TIP3    H269743   0.325   1.970   4.840 -0.0031 -1.3071 -3.0522
16110TIP3   OH269744   5.329   3.354  12.565  0.1937 -0.0539  0.2962
16110TIP3    H169745   5.354   3.402  12.644 -0.0880 -1.8001  1.5012
16110TIP3    H269746   5.268   3.287  12.596 -1.7348  0.6464 -1.7547
16111TIP3   OH269747   1.038   5.607   3.904 -0.4352  0.2460  0.0288
16111TIP3    H169748   1.053   5.636   3.995 -1.6175  1.8254 -0.2294
16111TIP3    H269749   0.945   5.586   3.901 -0.6273  1.1547 -1.0298
16112TIP3   OH269750   2.522   0.297  17.103  0.0229 -0.5393 -0.1177
16112TIP3    H169751   2.479   0.211  17.101 -1.2439  0.0950 -0.9567
16112TIP3    H269752   2.499   0.337  17.020  0.0759  0.8695  0.5255
16113TIP3   OH269753   2.861   2.226  16.829 -0.6257  0.4768 -0.3874
16113TIP3    H169754   2.949   2.195  16.850 -0.0975  1.7058 -0.6926
16113TIP3    H269755   2.810   2.146  16.817 -0.7771 -0.4363  4.3298
16114TIP3   OH269756   1.165   4.530  11.466 -0.0330 -0.3963 -0.0315
16114TIP3    H169757   1.233   4.592  11.439  0.2008 -1.5389 -2.3732
16114TIP3    H269758   1.103   4.530  11.392 -2.6428  0.5832  1.9889
16115TIP3   OH269759   0.686   3.040  12.574 -0.0272 -0.0559 -0.3708
16115TIP3    H169760   0.680   2.961  12.628  0.1668 -0.3757 -0.8120
16115TIP3    H269761   0.775   3.072  12.589 -0.1924  0.2241  0.0086
16116TIP3   OH269762   4.572   3.678   4.680 -0.6266 -1.0143  0.7559
16116TIP3    H169763   4.655   3.630   4.684  0.9090  1.3713 -0.3810
16116TIP3    H269764   4.587   3.757   4.732 -1.1226  0.8313 -1.7256
16117TIP3   OH269765   0.063   2.347   3.450 -0.3938  0.5670  0.2078
16117TIP3    H169766   0.042   2.273   3.394  1.4476  1.4794 -1.8684
16117TIP3    H269767   0.137   2.317   3.503 -0.5087  0.4785  0.3151
16118TIP3   OH269768   5.486   6.500   0.174 -0.4511  0.3763 -0.1993
16118TIP3    H169769   5.493   6.526   0.082  0.0408  2.3014  0.3286
16118TIP3    H269770   5.477   6.583   0.222 -2.6826 -0.6496  1.3529
16119TIP3   OH269771   1.712   0.256  14.632  0.1525  0.4750  0.2266
16119TIP3    H169772   1.804   0.231  14.633 -0.2315 -1.1739 -0.8714
16119TIP3    H269773   1.686   0.248  14.540 -1.1363  0.7148  0.5468
16120TIP3   OH269774   5.944   1.685   4.099  0.0112  0.1923  0.5387
16120TIP3    H169775   5.953   1.590   4.093 -0.6457  0.1881 -0.5658
16120TIP3    H269776   5.982   1.718   4.018 -2.8985  0.6244 -0.7609
16121TIP3   OH269777   3.561   0.943   5.867 -0.0579  0.5092 -0.3125
16121TIP3    H169778   3.607   0.891   5.933 -0.1766  0.6159 -0.1433
16121TIP3    H269779   3.468   0.921   5.880 -0.0703  0.4234 -0.5380
16122TIP3   OH269780   2.501   0.263  11.269  0.6043  0.2213 -0.7742
16122TIP3    H169781   2.552   0.275  11.189 -1.1729  0.4710 -1.9179
16122TIP3    H269782   2.479   0.170  11.271  1.8092 -0.0801  0.2109
16123TIP3   OH269783   1.646   5.218   6.119  0.1299  0.0674  0.3897
16123TIP3    H169784   1.725   5.165   6.111 -0.3591 -0.4958 -1.0994
16123TIP3    H269785   1.642   5.242   6.211  2.2887  0.5057  0.4360
16124TIP3   OH269786   4.044   1.977   3.952  0.0889 -0.3896  0.2858
16124TIP3    H169787   3.997   2.060   3.964  0.1482  0.1463 -2.5715
16124TIP3    H269788   4.064   1.948   4.041 -2.9619  0.8755  1.5097
16125TIP3   OH269789   1.168   3.058   3.824 -0.3189  0.2188 -0.3452
16125TIP3    H169790   1.259   3.089   3.824  0.5862 -2.1904  0.8262
16125TIP3    H269791   1.116   3.136   3.842  1.6034  1.4720  0.0689
16126TIP3   OH269792   5.177   6.116  13.225 -0.2053  0.0402 -0.0970
16126TIP3    H169793   5.201   6.108  13.317 -0.5630  0.3531  0.0254
16126TIP3    H269794   5.101   6.173  13.225 -1.1170 -1.1495 -0.4586
16127TIP3   OH269795   0.738   1.937  11.613  0.3230 -0.3178  0.2961
16127TIP3    H169796   0.715   2.030  11.616 -0.1297 -0.3663 -1.0776
16127TIP3    H269797   0.695   1.905  11.534  2.5320 -1.1309 -0.6225
16128TIP3   OH269798   5.189   1.392   1.278  0.5635  0.3734 -0.0477
16128TIP3    H169799   5.152   1.467   1.234  2.3443  1.8449  0.8038
16128TIP3    H269800   5.246   1.351   1.213 -0.7894 -0.5610 -0.6648
16129TIP3   OH269801   1.742   4.593  15.335  0.5447  0.6299 -0.1274
16129TIP3    H169802   1.650   4.593  15.360  0.4561  0.0423 -0.4258
16129TIP3    H269803   1.778   4.515  15.379  0.7877  0.5928 -0.3874
16130TIP3   OH269804   3.386   4.549   0.948 -0.0736 -0.5514  0.1149
16130TIP3    H169805   3.424   4.539   1.035 -0.5614  0.2648  0.4298
16130TIP3    H269806   3.412   4.469   0.902 -1.0378 -1.7100  1.4757
16131TIP3   OH269807   0.616   0.022  12.431  0.2979 -0.3077  0.4879
16131TIP3    H169808   0.634   0.075  12.509  1.2531 -1.2004  0.9080
16131TIP3    H269809   0.702  -0.007  12.402  0.0236  0.5753 -1.3451
16132TIP3   OH269810   6.732   5.113  10.950 -0.5349 -0.1683  0.3099
16132TIP3    H169811   6.784   5.033  10.945 -1.7763 -1.0966  1.6211
16132TIP3    H269812   6.788   5.175  10.998  1.2982  0.5509 -2.4945
16133TIP3   OH269813   4.027   2.821  10.878 -0.1938 -0.1179 -0.3170
16133TIP3    H169814   4.116   2.800  10.906 -0.4300 -0.2198  0.3851
16133TIP3    H269815   4.037   2.895  10.819  0.2526  0.6983  0.7468
16134TIP3   OH269816   2.047   2.132   0.649  0.5500  0.8351 -0.1316
16134TIP3    H169817   2.122   2.074   0.666  0.1415  0.4436  0.3834
16134TIP3    H269818   2.046   2.193   0.723 -0.8023 -0.4168  0.9553
16135TIP3   OH269819   2.007   1.912   5.832 -0.6150 -0.2038 -0.3391
16135TIP3    H169820   2.039   1.922   5.921 -1.9659  0.0188  0.1526
16135TIP3    H269821   1.930   1.854   5.841 -1.3243  0.5713 -1.2096
16136TIP3   OH269822   3.096   3.532   5.082 -0.1728 -0.2528  0.5102
16136TIP3    H169823   3.063   3.453   5.124 -1.3354  0.6730  1.4044
16136TIP3    H269824   3.138   3.501   5.001 -1.1575 -1.7004  0.5253
16137TIP3   OH269825   1.653   1.456  15.349  0.4106 -0.7345  0.2274
16137TIP3    H169826   1.680   1.493  15.265 -4.1663  2.9077 -0.0503
16137TIP3    H269827   1.689   1.516  15.414  1.0857 -1.5797  0.6556
16138TIP3   OH269828   4.624   0.987   0.176  0.2480 -0.7071  0.3226
16138TIP3    H169829   4.626   0.922   0.106 -0.6577 -1.1834  0.7230
16138TIP3    H269830   4.543   1.036   0.161  0.3978 -0.3537  0.6381
16139TIP3   OH269831   6.438   2.664   1.197  0.3296  0.1751  0.1027
16139TIP3    H169832   6.408   2.631   1.113 -1.5798  1.1606  0.3167
16139TIP3    H269833   6.504   2.601   1.227 -1.0547 -1.7983 -0.7986
16140TIP3   OH269834   3.460   2.854   1.897 -0.3965 -0.2391 -0.0335
16140TIP3    H169835   3.440   2.854   1.803  1.5358 -0.2027 -0.4749
16140TIP3    H269836   3.395   2.913   1.935  0.8489  2.5108 -1.8406
16141TIP3   OH269837   4.451   1.184  12.403  0.0981 -0.6643 -0.1308
16141TIP3    H169838   4.364   1.175  12.364 -0.6990  0.2474  1.3412
16141TIP3    H269839   4.487   1.264  12.364 -1.5481  1.4433  2.3873
16142TIP3   OH269840   5.833   2.336   4.125  0.5313 -0.3202  0.0043
16142TIP3    H169841   5.884   2.355   4.046 -0.1821  1.4517 -0.0840
16142TIP3    H269842   5.898   2.333   4.195  0.7941  2.5262 -0.0107
16143TIP3   OH269843   3.418   5.575  15.687  0.4081 -0.5079 -0.4156
16143TIP3    H169844   3.480   5.629  15.637  1.4973  0.3028  1.6633
16143TIP3    H269845   3.474   5.514  15.735 -0.3653  0.2043  1.4806
16144TIP3   OH269846   4.090   4.787   2.474  0.7018 -0.2996 -0.2796
16144TIP3    H169847   4.090   4.809   2.381 -0.6747  0.9426 -0.0112
16144TIP3    H269848   4.091   4.871   2.520  1.9882 -0.8866  0.8691
16145TIP3   OH269849   2.996   5.441  13.482  0.4112 -0.1655  0.0164
16145TIP3    H169850   2.917   5.486  13.452 -0.0071 -1.5963 -1.0948
16145TIP3    H269851   2.964   5.380  13.549  0.6312 -0.5045 -0.1902
16146TIP3   OH269852   1.697   6.314  12.479 -0.0327  0.2636  0.0262
16146TIP3    H169853   1.789   6.319  12.502 -0.4380  0.2670  1.8142
16146TIP3    H269854   1.666   6.405  12.482 -0.3903  0.1240  0.8402
16147TIP3   OH269855   6.664   5.207   5.803  0.1012 -0.1946  0.4113
16147TIP3    H169856   6.712   5.282   5.766 -1.0567  0.0954 -0.5597
16147TIP3    H269857   6.572   5.228   5.790 -0.2650 -1.4300  0.8537
16148TIP3   OH269858   5.161   6.164  12.206  0.2076  0.1884  0.1263
16148TIP3    H169859   5.128   6.162  12.116  1.6366  0.8202 -0.4566
16148TIP3    H269860   5.115   6.236  12.248 -2.1228 -1.4925  0.6419
16149TIP3   OH269861   6.450   1.314  16.012 -0.7257  0.4960 -0.2582
16149TIP3    H169862   6.513   1.357  15.954 -0.1405 -0.1543 -0.1247
16149TIP3    H269863   6.493   1.314  16.098 -1.2730  0.7966  0.0244
16150TIP3   OH269864   3.834   2.383   5.765  0.2828 -0.2501  0.1717
16150TIP3    H169865   3.793   2.297   5.752  1.0831 -0.4596 -1.1659
16150TIP3    H269866   3.764   2.437   5.802 -0.5136 -1.2257  0.1473
16151TIP3   OH269867   4.137   3.685   3.712  0.0327  0.0838 -0.7044
16151TIP3    H169868   4.230   3.698   3.698 -0.2820  1.9471 -1.4701
16151TIP3    H269869   4.129   3.658   3.804  1.2482  1.2503 -0.2272
16152TIP3   OH269870   0.465   4.341   1.618 -0.1481 -0.1990  0.3456
16152TIP3    H169871   0.424   4.408   1.672 -1.0697  0.1224 -0.7273
16152TIP3    H269872   0.401   4.321   1.550  0.6605 -1.1747 -0.1699
16153TIP3   OH269873   3.307   1.027   0.953 -0.2977 -0.4402  0.1138
16153TIP3    H169874   3.338   1.103   0.904 -0.3910 -1.2599 -1.2645
16153TIP3    H269875   3.371   1.015   1.023  0.9474 -0.3950 -0.9777
16154TIP3   OH269876   4.620   4.321  17.071 -0.0148  0.3250  0.8403
16154TIP3    H169877   4.534   4.291  17.041 -0.7670  0.4182  2.7587
16154TIP3    H269878   4.652   4.250  17.126  1.1126  0.3533  0.2561
16155TIP3   OH269879   3.061   3.835   3.888 -0.2264  0.4983 -0.0750
16155TIP3    H169880   3.094   3.798   3.806 -2.0363 -2.6616  0.4470
16155TIP3    H269881   2.999   3.903   3.861 -1.5349 -1.1494 -1.4730
16156TIP3   OH269882   2.473   1.903  15.022  0.2561 -0.8027 -0.2393
16156TIP3    H169883   2.487   1.857  15.104 -0.6803 -3.0174 -1.2462
16156TIP3    H269884   2.515   1.989  15.035  0.2162 -1.1115  2.4625
16157TIP3   OH269885   3.471   0.687  11.940 -0.1984 -0.0473  0.2691
16157TIP3    H169886   3.471   0.720  12.030 -1.7246  1.1564 -0.1126
16157TIP3    H269887   3.560   0.656  11.925  1.0858  2.8773  1.1042
16158TIP3   OH269888   0.168   1.085  12.865 -0.2453 -0.2918  0.2489
16158TIP3    H169889   0.177   1.179  12.879 -1.8251  0.1637 -1.4918
16158TIP3    H269890   0.216   1.068  12.784 -0.7109 -0.8168  0.0775
16159TIP3   OH269891   2.390   3.564  11.520  0.7700  0.1753  0.3423
16159TIP3    H169892   2.303   3.552  11.558  0.7262 -0.0049  0.1915
16159TIP3    H269893   2.450   3.552  11.593  0.8489 -3.0056 -0.0690
16160TIP3   OH269894   1.209   2.079   6.384 -0.5521 -0.4762 -0.2899
16160TIP3    H169895   1.303   2.077   6.366 -0.9869 -0.1217 -3.2400
16160TIP3    H269896   1.201   2.073   6.479  2.4609  0.1724  0.0794
16161TIP3   OH269897   5.226   3.302  15.118 -0.0740  0.0096  0.0266
16161TIP3    H169898   5.237   3.227  15.176 -2.2331 -0.8336 -0.5415
16161TIP3    H269899   5.231   3.378  15.175  0.8298 -0.6235  0.8258
16162TIP3   OH269900   3.056   3.359  15.502 -0.3564  0.1876  0.5821
16162TIP3    H169901   3.148   3.336  15.491 -0.3058  0.8330 -0.5417
16162TIP3    H269902   3.034   3.330  15.590  0.5887 -1.0595  0.4281
16163TIP3   OH269903   5.752   6.651   1.272  0.2350  0.0259 -0.2154
16163TIP3    H169904   5.793   6.644   1.186  0.0600  0.6594 -0.3608
16163TIP3    H269905   5.662   6.680   1.254  0.3610  0.7207  0.1978
16164TIP3   OH269906   6.069   4.176  15.984  0.2865  0.8499  0.4985
16164TIP3    H169907   6.006   4.131  16.040  0.8336 -0.6431 -0.0479
16164TIP3    H269908   6.027   4.259  15.963 -2.1103 -0.6213 -0.9178
16165TIP3   OH269909   0.568   3.287   4.664 -0.8037 -0.3045 -0.3688
16165TIP3    H169910   0.539   3.365   4.711  0.5585 -0.9019  1.6106
16165TIP3    H269911   0.506   3.219   4.689  0.0993 -0.6987  0.9082
16166TIP3   OH269912   6.716   1.629  14.909 -0.2799 -0.2777 -0.1751
16166TIP3    H169913   6.712   1.561  14.842 -1.6781  0.8433 -1.2928
16166TIP3    H269914   6.679   1.707  14.868  1.7661  1.3806  0.8681
16167TIP3   OH269915   4.432   4.230   6.048 -0.8597 -0.3705 -0.3488
16167TIP3    H169916   4.422   4.302   6.109 -0.9538 -0.2180 -0.5452
16167TIP3    H269917   4.433   4.271   5.962  3.1222 -0.0975 -0.3712
16168TIP3   OH269918   4.158   1.955   4.591  0.3878 -0.1165  0.0158
16168TIP3    H169919   4.237   1.949   4.537  0.4756  1.2153 -0.0473
16168TIP3    H269920   4.157   2.046   4.620 -1.0680 -0.1521  0.1239
16169TIP3   OH269921   3.510   2.670  16.762 -0.2464  0.0339 -0.0330
16169TIP3    H169922   3.511   2.764  16.744 -3.2012  0.4222  1.3011
16169TIP3    H269923   3.497   2.631  16.675  1.5578  0.7499 -0.6815
16170TIP3   OH269924   3.853   3.754   2.628 -0.3110  0.2998  0.4464
16170TIP3    H169925   3.871   3.838   2.670 -0.1326  1.3567 -1.6150
16170TIP3    H269926   3.806   3.703   2.694 -0.3289  1.9734  1.7766
16171TIP3   OH269927   0.485   3.348  15.731 -0.8814 -0.1575 -0.5385
16171TIP3    H169928   0.575   3.349  15.761 -1.0726 -1.4232  0.1526
16171TIP3    H269929   0.437   3.301  15.800 -2.0165  0.2418 -1.0259
16172TIP3   OH269930   1.637   4.156  12.165  0.4104 -0.0515 -0.0875
16172TIP3    H169931   1.674   4.098  12.098  0.0752 -2.3470  1.5983
16172TIP3    H269932   1.550   4.121  12.181 -0.1920  1.5627  0.3218
16173TIP3   OH269933   1.752   3.711   5.614  0.3014  0.7276  0.4724
16173TIP3    H169934   1.692   3.636   5.606  1.3330 -0.1419  0.6968
16173TIP3    H269935   1.751   3.752   5.528 -1.2534  1.2586  0.6912
16174TIP3   OH269936   1.250   4.544  13.414  0.4398  0.4109 -0.0573
16174TIP3    H169937   1.161   4.512  13.427 -0.0877  1.0788 -1.7551
16174TIP3    H269938   1.299   4.510  13.489 -1.7665  2.0965  2.3382
16175TIP3   OH269939   2.519   3.601   2.138 -0.8648 -0.4597 -0.6229
16175TIP3    H169940   2.568   3.653   2.201  2.3320 -1.3116 -2.2017
16175TIP3    H269941   2.502   3.662   2.065 -0.0526 -0.7199 -1.0476
16176TIP3   OH269942   4.817   2.746  17.054  0.0564  0.0054  0.2692
16176TIP3    H169943   4.793   2.727  17.145  0.4529 -2.2137 -0.0150
16176TIP3    H269944   4.896   2.800  17.060  0.7869 -1.1108  1.3093
16177TIP3   OH269945   0.114   6.439  12.624  0.0867 -0.0188  0.0271
16177TIP3    H169946   0.105   6.526  12.585 -1.7115 -0.0193  0.3384
16177TIP3    H269947   0.025   6.403  12.622  0.4932 -1.1881  1.4037
16178TIP3   OH269948   1.836   2.824   4.656 -0.2317 -0.0002  0.1854
16178TIP3    H169949   1.921   2.869   4.647 -0.8483  1.3697  0.8728
16178TIP3    H269950   1.859   2.733   4.675  1.0785  0.1932 -0.3790
16179TIP3   OH269951   6.427   5.874  14.577 -0.4039 -0.0584  0.0346
16179TIP3    H169952   6.484   5.879  14.501  0.3041  0.1926  0.5784
16179TIP3    H269953   6.485   5.857  14.650 -0.9371  0.9143  0.7014
16180TIP3   OH269954   2.355   5.761  15.619 -0.6560  0.0847  0.0165
16180TIP3    H169955   2.450   5.749  15.617 -0.5918  0.5240  0.4681
16180TIP3    H269956   2.340   5.843  15.572 -0.5654  1.4767  2.2954
16181TIP3   OH269957   5.614   3.138   5.633 -0.1539 -0.3452  0.4873
16181TIP3    H169958   5.652   3.202   5.573 -0.5216 -0.7904 -0.2378
16181TIP3    H269959   5.686   3.115   5.692  0.4283 -0.4277 -0.2308
16182TIP3   OH269960   5.650   4.650   3.681  0.2143  0.9057  0.1569
16182TIP3    H169961   5.621   4.613   3.765 -0.1177  0.2227 -0.2474
16182TIP3    H269962   5.705   4.582   3.643  2.6093  2.2772  1.0073
16183TIP3   OH269963   6.315   2.011   0.401  0.5433 -0.4296 -0.7617
16183TIP3    H169964   6.340   2.077   0.466 -0.1624 -0.6376 -0.2676
16183TIP3    H269965   6.221   2.026   0.387  0.4818 -1.0217 -1.0000
16184TIP3   OH269966   5.495   3.962  17.031  0.1473  0.2403 -0.4847
16184TIP3    H169967   5.496   4.031  17.098  0.3097  0.2019 -0.4470
16184TIP3    H269968   5.415   3.913  17.049 -0.6060  1.1536 -1.2685
16185TIP3   OH269969   2.716   0.051  11.405  0.3329 -0.2092 -0.0412
16185TIP3    H169970   2.733  -0.032  11.451  1.1039 -0.6944 -1.1615
16185TIP3    H269971   2.620   0.058  11.403  0.2609 -1.0380  0.1318
16186TIP3   OH269972   3.037   2.912  13.730  0.3511 -0.6471  0.2929
16186TIP3    H169973   3.045   2.970  13.806 -4.2895  3.0649 -1.5296
16186TIP3    H269974   2.981   2.841  13.760 -0.5831  0.2306  0.7219
16187TIP3   OH269975   3.905   1.574  12.688  0.5072  0.2892 -0.4297
16187TIP3    H169976   3.857   1.618  12.617 -2.9252 -2.0567  0.1540
16187TIP3    H269977   3.957   1.508  12.643 -0.8665 -0.5149 -0.9235
16188TIP3   OH269978   1.607   6.383   3.653  0.0026  0.1291  0.3548
16188TIP3    H169979   1.623   6.296   3.691 -0.0286  0.1464  0.4079
16188TIP3    H269980   1.534   6.369   3.592 -0.6171  0.2993  1.0476
16189TIP3   OH269981   2.606   4.403  17.075 -0.2719  0.3547 -0.5508
16189TIP3    H169982   2.570   4.447  17.151 -2.3351 -1.6156 -0.2883
16189TIP3    H269983   2.646   4.473  17.023 -0.2840  1.9701  1.4983
16190TIP3   OH269984   2.677   6.434   5.276  0.1038 -0.1507 -0.0328
16190TIP3    H169985   2.700   6.347   5.308 -0.5632 -0.1522  0.4616
16190TIP3    H269986   2.642   6.480   5.352  0.9242  0.7311 -0.1727
16191TIP3   OH269987   4.537   3.351  16.880 -0.5623  0.4350  0.1161
16191TIP3    H169988   4.568   3.377  16.793  0.1761  0.2220  0.3124
16191TIP3    H269989   4.442   3.352  16.872 -0.5019  0.0710 -0.7955
16192TIP3   OH269990   0.296   4.777  14.648 -0.7490  0.2647  0.4113
16192TIP3    H169991   0.212   4.733  14.632 -0.0641 -1.2204  0.7167
16192TIP3    H269992   0.341   4.774  14.564  0.9809 -3.4556  1.2590
16193TIP3   OH269993   3.205   2.397   5.712  0.1990  0.4286  0.4538
16193TIP3    H169994   3.150   2.385   5.635  1.5792  0.2362 -0.5428
16193TIP3    H269995   3.236   2.487   5.706  1.1433  0.1032  0.1870
16194TIP3   OH269996   5.867   0.367   4.090 -0.0820  0.3263 -0.3334
16194TIP3    H169997   5.869   0.395   3.998  0.3412  1.2505 -0.0530
16194TIP3    H269998   5.802   0.425   4.131  0.8011  0.9092  0.2588
16195TIP3   OH269999   0.086   2.446  14.634 -1.0460 -0.1593  0.2635
16195TIP3    H170000   0.094   2.384  14.707 -3.5839  1.5346  2.1962
16195TIP3    H270001   0.043   2.396  14.565  0.5108 -1.5434  0.2460
16196TIP3   OH270002   3.012   2.901  13.293  0.8820 -0.2582 -1.2829
16196TIP3    H170003   3.055   2.845  13.229  0.2473 -3.7887  1.1159
16196TIP3    H270004   3.041   2.868  13.378  0.2323  2.9793  0.3732
16197TIP3   OH270005   5.084   2.594   0.629 -0.1946 -0.0383 -0.2908
16197TIP3    H170006   5.073   2.602   0.723 -0.1467 -1.0539 -0.1854
16197TIP3    H270007   5.153   2.529   0.618  1.0329  1.3410 -1.0200
16198TIP3   OH270008   0.555   2.249  11.344  0.1261  0.2722 -0.1796
16198TIP3    H170009   0.490   2.270  11.276 -0.0682 -1.3465 -0.5241
16198TIP3    H270010   0.598   2.170  11.312 -0.1319 -0.6685  1.6911
16199TIP3   OH270011   1.974   1.915   3.346 -0.2375 -0.2878 -0.5863
16199TIP3    H170012   2.012   1.977   3.284 -1.6688 -3.1007 -4.6999
16199TIP3    H270013   2.048   1.865   3.379  0.5697  1.3622  0.2445
16200TIP3   OH270014   4.959   3.624  10.738 -0.1044  0.4038  0.0472
16200TIP3    H170015   5.054   3.627  10.726  0.0001 -0.9554  0.3742
16200TIP3    H270016   4.924   3.623  10.648  0.2147  0.2851 -0.0785
16201TIP3   OH270017   3.911   2.581  16.965  0.2265 -0.2233  0.0868
16201TIP3    H170018   3.830   2.569  16.914  1.2152  0.7878 -1.8480
16201TIP3    H270019   3.889   2.650  17.028  0.3950  2.6514 -2.7128
16202TIP3   OH270020   4.587   2.121  13.698 -0.0116 -0.8427  0.4446
16202TIP3    H170021   4.559   2.061  13.629  0.3765  0.0304 -0.5054
16202TIP3    H270022   4.515   2.121  13.762 -1.5555  0.2487 -1.2024
16203TIP3   OH270023   0.659   1.741  15.701  0.2959  0.6260 -1.0491
16203TIP3    H170024   0.690   1.669  15.646  0.5189 -1.3526  1.4473
16203TIP3    H270025   0.570   1.759  15.669  0.7975  0.2874 -2.6850
16204TIP3   OH270026   0.652   2.890  15.194  0.3989  0.2127 -0.5116
16204TIP3    H170027   0.687   2.837  15.266  2.3773  1.5224 -0.4185
16204TIP3    H270028   0.661   2.980  15.224 -1.1456  0.7112 -1.4130
16205TIP3   OH270029   3.932   5.352  13.797  0.0590  0.5962  0.0358
16205TIP3    H170030   3.899   5.417  13.734  0.2603 -1.2344 -2.0982
16205TIP3    H270031   4.027   5.366  13.797 -0.0562  1.4175  0.9193
16206TIP3   OH270032   5.140   4.555   1.117 -0.3351  0.5271  0.0672
16206TIP3    H170033   5.223   4.536   1.072 -0.9966  1.9016 -1.8736
16206TIP3    H270034   5.153   4.641   1.156 -0.9421  0.9347 -0.5965
16207TIP3   OH270035   2.918   5.846   3.786  0.3710 -0.0939 -0.0195
16207TIP3    H170036   2.970   5.927   3.787  0.2102  0.0204  1.0532
16207TIP3    H270037   2.827   5.875   3.782  0.3102 -0.2140  0.4224
16208TIP3   OH270038   4.852   5.047  12.229 -0.0558 -0.1105  0.5389
16208TIP3    H170039   4.927   5.072  12.282  1.3216 -1.0688 -0.8710
16208TIP3    H270040   4.881   5.058  12.139 -1.0916 -1.8881 -0.0686
16209TIP3   OH270041   1.643   5.175  12.642 -0.5988 -0.0925 -0.5315
16209TIP3    H170042   1.666   5.214  12.726 -0.4279  1.7895 -1.4039
16209TIP3    H270043   1.660   5.081  12.653  2.0679  0.4494  0.6766
16210TIP3   OH270044   2.931   4.773   4.699  0.2253  0.6042  0.4435
16210TIP3    H170045   2.982   4.693   4.689 -1.7836 -0.6044 -1.2062
16210TIP3    H270046   2.840   4.745   4.683 -0.4065  3.4431 -1.8943
16211TIP3   OH270047   5.246   5.472   1.565  0.4474 -0.1011  0.3679
16211TIP3    H170048   5.274   5.487   1.475 -1.0786  1.2113  0.0770
16211TIP3    H270049   5.318   5.505   1.619  0.5188  0.9567 -0.3612
16212TIP3   OH270050   1.983   5.285  15.848  0.2102  0.3265 -0.1398
16212TIP3    H170051   1.958   5.197  15.819 -0.9831  0.4729  0.3641
16212TIP3    H270052   1.942   5.294  15.935  0.5279  1.2777 -0.0743
16213TIP3   OH270053   6.391   2.692  13.443 -0.2377  0.3516  0.4802
16213TIP3    H170054   6.343   2.763  13.486  0.6111  0.5325  1.1663
16213TIP3    H270055   6.434   2.734  13.368 -0.1209  0.4686  0.6111
16214TIP3   OH270056   1.202   2.463  16.539  0.2191  0.0745 -0.3189
16214TIP3    H170057   1.162   2.437  16.622  0.3875  0.8763  0.0218
16214TIP3    H270058   1.222   2.556  16.550  0.1877  0.2076 -1.2802
16215TIP3   OH270059   0.907   1.461  14.623  0.1693  0.1522 -0.0586
16215TIP3    H170060   0.855   1.505  14.556 -0.2595  0.1243  0.2456
16215TIP3    H270061   0.957   1.394  14.575  0.7942  0.9330 -0.5135
16216TIP3   OH270062   1.533   5.312  17.080 -0.1582  0.0835  0.0143
16216TIP3    H170063   1.499   5.229  17.048  1.7855 -0.8764  0.2927
16216TIP3    H270064   1.532   5.304  17.175  0.3711  0.2298  0.0378
16217TIP3   OH270065   5.418   1.622   4.732  0.1903  0.2969  0.1814
16217TIP3    H170066   5.445   1.560   4.799 -0.1260 -0.1236 -0.0714
16217TIP3    H270067   5.497   1.673   4.712  0.7459 -0.7612 -0.3895
16218TIP3   OH270068   4.392   5.271  12.373 -0.4043  0.3729 -0.4134
16218TIP3    H170069   4.309   5.232  12.399  0.9684 -2.3426  0.3343
16218TIP3    H270070   4.407   5.341  12.436 -0.9610 -0.7911  1.0801
16219TIP3   OH270071   3.342   5.573  11.908  0.2873  0.7876 -0.3175
16219TIP3    H170072   3.249   5.584  11.887 -0.0213 -1.5477 -0.4154
16219TIP3    H270073   3.381   5.546  11.825  0.8709  0.7220 -0.0207
16220TIP3   OH270074   1.869   5.309  16.366  0.2242  0.3264 -0.7937
16220TIP3    H170075   1.960   5.336  16.380  0.8853 -0.1433 -3.5381
16220TIP3    H270076   1.870   5.214  16.375 -0.2455  0.4042  0.2001
16221TIP3   OH270077   2.699   0.921   0.939  0.3694  0.2220  0.2355
16221TIP3    H170078   2.639   0.868   0.993 -1.2721  0.9300 -0.8050
16221TIP3    H270079   2.769   0.860   0.914 -0.3177 -0.8617  0.8646
16222TIP3   OH270080   2.639   2.941   3.602  0.0918  0.1492  0.1853
16222TIP3    H170081   2.638   3.016   3.661  0.1220 -0.0951  0.4971
16222TIP3    H270082   2.655   2.866   3.659  2.6191  0.1481 -0.3899
16223TIP3   OH270083   6.363   2.152  16.126  0.6048  0.0730  0.2861
16223TIP3    H170084   6.301   2.083  16.151  0.7768  0.4426  1.8318
16223TIP3    H270085   6.434   2.106  16.082  0.2683 -0.6225  0.4535
16224TIP3   OH270086   0.319   6.544  11.910 -0.0871  0.3467 -1.1477
16224TIP3    H170087   0.374   6.539  11.988 -1.6830  2.1451  0.1996
16224TIP3    H270088   0.381   6.560  11.839  1.2763  0.5346  0.0202
16225TIP3   OH270089   3.338   2.007   2.388  0.0753 -0.5631 -0.0984
16225TIP3    H170090   3.316   2.010   2.295  0.0735  1.2130 -0.0784
16225TIP3    H270091   3.368   1.918   2.403  0.4204 -0.7774 -1.8783
16226TIP3   OH270092   1.046   1.151   5.201  0.0077 -0.8339  0.0210
16226TIP3    H170093   1.104   1.135   5.126 -0.4677  0.7914 -0.7386
16226TIP3    H270094   1.105   1.178   5.271  0.3572 -1.2749 -0.0959
16227TIP3   OH270095   5.309   0.556   3.250  0.3653 -0.4892 -0.7404
16227TIP3    H170096   5.403   0.570   3.266  0.0970 -0.3051  0.8214
16227TIP3    H270097   5.288   0.616   3.177  1.0656  0.9070  0.1573
16228TIP3   OH270098   4.360   6.526  15.056  0.7840 -0.0848 -0.7069
16228TIP3    H170099   4.278   6.522  15.007  0.6205 -0.1102 -0.4287
16228TIP3    H270100   4.393   6.436  15.054 -0.4612 -0.6468  1.3428
16229TIP3   OH270101   4.630   4.003  15.344  0.3916  0.0585  0.9570
16229TIP3    H170102   4.700   4.051  15.389  1.4880 -0.7428  0.1730
16229TIP3    H270103   4.596   3.943  15.411  0.9239 -0.0142  1.1706
16230TIP3   OH270104   1.036   2.558   6.147 -0.3075 -0.4006 -0.6376
16230TIP3    H170105   1.069   2.590   6.231  0.7679 -2.9527 -0.0030
16230TIP3    H270106   1.088   2.604   6.082 -1.9667  2.5323 -0.0645
16231TIP3   OH270107   5.273   1.951   6.493 -0.4008 -0.6725 -0.0468
16231TIP3    H170108   5.339   1.886   6.471 -0.9032 -0.4776 -2.4392
16231TIP3    H270109   5.192   1.902   6.499 -0.6347 -0.4187 -0.9679
16232TIP3   OH270110   5.126   4.064  13.185 -0.0675 -0.5764 -0.3646
16232TIP3    H170111   5.122   4.137  13.247 -0.3529 -1.6818  0.9566
16232TIP3    H270112   5.176   4.099  13.111 -1.6221  1.4879 -0.5337
16233TIP3   OH270113   3.801   3.125   2.273 -0.5997 -0.5099 -0.3957
16233TIP3    H170114   3.769   3.088   2.190 -0.8980  2.5949 -1.7899
16233TIP3    H270115   3.748   3.203   2.287  0.2625 -0.2808  2.1465
16234TIP3   OH270116   5.955   6.433  17.035 -0.4843  0.1777 -0.2338
16234TIP3    H170117   6.017   6.501  17.061  0.2553 -0.2286 -0.9122
16234TIP3    H270118   5.979   6.356  17.087  0.7009 -0.4954 -1.7093
16235TIP3   OH270119   4.717   2.532   4.653  0.2764  0.8503  0.2912
16235TIP3    H170120   4.698   2.471   4.724  0.3147  1.7110  1.0506
16235TIP3    H270121   4.731   2.475   4.576 -0.9505 -0.0308  0.6791
16236TIP3   OH270122   2.921   0.216  13.825  0.2298 -0.1510 -0.1237
16236TIP3    H170123   2.851   0.191  13.765  0.9383 -1.7377 -0.3290
16236TIP3    H270124   2.879   0.217  13.912 -0.2462 -0.1574 -0.3476
16237TIP3   OH270125   3.923   5.870  16.908 -0.2529  0.1022  0.1173
16237TIP3    H170126   3.872   5.815  16.968 -3.0110  0.2557 -1.8736
16237TIP3    H270127   3.920   5.957  16.947 -0.1124 -0.2229  0.8577
16238TIP3   OH270128   3.706   6.217   4.364  0.0695 -0.4561  0.0370
16238TIP3    H170129   3.660   6.185   4.286 -0.2830 -1.4550  0.6358
16238TIP3    H270130   3.648   6.284   4.400  0.0210 -0.3123 -0.2958
16239TIP3   OH270131   2.211   6.560  16.093  0.8070  0.0415  0.0020
16239TIP3    H170132   2.306   6.568  16.096  0.6116  4.5051  2.9240
16239TIP3    H270133   2.184   6.619  16.023  0.1513  1.4563  1.3948
16240TIP3   OH270134   0.828   1.901   4.969 -0.0354  0.2817 -0.2156
16240TIP3    H170135   0.884   1.955   5.025  0.6033 -2.1712  1.6700
16240TIP3    H270136   0.878   1.821   4.955 -2.0557 -0.9844 -0.5809
16241TIP3   OH270137   1.616   5.276  14.076  0.6883 -0.4334 -0.3550
16241TIP3    H170138   1.548   5.244  14.016 -2.4055 -0.3816  2.7798
16241TIP3    H270139   1.628   5.204  14.138  0.6521  0.9452  1.3180
16242TIP3   OH270140   1.887   5.900   0.177 -0.1521 -0.2530 -0.0552
16242TIP3    H170141   1.914   5.873   0.089 -0.0857 -0.1387 -0.0699
16242TIP3    H270142   1.880   5.996   0.171  0.5289 -0.1782  0.2531
16243TIP3   OH270143   5.810   3.242   4.178  0.1137 -0.5932 -0.7117
16243TIP3    H170144   5.777   3.332   4.182 -3.0729 -1.5983 -1.2897
16243TIP3    H270145   5.862   3.233   4.258 -0.6122  1.3691  0.0681
16244TIP3   OH270146   1.490   4.004   3.786  0.0306  0.4215 -0.3145
16244TIP3    H170147   1.551   3.969   3.722 -0.2753  0.4395 -0.6226
16244TIP3    H270148   1.474   4.094   3.756 -0.0939  0.4378 -0.1989
16245TIP3   OH270149   1.789   4.848  15.408  0.6815 -0.1334  0.3695
16245TIP3    H170150   1.817   4.896  15.330 -1.3786  0.6178  0.0117
16245TIP3    H270151   1.777   4.758  15.379 -0.5344  0.2395 -0.3402
16246TIP3   OH270152   0.085   5.593   4.845  0.3059 -0.0133  0.0652
16246TIP3    H170153  -0.004   5.627   4.852  0.1995  0.0437 -1.2992
16246TIP3    H270154   0.122   5.638   4.769  1.0958 -0.9045 -0.1002
16247TIP3   OH270155   4.219   0.477   3.524 -0.0067  0.3958  0.3723
16247TIP3    H170156   4.197   0.414   3.455  0.2294  1.2969 -0.5592
16247TIP3    H270157   4.170   0.556   3.500  0.3824  0.8471  1.0271
16248TIP3   OH270158   6.368   4.860  11.487  0.4367  0.5442  0.0370
16248TIP3    H170159   6.325   4.908  11.558 -1.3039 -0.2889 -0.4070
16248TIP3    H270160   6.444   4.914  11.464 -0.2055  1.9330  1.0414
16249TIP3   OH270161   2.854   3.937   4.574  0.1346  0.0279 -0.3058
16249TIP3    H170162   2.922   3.937   4.641 -1.6252  0.6355  1.5876
16249TIP3    H270163   2.782   3.887   4.612 -1.2424  1.1159 -1.3587
16250TIP3   OH270164   5.213   3.452   0.905  0.0207  0.5293  0.1656
16250TIP3    H170165   5.243   3.404   0.982 -1.7833 -0.5524  0.2511
16250TIP3    H270166   5.291   3.460   0.850  0.5589 -1.9549  0.4592
16251TIP3   OH270167   5.603   6.620  14.060 -0.9678 -0.3525 -0.3418
16251TIP3    H170168   5.657   6.555  14.105 -2.0321 -0.4809  0.7776
16251TIP3    H270169   5.522   6.574  14.038 -1.3591  0.3341 -0.3613
16252TIP3   OH270170   0.125   1.767  16.168 -0.1929 -0.3601 -0.2803
16252TIP3    H170171   0.181   1.813  16.230  1.1513 -1.2102 -0.8096
16252TIP3    H270172   0.121   1.825  16.092  0.1011 -0.3641 -0.2985
16253TIP3   OH270173   1.995   2.649  11.980 -0.4227 -0.0583  0.3604
16253TIP3    H170174   1.983   2.583  12.048 -0.8563  1.9646  2.3561
16253TIP3    H270175   1.984   2.733  12.025 -0.4369  1.4021 -2.1587
16254TIP3   OH270176   5.298   1.225   2.495  0.3454  0.1054  0.4759
16254TIP3    H170177   5.341   1.186   2.571 -0.7024 -0.0075  1.0346
16254TIP3    H270178   5.330   1.175   2.421  0.4891 -0.5622  0.9763
16255TIP3   OH270179   1.527   3.496  14.465  0.3657 -0.6868  0.6944
16255TIP3    H170180   1.491   3.443  14.537  1.5262 -2.0447  0.3068
16255TIP3    H270181   1.450   3.527  14.418 -0.3770 -0.9285  1.7123
16256TIP3   OH270182   4.396   3.044   0.636  0.4366 -0.1521  0.1679
16256TIP3    H170183   4.390   2.948   0.645  1.0391 -0.2469 -0.3831
16256TIP3    H270184   4.307   3.075   0.655 -0.5681 -1.0626 -2.4795
16257TIP3   OH270185   1.399   5.434  15.417 -0.0603 -0.5465  0.2321
16257TIP3    H170186   1.371   5.343  15.432  0.2986 -0.5810  0.7127
16257TIP3    H270187   1.487   5.426  15.380 -0.4143 -0.4172 -0.6808
16258TIP3   OH270188   6.658   6.485   4.903 -0.1598  0.7233  0.0853
16258TIP3    H170189   6.578   6.495   4.954  0.5307  0.6234  1.2069
16258TIP3    H270190   6.645   6.543   4.827 -1.5318  0.2496 -0.0673
16259TIP3   OH270191   6.659   0.223   5.767  0.4504 -0.0909  0.3902
16259TIP3    H170192   6.567   0.204   5.749  0.0692  1.4303  0.5550
16259TIP3    H270193   6.669   0.208   5.861  0.1079  0.6588  0.5544
16260TIP3   OH270194   6.296   3.207   2.497 -0.5518 -0.1198  0.0469
16260TIP3    H170195   6.286   3.220   2.403  0.6426 -1.1130 -0.2320
16260TIP3    H270196   6.229   3.263   2.536 -0.7854  0.6239 -1.3736
16261TIP3   OH270197   3.568   6.595  13.662 -0.3959  0.0901  0.3231
16261TIP3    H170198   3.599   6.677  13.624  0.3340 -0.0963  0.5024
16261TIP3    H270199   3.610   6.591  13.748  0.4031 -0.9433 -0.0840
16262TIP3   OH270200   3.963   5.179  15.581 -0.1482  0.2235 -0.1082
16262TIP3    H170201   3.941   5.085  15.580 -0.9471  0.4042 -0.4586
16262TIP3    H270202   3.958   5.205  15.489  0.1811  0.5886 -0.0218
16263TIP3   OH270203   2.665   4.984  14.053 -0.0782  0.0028  0.3245
16263TIP3    H170204   2.728   5.038  14.005 -0.2762 -0.2367 -0.2116
16263TIP3    H270205   2.656   5.028  14.138  2.3092 -1.0359  1.2049
16264TIP3   OH270206   0.022   0.723   2.823  0.1073  0.1362 -0.7763
16264TIP3    H170207  -0.043   0.792   2.808 -2.3340 -1.8027  0.1610
16264TIP3    H270208   0.030   0.679   2.739 -2.4828 -1.6858 -0.1905
16265TIP3   OH270209   2.355   6.321   2.319 -0.8236 -0.2473  1.0001
16265TIP3    H170210   2.357   6.417   2.313 -1.0964 -0.2667  0.5675
16265TIP3    H270211   2.419   6.291   2.255 -1.6131 -0.3773  0.2458
16266TIP3   OH270212   1.738   1.985  11.278 -0.7746  0.0152 -0.4646
16266TIP3    H170213   1.711   1.945  11.196 -0.3899 -0.9761 -0.1191
16266TIP3    H270214   1.821   1.942  11.299 -0.3369  1.0177 -0.0918
16267TIP3   OH270215   0.056   3.208   2.278  0.1687  0.8332  0.4038
16267TIP3    H170216  -0.003   3.203   2.353  1.5479  0.0364  1.4768
16267TIP3    H270217   0.106   3.288   2.292 -0.7608  1.6334 -0.6275
16268TIP3   OH270218   1.292   1.831   3.716 -0.4064 -0.3189 -0.4085
16268TIP3    H170219   1.320   1.856   3.628  0.3647 -0.9778 -0.3745
16268TIP3    H270220   1.221   1.891   3.738 -0.7812 -0.3139 -1.5821
16269TIP3   OH270221   3.802   2.781  16.723  0.1238  0.0238 -0.1849
16269TIP3    H170222   3.806   2.870  16.757  0.0232  0.4371 -1.2264
16269TIP3    H270223   3.709   2.760  16.718  0.0973  0.3243 -1.0932
16270TIP3   OH270224   6.540   2.530  10.833  0.1933  0.3227 -0.0196
16270TIP3    H170225   6.487   2.452  10.851  0.0820  0.5731  0.7391
16270TIP3    H270226   6.496   2.572  10.759 -0.4726  0.3383  0.3777
16271TIP3   OH270227   0.607   1.320  12.072 -0.0676 -0.0027  0.5310
16271TIP3    H170228   0.672   1.359  12.014 -0.4802 -0.8621 -0.5565
16271TIP3    H270229   0.524   1.362  12.047 -0.2211 -0.2524  0.6139
16272TIP3   OH270230   5.970   0.156  16.252  0.3995 -0.0791  0.1350
16272TIP3    H170231   5.953   0.250  16.248 -0.2921 -0.1815  0.5348
16272TIP3    H270232   5.971   0.135  16.345 -1.5232 -0.8190  0.0243
16273TIP3   OH270233   5.921   6.364   1.612 -0.0378  0.0336  0.0529
16273TIP3    H170234   5.891   6.440   1.562  1.8141  0.2602 -0.8144
16273TIP3    H270235   5.987   6.323   1.556  1.3979 -0.2852  1.8805
16274TIP3   OH270236   4.004   0.389  12.005  0.4054 -0.2122  0.1665
16274TIP3    H170237   4.045   0.470  12.037  0.7312 -0.4580  0.3726
16274TIP3    H270238   3.937   0.369  12.070 -0.0644  0.2012 -0.1808
16275TIP3   OH270239   1.910   6.234  15.487  0.2993  0.2520  0.4702
16275TIP3    H170240   1.973   6.259  15.420  0.6626 -0.0245  0.7068
16275TIP3    H270241   1.934   6.287  15.564  0.1081  0.3069  0.4928
16276TIP3   OH270242   2.624   2.005   1.728  0.1342  0.0282 -0.0565
16276TIP3    H170243   2.688   2.022   1.797 -0.7132  0.2815  0.6846
16276TIP3    H270244   2.667   2.034   1.648  0.8394  0.4556  0.4654
16277TIP3   OH270245   1.513   3.727   5.347 -0.0041  0.4389  0.2658
16277TIP3    H170246   1.606   3.739   5.329  0.1663  0.2952  1.0111
16277TIP3    H270247   1.468   3.764   5.271  0.6397  1.4637  0.3683
16278TIP3   OH270248   5.307   3.420   2.934  0.1971 -0.6467 -0.3241
16278TIP3    H170249   5.366   3.366   2.881  1.4287 -1.2119  1.5314
16278TIP3    H270250   5.299   3.372   3.016  0.2503  1.3435  0.8949
16279TIP3   OH270251   5.163   6.258  16.232  0.5240  0.7448  0.2107
16279TIP3    H170252   5.235   6.321  16.226  0.2750  1.0140  0.0456
16279TIP3    H270253   5.084   6.310  16.215  0.4534  0.0533 -1.8158
16280TIP3   OH270254   0.215   1.659   2.225  0.4414  0.9087 -0.0098
16280TIP3    H170255   0.163   1.614   2.159  1.7450 -0.3044 -0.2596
16280TIP3    H270256   0.165   1.648   2.306 -0.1857  0.6841 -0.4173
16281TIP3   OH270257   5.164   5.307  11.676  0.1836 -0.3125 -0.1165
16281TIP3    H170258   5.112   5.387  11.680  1.4317  0.4782  1.9434
16281TIP3    H270259   5.246   5.333  11.635  0.9063 -0.2936  1.2720
16282TIP3   OH270260   3.488   5.863  11.956 -0.1499 -0.1300 -0.2035
16282TIP3    H170261   3.423   5.797  11.932  0.2674 -0.5743 -0.1232
16282TIP3    H270262   3.550   5.864  11.883  0.5172 -0.7053  0.3412
16283TIP3   OH270263   1.682   5.096  15.862  0.4679  0.7762 -0.3241
16283TIP3    H170264   1.630   5.127  15.788 -0.4613 -0.7407 -0.3431
16283TIP3    H270265   1.715   5.176  15.902 -1.6339  1.8151 -0.4909
16284TIP3   OH270266   1.943   3.664   1.850 -0.0232 -0.3400 -0.3899
16284TIP3    H170267   1.932   3.594   1.914  0.5990 -0.5251 -0.4763
16284TIP3    H270268   1.935   3.745   1.900 -0.4838 -0.4759 -0.2448
16285TIP3   OH270269   0.469   3.776   4.990  0.9874 -0.0286  1.0566
16285TIP3    H170270   0.564   3.783   4.990  1.0909 -1.2311  0.6734
16285TIP3    H270271   0.442   3.805   4.903  0.9491  0.7728  1.3250
16286TIP3   OH270272   3.208   0.071   4.323 -0.1672  0.5554  0.5417
16286TIP3    H170273   3.184   0.011   4.253  1.1057  1.7305 -0.9865
16286TIP3    H270274   3.186   0.158   4.289 -0.1535  1.1189  1.8973
16287TIP3   OH270275   1.648   0.617  14.551 -0.2044 -0.1844 -0.0643
16287TIP3    H170276   1.658   0.644  14.642 -0.6071  2.7932 -0.7946
16287TIP3    H270277   1.735   0.584  14.526  0.1683 -0.1379  1.1155
16288TIP3   OH270278   1.904   4.570   3.597 -0.2641 -0.6193 -0.3355
16288TIP3    H170279   1.933   4.483   3.571 -0.9494 -1.3412  1.2064
16288TIP3    H270280   1.939   4.582   3.685  1.5978  1.5522 -1.2661
16289TIP3   OH270281   2.903   5.567   6.187  0.1444  0.1522 -0.2517
16289TIP3    H170282   2.893   5.573   6.282  2.1361 -2.3498  0.2200
16289TIP3    H270283   2.997   5.556   6.173 -0.0408  1.0747 -2.5900
16290TIP3   OH270284   3.507   5.468  16.929  0.1298  0.6467 -0.2201
16290TIP3    H170285   3.413   5.467  16.946  0.1503  0.9534 -0.0763
16290TIP3    H270286   3.524   5.555  16.894  0.7126  1.4548  1.8808
16291TIP3   OH270287   6.559   4.136   3.066  0.0262 -0.6151 -0.7794
16291TIP3    H170288   6.530   4.059   3.018  2.9209 -1.9518 -0.6488
16291TIP3    H270289   6.479   4.185   3.085 -1.5901 -1.7265 -3.9446
16292TIP3   OH270290   2.314   5.319   2.209  0.4320 -0.2457  0.2456
16292TIP3    H170291   2.345   5.327   2.118 -0.8876  0.6902 -0.1495
16292TIP3    H270292   2.385   5.356   2.262  1.1834 -0.7280 -0.3829
16293TIP3   OH270293   1.979   3.727   1.292  0.0441 -0.8001 -0.2487
16293TIP3    H170294   2.067   3.741   1.326 -0.0413 -2.5996  0.8662
16293TIP3    H270295   1.928   3.800   1.326  0.9229 -0.2224 -0.1563
16294TIP3   OH270296   4.313   1.284   6.428 -0.2360 -0.2463  0.2184
16294TIP3    H170297   4.403   1.306   6.452  0.3842 -2.9726  0.6795
16294TIP3    H270298   4.310   1.189   6.430 -3.2196 -0.2449  0.4587
16295TIP3   OH270299   2.495   6.013  12.948 -0.1949  0.9772  0.0350
16295TIP3    H170300   2.582   6.054  12.950 -0.5998  1.8347  1.0132
16295TIP3    H270301   2.513   5.920  12.939  0.8684  1.0537  1.0969
16296TIP3   OH270302   5.966   2.942   2.511  0.6518 -0.0109 -0.1542
16296TIP3    H170303   5.964   2.960   2.605  0.9397  1.6344 -0.4307
16296TIP3    H270304   5.878   2.912   2.490  0.4679  0.0193  0.5604
16297TIP3   OH270305   1.108   5.682   1.184  0.2545 -0.1046  0.6559
16297TIP3    H170306   1.034   5.622   1.184 -0.7306  1.0657  1.5336
16297TIP3    H270307   1.149   5.669   1.099 -0.4258 -1.3971  0.4912
16298TIP3   OH270308   0.616   4.906   2.681 -0.1213 -0.4730 -0.1474
16298TIP3    H170309   0.672   4.925   2.607  1.2167 -0.9896  0.7057
16298TIP3    H270310   0.620   4.811   2.691  0.3676 -0.3491  1.0565
16299TIP3   OH270311   0.122   4.653   5.868  0.0932 -0.2228  0.1439
16299TIP3    H170312   0.055   4.627   5.932 -0.4481 -0.8791 -0.6646
16299TIP3    H270313   0.179   4.712   5.916 -0.1695 -0.8807  1.3038
16300TIP3   OH270314   2.885   6.291   2.063  0.1044  0.2175 -0.0744
16300TIP3    H170315   2.906   6.376   2.024 -2.0795  1.2682  0.9089
16300TIP3    H270316   2.827   6.249   1.999 -0.9988  0.6450  0.6209
16301TIP3   OH270317   2.937   3.733   6.891  0.0392  0.6082  0.2348
16301TIP3    H170318   3.017   3.716   6.942  0.5893 -0.7401 -1.0110
16301TIP3    H270319   2.949   3.822   6.857  1.2760  0.2297 -0.3740
16302TIP3   OH270320   0.174   0.810  10.858  0.1302  0.3217 -0.4584
16302TIP3    H170321   0.087   0.790  10.822 -0.4554 -0.8320  1.4260
16302TIP3    H270322   0.166   0.789  10.951  1.7909  2.3208  0.2085
16303TIP3   OH270323   0.246   1.894  13.875  0.7411  0.1310 -0.3831
16303TIP3    H170324   0.234   1.800  13.867 -1.3428  0.5192 -3.4197
16303TIP3    H270325   0.299   1.919  13.799  0.2163  1.5227 -0.3294
16304TIP3   OH270326   0.336   0.994   3.985  0.4017  0.0040 -0.6952
16304TIP3    H170327   0.297   1.077   4.012 -0.2745 -0.5752  0.1536
16304TIP3    H270328   0.279   0.962   3.915  0.7814  0.3453 -1.1676
16305TIP3   OH270329   5.966   2.446  11.753 -0.3403 -0.7821  0.1199
16305TIP3    H170330   5.889   2.434  11.697  0.0457  2.2627 -1.2971
16305TIP3    H270331   5.941   2.516  11.814 -0.2365 -3.0367  2.9380
16306TIP3   OH270332   5.620   2.015   5.228 -0.2133 -0.3577 -0.0532
16306TIP3    H170333   5.565   1.938   5.220 -2.5929  1.0457  1.6934
16306TIP3    H270334   5.612   2.041   5.320  0.7892  1.7747 -0.5168
16307TIP3   OH270335   4.107   5.367  14.590  0.2451 -0.2505  0.3415
16307TIP3    H170336   4.051   5.430  14.544 -1.4450  0.1019  2.6492
16307TIP3    H270337   4.144   5.312  14.522  1.0204  2.5935 -1.7308
16308TIP3   OH270338   5.132   6.584  10.755  0.2198  0.0730  0.4331
16308TIP3    H170339   5.225   6.591  10.732 -0.0668  0.3099 -0.7245
16308TIP3    H270340   5.101   6.675  10.758 -0.2164 -0.0407 -0.2943
16309TIP3   OH270341   5.150   1.683  12.327  0.4216 -0.4556  0.6519
16309TIP3    H170342   5.077   1.658  12.384  0.0087 -0.4605  0.1379
16309TIP3    H270343   5.218   1.619  12.346  1.1792  0.8785  2.7898
16310TIP3   OH270344   1.494   4.326  16.373 -0.8717 -0.4841  0.3736
16310TIP3    H170345   1.455   4.405  16.413  0.4684  1.0532 -1.2018
16310TIP3    H270346   1.549   4.290  16.442  1.1203  1.9153  0.1662
16311TIP3   OH270347   0.024   4.037   4.790 -0.5398 -0.4859 -0.0205
16311TIP3    H170348   0.098   4.089   4.823 -1.5264  1.4346 -0.6860
16311TIP3    H270349   0.005   3.975   4.860  0.7707 -0.0412  0.7644
16312TIP3   OH270350   4.087   6.052   5.718  0.0413 -0.3453  0.5046
16312TIP3    H170351   4.175   6.042   5.683 -0.2186 -0.5407 -0.1256
16312TIP3    H270352   4.097   6.045   5.812  0.5167 -1.8588  0.3737
16313TIP3   OH270353   5.372   1.264   5.212  0.2834  0.6426 -0.0706
16313TIP3    H170354   5.393   1.302   5.297  1.2123 -2.4024  1.2329
16313TIP3    H270355   5.441   1.199   5.198 -1.4152 -0.9135 -1.7715
16314TIP3   OH270356   4.558   5.604  12.734  0.1338  0.2113  0.3978
16314TIP3    H170357   4.644   5.645  12.747  0.6917 -1.3098  1.8689
16314TIP3    H270358   4.495   5.669  12.767  0.7262  1.1905 -0.3534
16315TIP3   OH270359   6.656   2.203  12.800  0.1455  0.3909 -0.1325
16315TIP3    H170360   6.585   2.214  12.736 -2.2263 -0.6763  2.1363
16315TIP3    H270361   6.612   2.174  12.880  3.0276  1.0252  1.8415
16316TIP3   OH270362   0.479   4.553  14.649  0.8719 -0.0476 -0.2843
16316TIP3    H170363   0.566   4.536  14.684  0.5112 -1.0966  0.1397
16316TIP3    H270364   0.451   4.633  14.694  1.2448 -0.2298  0.2932
16317TIP3   OH270365   2.455   3.528  17.405  0.4340 -0.4543  0.0581
16317TIP3    H170366   2.365   3.558  17.419  0.4274 -0.7338  0.6404
16317TIP3    H270367   2.488   3.510  17.493  0.4472 -2.1163 -0.2600
16318TIP3   OH270368   5.062   1.035   5.831 -0.1910 -0.3104 -0.5825
16318TIP3    H170369   5.074   1.020   5.737  0.4139  0.7701 -0.6893
16318TIP3    H270370   5.005   0.963   5.860  0.8941 -1.5640 -1.4525
16319TIP3   OH270371   6.624   0.621  15.486 -0.6822 -0.1948 -0.0657
16319TIP3    H170372   6.549   0.620  15.545 -0.2107  2.3526  0.6826
16319TIP3    H270373   6.587   0.639  15.400 -1.2204 -2.5076 -0.3965
16320TIP3   OH270374   3.330   5.663  16.789  0.2001 -0.4302 -0.1343
16320TIP3    H170375   3.339   5.737  16.849 -0.7682 -0.3328 -0.0969
16320TIP3    H270376   3.245   5.624  16.812  0.2818 -0.9953 -0.7720
16321TIP3   OH270377   6.341   4.728   4.636 -0.5696 -0.5061  0.2146
16321TIP3    H170378   6.405   4.754   4.702 -2.1644  1.5494  1.0725
16321TIP3    H270379   6.393   4.698   4.562  1.5890  3.4501 -0.1149
16322TIP3   OH270380   3.572   0.106  13.588 -0.1708  0.1593  0.6490
16322TIP3    H170381   3.589   0.156  13.508 -2.0317  1.0089  0.7429
16322TIP3    H270382   3.478   0.117  13.604  0.0448 -0.5008  2.6186
16323TIP3   OH270383   4.051   6.672   5.459  0.1988  0.0576  0.1570
16323TIP3    H170384   4.073   6.726   5.535 -0.8940  1.2860 -0.3531
16323TIP3    H270385   3.988   6.608   5.491 -0.4122  0.7007  0.2560
16324TIP3   OH270386   1.748   1.724   4.764 -0.1275 -0.3835 -0.5162
16324TIP3    H170387   1.680   1.679   4.713 -0.8781 -1.6234  1.4630
16324TIP3    H270388   1.715   1.814   4.773 -2.0406 -1.1955  1.1940
16325TIP3   OH270389   1.143   5.661  16.944  0.1286  0.8024 -0.5440
16325TIP3    H170390   1.239   5.661  16.952  0.3930  1.3548 -2.9278
16325TIP3    H270391   1.120   5.754  16.933 -1.0347  1.0023  2.4212
16326TIP3   OH270392   5.846   4.212   3.224 -0.1414  0.4189 -0.4065
16326TIP3    H170393   5.907   4.285   3.214  1.8393 -1.1289 -0.2499
16326TIP3    H270394   5.828   4.208   3.318 -2.3854  2.2706 -0.6782
16327TIP3   OH270395   0.192   3.873  13.111  0.0031 -0.1341 -0.4071
16327TIP3    H170396   0.142   3.890  13.031 -0.2440 -1.5076 -0.5728
16327TIP3    H270397   0.283   3.889  13.086 -0.1679  0.5334 -0.6368
16328TIP3   OH270398   0.854   5.820  16.191 -0.5709  0.4066 -0.1332
16328TIP3    H170399   0.856   5.893  16.130 -0.2626  2.0616  1.7604
16328TIP3    H270400   0.946   5.799  16.207 -0.6220  0.5831  0.4232
16329TIP3   OH270401   4.169   0.574   2.998  0.4074 -0.1228  0.9631
16329TIP3    H170402   4.255   0.616   2.987  0.1073  0.1655 -0.5146
16329TIP3    H270403   4.126   0.625   3.066  0.7051  0.9111  0.4000
16330TIP3   OH270404   0.734   1.789  13.313 -0.2959 -0.0290  0.3775
16330TIP3    H170405   0.780   1.870  13.330  1.1053 -0.4240 -1.2170
16330TIP3    H270406   0.803   1.722  13.308 -1.0309 -0.7264 -1.5954
16331TIP3   OH270407   0.880   4.591   2.948  0.3115 -0.5471 -0.1366
16331TIP3    H170408   0.964   4.584   2.994  0.4024 -1.8205 -0.4640
16331TIP3    H270409   0.824   4.526   2.990  0.0910 -1.0518 -1.1855
16332TIP3   OH270410   2.571   0.113   2.199 -0.0347 -0.0478  0.8629
16332TIP3    H170411   2.527   0.147   2.121  1.1360  0.7540  0.5334
16332TIP3    H270412   2.640   0.176   2.218  0.8823 -1.1824  1.4682
16333TIP3   OH270413   5.558   6.649   1.941  0.1659 -0.1748  0.5166
16333TIP3    H170414   5.545   6.737   1.977 -0.2534  0.7870 -1.7475
16333TIP3    H270415   5.629   6.660   1.877  0.2350 -1.5249  0.3399
16334TIP3   OH270416   4.331   5.959   4.419 -0.1512 -0.0511 -0.0253
16334TIP3    H170417   4.353   5.870   4.447  0.5209  0.8694  2.6652
16334TIP3    H270418   4.328   6.010   4.500 -0.7118  2.3602 -1.4553
16335TIP3   OH270419   1.351   6.522  16.729  0.7134  0.5469 -0.4081
16335TIP3    H170420   1.418   6.547  16.664  1.0498  2.1492  0.5115
16335TIP3    H270421   1.284   6.589  16.721  0.8888  0.9302  1.0812
16336TIP3   OH270422   3.376   6.591   4.495 -0.1231  0.6200 -0.2013
16336TIP3    H170423   3.406   6.680   4.516  0.1442  0.5060 -0.0982
16336TIP3    H270424   3.280   6.597   4.499 -0.2535  1.6163 -3.0869
16337TIP3   OH270425   0.896   6.025   5.195  0.0431 -0.1555  0.0337
16337TIP3    H170426   0.922   6.116   5.204 -0.7516 -0.0231  1.4300
16337TIP3    H270427   0.940   5.994   5.116  1.6976  0.9437  0.4821
16338TIP3   OH270428   1.130   2.551  16.862  0.0320 -0.4795 -0.1772
16338TIP3    H170429   1.082   2.475  16.829 -2.1654  1.0645 -0.8162
16338TIP3    H270430   1.075   2.584  16.934 -0.4559  1.8784 -1.5114
16339TIP3   OH270431   4.845   3.844  16.848  0.8188  1.0719 -0.3943
16339TIP3    H170432   4.816   3.910  16.912  0.9638  0.0531  0.7405
16339TIP3    H270433   4.763   3.810  16.811  0.7484  2.1249 -1.2631
16340TIP3   OH270434   4.567   1.638  12.664  0.1743  0.0126  0.9687
16340TIP3    H170435   4.492   1.610  12.612  0.8537 -1.2480  0.6470
16340TIP3    H270436   4.551   1.601  12.751  0.7708 -0.9038  0.7032
16341TIP3   OH270437   2.880   4.109  11.445  0.3013 -0.5186  0.6534
16341TIP3    H170438   2.848   4.080  11.360  3.3086 -1.1928 -0.3546
16341TIP3    H270439   2.844   4.197  11.455 -0.2458 -0.4903 -1.2318
16342TIP3   OH270440   0.286   4.345   6.586 -0.3839  0.0831  0.2821
16342TIP3    H170441   0.304   4.434   6.618 -0.2557 -0.1717  0.9485
16342TIP3    H270442   0.192   4.333   6.602 -0.0330 -0.6022  2.0625
16343TIP3   OH270443   0.622   0.307   1.786 -0.0438  0.0201 -0.4656
16343TIP3    H170444   0.623   0.231   1.728 -2.3708  0.0227 -0.5722
16343TIP3    H270445   0.669   0.375   1.738  2.0105 -1.2446 -0.4014
16344TIP3   OH270446   1.999   4.114  17.378 -0.4993  0.2500 -0.0808
16344TIP3    H170447   1.924   4.062  17.408  0.3858 -1.0560 -0.0405
16344TIP3    H270448   1.984   4.201  17.414 -0.1296 -0.8907  3.1537
16345TIP3   OH270449   2.982   0.496  11.631  0.4904 -0.1845  0.1068
16345TIP3    H170450   3.033   0.530  11.557 -0.5015  2.9921  0.7220
16345TIP3    H270451   3.047   0.485  11.701  0.8062  1.0580  0.0386
16346TIP3   OH270452   6.238   0.234   2.856  0.0786  0.2384  0.9110
16346TIP3    H170453   6.226   0.160   2.797 -2.0634  1.1578  0.0854
16346TIP3    H270454   6.329   0.261   2.842  0.4534 -1.3004  0.1581
16347TIP3   OH270455   3.468   1.253   6.084 -0.5433  0.7545 -0.0782
16347TIP3    H170456   3.463   1.297   6.169 -1.0274  0.6768 -0.0656
16347TIP3    H270457   3.554   1.212   6.083  0.1562  2.1628 -0.3166
16348TIP3   OH270458   1.980   6.460   4.817  0.1058 -0.2623 -0.3843
16348TIP3    H170459   2.068   6.495   4.799  0.4668 -0.8506  0.1706
16348TIP3    H270460   1.929   6.536   4.842  0.5981  0.0269 -0.2339
16349TIP3   OH270461   2.241   1.033   1.979 -0.4465  0.3900 -0.1155
16349TIP3    H170462   2.147   1.050   1.971 -0.5739  0.3429  1.0274
16349TIP3    H270463   2.247   0.938   1.984 -0.4139  0.4174  0.4714
16350TIP3   OH270464   3.495   3.152   5.693  0.3415 -0.4186  0.4321
16350TIP3    H170465   3.496   3.247   5.683  0.4175 -0.4285  0.3345
16350TIP3    H270466   3.577   3.132   5.739  1.1526 -0.5816 -0.9930
16351TIP3   OH270467   1.583   2.233  16.483 -0.2245  0.6446  0.0702
16351TIP3    H170468   1.554   2.264  16.398 -0.2915  1.6051  0.4320
16351TIP3    H270469   1.581   2.310  16.539  1.7726  0.4971  0.4486
16352TIP3   OH270470   5.913   5.143   1.520  0.0185 -0.0110  0.0798
16352TIP3    H170471   5.880   5.230   1.500  0.5777  0.3441  0.6616
16352TIP3    H270472   5.863   5.084   1.463  0.6133  0.8231 -1.3517
16353TIP3   OH270473   5.926   4.245   2.103 -0.1336  0.2493  0.3462
16353TIP3    H170474   6.017   4.216   2.098  0.1032  0.9438  0.4732
16353TIP3    H270475   5.879   4.188   2.042  0.1050 -1.1675  1.4252
16354TIP3   OH270476   1.350   1.154   0.265  0.0619  0.4946 -0.0915
16354TIP3    H170477   1.282   1.166   0.198 -0.0763  2.2978  0.3005
16354TIP3    H270478   1.342   1.063   0.292 -1.1032  0.2324 -1.2264
16355TIP3   OH270479   3.907   0.935  15.650  0.4047  0.6522  0.1557
16355TIP3    H170480   3.946   0.862  15.602 -0.9849 -0.2846  0.4021
16355TIP3    H270481   3.933   1.013  15.599 -0.6338 -0.2653 -1.9013
16356TIP3   OH270482   4.406   5.137  10.780  0.0282 -0.2562  0.6069
16356TIP3    H170483   4.428   5.126  10.873  1.0187  0.0734  0.4204
16356TIP3    H270484   4.431   5.227  10.760  0.4563 -0.5355 -0.1515
16357TIP3   OH270485   6.490   5.373  16.409 -0.0481 -0.5458  0.3004
16357TIP3    H170486   6.433   5.351  16.336 -0.8514  0.5843  0.5532
16357TIP3    H270487   6.571   5.326  16.392 -1.1909 -2.5907  0.1695
16358TIP3   OH270488   4.546   2.418   3.165  0.5198 -0.1333  0.1226
16358TIP3    H170489   4.568   2.345   3.107 -0.5129 -2.0220  1.9717
16358TIP3    H270490   4.594   2.400   3.245 -1.9603 -0.4338  1.6479
16359TIP3   OH270491   5.692   1.521   5.422 -0.2423  0.1255  0.4471
16359TIP3    H170492   5.768   1.478   5.383  0.6865  2.2359 -0.1721
16359TIP3    H270493   5.720   1.544   5.511 -1.0227 -1.1995  1.0720
16360TIP3   OH270494   3.379   2.074  15.608  0.2098  0.3974 -1.1161
16360TIP3    H170495   3.461   2.121  15.622  2.1606 -2.8521 -0.6466
16360TIP3    H270496   3.332   2.082  15.692  1.6367 -0.4608 -0.1894
16361TIP3   OH270497   4.907   0.529  14.950 -0.4021  0.3138 -0.0346
16361TIP3    H170498   4.959   0.474  15.009  0.1513  0.6414 -0.2134
16361TIP3    H270499   4.965   0.601  14.927 -0.9030  0.6296 -0.3225
16362TIP3   OH270500   0.649   0.913   4.330  0.0405 -0.0181  0.3201
16362TIP3    H170501   0.569   0.957   4.300  0.2565  0.2538  0.1323
16362TIP3    H270502   0.676   0.861   4.255 -1.3322 -2.1080  1.1988
16363TIP3   OH270503   0.411   5.032   0.682 -0.4216 -0.2137  0.1499
16363TIP3    H170504   0.340   4.975   0.653 -0.0363 -0.6576  0.0616
16363TIP3    H270505   0.368   5.106   0.725 -0.9169 -0.8937  0.8482
16364TIP3   OH270506   5.899   5.962  17.405 -0.0054  0.3157 -0.4108
16364TIP3    H170507   5.934   6.020  17.338  0.7529  1.7945  1.1708
16364TIP3    H270508   5.965   5.893  17.414  1.4337  1.7659  0.8567
16365TIP3   OH270509   0.365   1.301  14.392 -0.4864 -0.2996 -0.4278
16365TIP3    H170510   0.357   1.250  14.312  0.9609  0.3446 -1.0338
16365TIP3    H270511   0.379   1.391  14.362 -0.2346 -0.0005  0.5452
16366TIP3   OH270512   3.768   1.569   1.971 -0.1983 -0.0973  0.7489
16366TIP3    H170513   3.763   1.552   2.065 -1.1130 -1.5471  0.4713
16366TIP3    H270514   3.851   1.616   1.959  0.2292 -0.4368  2.2027
16367TIP3   OH270515   5.525   3.782   6.012  0.0688 -0.1632  0.2668
16367TIP3    H170516   5.615   3.750   6.022 -0.2402 -0.9185  0.7476
16367TIP3    H270517   5.505   3.825   6.095  0.2744  0.7582 -0.1575
16368TIP3   OH270518   6.067   2.082  12.409  0.2564  0.4530  0.3474
16368TIP3    H170519   6.146   2.041  12.445  1.0922 -0.2741 -2.1107
16368TIP3    H270520   6.025   2.013  12.358 -0.2858  1.6850 -0.9231
16369TIP3   OH270521   2.606   0.160  11.910  0.8062  0.0401 -0.3197
16369TIP3    H170522   2.542   0.158  11.981  2.0530 -1.4327  0.8149
16369TIP3    H270523   2.554   0.174  11.831 -0.6363  1.5135  0.8200
16370TIP3   OH270524   1.520   0.750  13.779 -0.0626 -0.1816 -0.0626
16370TIP3    H170525   1.598   0.799  13.806  0.9780 -1.5682 -0.4065
16370TIP3    H270526   1.515   0.762  13.685  1.0745 -1.8316 -0.3930
16371TIP3   OH270527   5.046   1.210   0.494  0.5389  0.4993  0.5837
16371TIP3    H170528   4.995   1.232   0.573  1.4372  1.7003  0.8638
16371TIP3    H270529   4.983   1.168   0.436 -0.4022  0.5683  1.5210
16372TIP3   OH270530   5.889   5.424  14.058 -0.4120  0.0504 -0.1056
16372TIP3    H170531   5.937   5.458  13.983 -1.2793 -0.2385 -0.8070
16372TIP3    H270532   5.956   5.382  14.112  0.5788  2.1995  0.4432
16373TIP3   OH270533   5.574   5.163   5.815  0.0524  0.3327  0.2344
16373TIP3    H170534   5.522   5.164   5.735  0.2519  0.7143  0.1087
16373TIP3    H270535   5.510   5.160   5.886 -0.1237 -1.1163  0.0522
16374TIP3   OH270536   2.607   4.381  15.653 -0.0433 -0.3037  0.6243
16374TIP3    H170537   2.618   4.457  15.711  0.3590 -0.9118  1.3776
16374TIP3    H270538   2.512   4.369  15.648 -0.0798 -0.4455  1.4496
16375TIP3   OH270539   1.036   0.107  14.486  0.6776 -0.5684  0.6108
16375TIP3    H170540   0.965   0.053  14.451  0.8861  0.6286 -1.8321
16375TIP3    H270541   0.996   0.153  14.560  0.0844 -2.8235  1.7932
16376TIP3   OH270542   0.689   3.666  13.250 -0.5131 -0.3849 -0.2489
16376TIP3    H170543   0.732   3.609  13.314 -0.8295 -2.0091 -1.4198
16376TIP3    H270544   0.600   3.677  13.285 -0.0930  0.4405  0.6062
16377TIP3   OH270545   2.033   6.363   6.402  0.2288  0.0939  0.2598
16377TIP3    H170546   2.065   6.321   6.482  0.7149  0.5175  0.2935
16377TIP3    H270547   2.105   6.420   6.375  0.1313 -0.1674 -0.5691
16378TIP3   OH270548   3.031   2.660  12.504  0.4868  0.0844 -0.2654
16378TIP3    H170549   3.028   2.593  12.573 -0.1360  0.3988  0.0263
16378TIP3    H270550   3.086   2.730  12.540 -1.5869  1.2417  0.8702
16379TIP3   OH270551   5.185   5.342  10.941 -0.2807  0.4605  0.1260
16379TIP3    H170552   5.175   5.386  11.025 -3.3479  1.0811 -0.4185
16379TIP3    H270553   5.155   5.406  10.876  0.6111 -0.5016 -1.3033
16380TIP3   OH270554   5.451   2.105  13.033  0.0632  0.2987 -0.8725
16380TIP3    H170555   5.509   2.098  12.957 -0.6886 -1.6485 -1.3373
16380TIP3    H270556   5.380   2.163  13.004  0.0990  0.0613 -1.4539
16381TIP3   OH270557   2.898   2.268   4.930 -0.4965  0.0373 -0.2018
16381TIP3    H170558   2.862   2.230   5.010 -1.2994 -2.6753 -1.7242
16381TIP3    H270559   2.824   2.270   4.869  0.4327  0.6321 -1.3599
16382TIP3   OH270560   3.354   5.015  16.311  0.5592 -0.0118  0.2116
16382TIP3    H170561   3.275   4.974  16.275  0.2091 -0.8975  1.8780
16382TIP3    H270562   3.372   5.088  16.252 -0.4310 -0.8821 -1.2603
16383TIP3   OH270563   5.964   6.426   5.544  0.0664 -0.4493  0.2489
16383TIP3    H170564   6.052   6.432   5.580  1.1508 -2.5967 -1.8425
16383TIP3    H270565   5.974   6.443   5.451 -1.7914 -0.5441 -0.0095
16384TIP3   OH270566   2.903   5.204  11.710  0.2692  0.6235  0.1862
16384TIP3    H170567   2.855   5.287  11.716  1.0396  0.9508  3.3773
16384TIP3    H270568   2.995   5.229  11.711  0.6441 -0.1577 -3.1132
16385TIP3   OH270569   1.083   2.012   4.123 -0.2114  0.8040  0.8040
16385TIP3    H170570   1.123   2.059   4.050 -2.1185  1.5817  0.1923
16385TIP3    H270571   1.156   1.968   4.166  0.9529  0.0432 -1.7472
16386TIP3   OH270572   1.432   5.847  15.752 -0.6653 -0.2965  0.6321
16386TIP3    H170573   1.506   5.907  15.767  0.2028 -1.1482 -0.1132
16386TIP3    H270574   1.466   5.783  15.689 -1.9190 -0.9495  0.5989
16387TIP3   OH270575   2.619   1.440  15.112 -0.3346  0.1470 -0.0724
16387TIP3    H170576   2.594   1.352  15.085  1.1267 -0.6049  0.9050
16387TIP3    H270577   2.686   1.427  15.179  1.3352  1.9941 -1.2573
16388TIP3   OH270578   5.447   5.837  14.411  0.5357 -0.5746  0.3936
16388TIP3    H170579   5.536   5.872  14.420  0.4775 -0.1048 -0.7638
16388TIP3    H270580   5.421   5.859  14.322 -0.9854 -0.1600  0.9054
16389TIP3   OH270581   5.536   0.501   0.867  0.5347  0.8166  0.3120
16389TIP3    H170582   5.511   0.459   0.784 -1.7564  0.6626  1.0285
16389TIP3    H270583   5.583   0.580   0.840  1.1500  0.0002 -1.1095
16390TIP3   OH270584   2.956   4.057   0.297  0.1936  0.0420 -0.0635
16390TIP3    H170585   2.872   4.014   0.280  0.7091 -0.0184 -2.9885
16390TIP3    H270586   2.952   4.138   0.247  0.7296  1.6560  2.3246
16391TIP3   OH270587   2.185   3.280  15.292  0.3192  0.5344 -0.0528
16391TIP3    H170588   2.124   3.315  15.357  1.0827  3.5752 -0.8327
16391TIP3    H270589   2.181   3.341  15.219  3.2427  0.1094 -0.7110
16392TIP3   OH270590   5.307   0.340   1.093 -0.4442  0.0090  0.4367
16392TIP3    H170591   5.375   0.274   1.073  0.3738  0.1717  2.4312
16392TIP3    H270592   5.355   0.410   1.138 -1.9279  0.1184  1.9215
16393TIP3   OH270593   2.990   5.112  15.667  0.4286 -0.1224 -0.1669
16393TIP3    H170594   2.901   5.147  15.676  0.2414 -0.6441  0.0831
16393TIP3    H270595   3.026   5.117  15.755 -0.1844 -2.0556  0.2416
16394TIP3   OH270596   5.881   3.097   5.707 -0.0430  0.1204 -0.1612
16394TIP3    H170597   5.938   3.059   5.774 -0.5023  0.7670  0.6074
16394TIP3    H270598   5.902   3.047   5.628 -0.3444 -1.4910  0.7220
16395TIP3   OH270599   0.248   5.333  11.588 -0.3691 -0.1424 -0.4555
16395TIP3    H170600   0.274   5.302  11.675  2.5062 -1.5382 -1.6886
16395TIP3    H270601   0.206   5.257  11.547 -1.1381  0.3112 -0.5273
16396TIP3   OH270602   3.521   2.119   0.999 -0.9877  0.1476 -0.3498
16396TIP3    H170603   3.462   2.154   0.932 -0.2484  1.0136 -0.5741
16396TIP3    H270604   3.589   2.072   0.949 -0.0619  1.3621 -0.2822
16397TIP3   OH270605   3.548   4.946   4.800 -0.5945 -0.4640  0.7577
16397TIP3    H170606   3.590   5.031   4.810 -0.5118 -0.2732 -0.9282
16397TIP3    H270607   3.522   4.921   4.889  0.1969  0.8888  1.3932
16398TIP3   OH270608   1.701   0.240   5.230  0.0038 -0.2002  0.3201
16398TIP3    H170609   1.635   0.172   5.216  1.1771 -1.0502 -1.3937
16398TIP3    H270610   1.705   0.287   5.147  0.7342  0.5958  0.7897
16399TIP3   OH270611   3.306   4.757   1.368  0.3097 -0.4414 -0.1946
16399TIP3    H170612   3.262   4.808   1.436  1.7868  0.4651  0.1121
16399TIP3    H270613   3.255   4.773   1.289  1.0497  2.0254 -0.2514
16400TIP3   OH270614   3.787   6.413  13.829 -0.1419  0.2073  0.1419
16400TIP3    H170615   3.768   6.497  13.869 -0.6806 -0.2374  0.8378
16400TIP3    H270616   3.706   6.388  13.784 -0.5936 -0.7555  1.4283
16401TIP3   OH270617   2.577   0.163  14.416 -0.0461 -0.4857 -0.0534
16401TIP3    H170618   2.597   0.159  14.323  1.1821 -1.5365  0.2210
16401TIP3    H270619   2.655   0.128  14.459 -0.4527  0.2876  1.3938
16402TIP3   OH270620   0.745   5.261   1.949  0.2964 -0.2203  0.3204
16402TIP3    H170621   0.670   5.209   1.921 -0.1619 -0.1077  1.2899
16402TIP3    H270622   0.814   5.196   1.966  0.6590 -0.2656 -1.2556
16403TIP3   OH270623   6.678   0.048   1.651 -0.6341  0.0262  0.0130
16403TIP3    H170624   6.746   0.108   1.682 -0.3776  0.4699 -1.3576
16403TIP3    H270625   6.667  -0.014   1.724  1.3972 -0.1945  0.2155
16404TIP3   OH270626   3.003   5.659   5.431 -0.8479  0.2637 -0.0556
16404TIP3    H170627   3.001   5.709   5.513 -1.0296  0.3946 -0.1389
16404TIP3    H270628   2.999   5.567   5.459 -2.6849  0.3366  0.0348
16405TIP3   OH270629   5.623   4.089  13.756  0.1144 -0.1686  0.1255
16405TIP3    H170630   5.608   4.178  13.724 -1.0809 -0.3355  0.1910
16405TIP3    H270631   5.616   4.097  13.851  1.8677 -0.0137  0.2899
16406TIP3   OH270632   0.308   3.076  13.108 -0.1321  0.4235 -0.0482
16406TIP3    H170633   0.254   3.111  13.037  0.3671  0.7676 -0.2619
16406TIP3    H270634   0.366   3.012  13.067 -1.6049 -1.3316  0.4704
16407TIP3   OH270635   5.403   3.642  15.336  0.2303 -0.1548  0.4108
16407TIP3    H170636   5.439   3.615  15.420  2.4916  0.1900 -0.3869
16407TIP3    H270637   5.471   3.698  15.298 -1.0446  0.2729 -1.3460
16408TIP3   OH270638   2.625   2.141  15.158  0.0563  0.4196  0.8203
16408TIP3    H170639   2.568   2.183  15.222 -0.9759 -0.2965  0.3845
16408TIP3    H270640   2.616   2.194  15.079 -1.1800 -0.5356  0.2963
16409TIP3   OH270641   1.391   4.941  13.810 -0.4826 -0.1637 -0.1610
16409TIP3    H170642   1.444   4.903  13.881  0.9188 -0.2346 -1.2141
16409TIP3    H270643   1.320   4.878  13.797 -1.6854  0.5780  2.1812
16410TIP3   OH270644   4.267   4.332   3.622 -0.2346 -0.4175 -0.2780
16410TIP3    H170645   4.290   4.365   3.709  1.2036 -0.6571 -0.5493
16410TIP3    H270646   4.246   4.411   3.571 -2.5031 -0.3528  0.6279
16411TIP3   OH270647   6.738   1.923  11.803  0.5096  1.0325 -0.4074
16411TIP3    H170648   6.767   2.000  11.755 -0.5236  1.8582  0.2512
16411TIP3    H270649   6.817   1.890  11.846  0.6068  3.0242  1.0691
16412TIP3   OH270650   0.357   5.417   0.825 -0.0936  0.1408  0.7825
16412TIP3    H170651   0.402   5.500   0.843  0.5485 -0.1057  0.3756
16412TIP3    H270652   0.343   5.378   0.911  1.7106 -0.4001  0.8730
16413TIP3   OH270653   5.196   0.071   0.382 -0.1957  0.5257 -0.5012
16413TIP3    H170654   5.114   0.120   0.384  0.1611  1.1190  1.4957
16413TIP3    H270655   5.170  -0.020   0.387 -0.7630  0.6143 -1.4722
16414TIP3   OH270656   0.214   2.083  11.623 -0.2199  0.1835 -0.5176
16414TIP3    H170657   0.213   2.173  11.590  1.1314  0.8562  1.1088
16414TIP3    H270658   0.203   2.029  11.545  0.5713  1.7112 -1.7548
16415TIP3   OH270659   5.799   0.421  10.768  0.1002  0.0438 -0.4585
16415TIP3    H170660   5.850   0.443  10.690  0.6250 -0.2200 -0.1937
16415TIP3    H270661   5.813   0.327  10.780 -1.4644 -0.3240 -1.1116
16416TIP3   OH270662   5.654   5.148   3.378  0.5474 -0.0364  0.2873
16416TIP3    H170663   5.639   5.114   3.466 -0.1898 -0.4279  0.0189
16416TIP3    H270664   5.671   5.071   3.325 -0.8032  0.0099 -0.2589
16417TIP3   OH270665   5.393   4.095  15.245 -0.7046 -0.6327  0.2027
16417TIP3    H170666   5.312   4.047  15.226 -1.0948 -0.7792  2.0456
16417TIP3    H270667   5.451   4.074  15.172 -1.5983 -2.2389 -0.0958
16418TIP3   OH270668   4.477   3.752   0.876  0.8400  0.1245 -0.1234
16418TIP3    H170669   4.419   3.822   0.846  0.9057  0.7729  1.2154
16418TIP3    H270670   4.419   3.678   0.893  0.5431  0.4300  0.1843
16419TIP3   OH270671   4.494   3.274   5.782 -0.6387 -0.2655  0.1110
16419TIP3    H170672   4.469   3.188   5.747 -2.6023  0.1552  0.3618
16419TIP3    H270673   4.473   3.268   5.876 -0.1644  0.2813  0.2552
16420TIP3   OH270674   4.360   0.530   6.070 -0.2807  0.1211 -0.4474
16420TIP3    H170675   4.447   0.550   6.106 -1.2050  1.3955  1.2192
16420TIP3    H270676   4.372   0.533   5.975  1.4408  0.5394 -0.2460
16421TIP3   OH270677   4.807   3.558  16.172  0.1447  0.4872 -0.0514
16421TIP3    H170678   4.864   3.490  16.136 -3.0464 -3.6478  1.8773
16421TIP3    H270679   4.756   3.589  16.097  0.5896 -0.3943 -0.7359
16422TIP3   OH270680   3.465   6.059   6.659  0.2789 -0.1888  0.2698
16422TIP3    H170681   3.442   6.117   6.587  1.8658 -0.5338 -0.5471
16422TIP3    H270682   3.419   5.978   6.640 -0.0359  0.0149  0.1508
16423TIP3   OH270683   2.696   0.422  13.544 -0.0654 -0.3357  0.0677
16423TIP3    H170684   2.669   0.467  13.625  1.9221 -0.0095  0.5967
16423TIP3    H270685   2.786   0.450  13.530 -0.3662 -0.3761 -2.3153
16424TIP3   OH270686   1.665   1.272  14.066  0.4034  0.0332 -0.3102
16424TIP3    H170687   1.737   1.334  14.056 -0.4658  1.3387  1.1516
16424TIP3    H270688   1.651   1.265  14.160 -0.4099 -1.3806 -0.4978
16425TIP3   OH270689   6.018   1.174   5.057  0.4407 -0.2284  0.2703
16425TIP3    H170690   6.106   1.146   5.034  0.4606 -1.0896  1.3223
16425TIP3    H270691   6.015   1.170   5.152 -1.0768 -1.3735  0.2319
16426TIP3   OH270692   6.203   6.035  11.085  0.1741  0.1434  0.0002
16426TIP3    H170693   6.159   5.992  11.011 -1.1975 -0.5070  1.1316
16426TIP3    H270694   6.281   5.981  11.101 -0.1925 -0.4575 -0.1806
16427TIP3   OH270695   4.780   2.217  16.992 -0.0327 -0.0876  0.1252
16427TIP3    H170696   4.823   2.188  16.912 -0.3899 -1.1808  0.3126
16427TIP3    H270697   4.738   2.138  17.027  0.9236  0.1574  1.9154
16428TIP3   OH270698   5.126   3.574  13.633  0.1501  0.3736 -0.5014
16428TIP3    H170699   5.065   3.547  13.702  0.8447  3.2141  1.3941
16428TIP3    H270700   5.154   3.492  13.593 -2.1251 -1.2599  0.9563
16429TIP3   OH270701   2.806   2.785   4.466 -0.6535 -0.0881 -0.3709
16429TIP3    H170702   2.896   2.765   4.491 -1.1959 -0.5907  1.3121
16429TIP3    H270703   2.755   2.710   4.496 -1.7262  0.4605 -0.7523
16430TIP3   OH270704   5.587   1.021  15.473 -0.0133  0.0937  0.0828
16430TIP3    H170705   5.511   0.975  15.437  0.8010 -1.0968 -0.1921
16430TIP3    H270706   5.608   1.088  15.408 -0.5991  0.1919 -0.0090
16431TIP3   OH270707   1.577   2.845  14.061 -0.0387  0.6367 -0.0514
16431TIP3    H170708   1.540   2.832  13.973 -1.1445  0.8165  0.3743
16431TIP3    H270709   1.586   2.756  14.096  1.3298  0.4973 -0.6965
16432TIP3   OH270710   1.100   1.863   0.170  0.1754  0.2537 -0.2356
16432TIP3    H170711   1.163   1.843   0.239  0.7608 -0.5059 -0.9659
16432TIP3    H270712   1.103   1.787   0.112 -1.5462  0.1156 -0.2085
16433TIP3   OH270713   6.395   5.321   4.613 -0.6309  0.2389  0.1153
16433TIP3    H170714   6.340   5.400   4.607 -0.8508  0.1080  0.3853
16433TIP3    H270715   6.386   5.279   4.528 -0.4739  0.5304 -0.0485
16434TIP3   OH270716   1.660   3.596  13.909  0.2352  0.3332 -0.3710
16434TIP3    H170717   1.579   3.600  13.959  1.0401  0.3081  1.0100
16434TIP3    H270718   1.652   3.519  13.853  0.0565 -0.7886  1.1416
16435TIP3   OH270719   4.561   3.219   4.981 -0.3790 -0.3170  0.3931
16435TIP3    H170720   4.490   3.172   4.936 -1.6496  1.6684  0.2068
16435TIP3    H270721   4.593   3.156   5.046  0.0625 -2.4899 -1.7858
16436TIP3   OH270722   6.112   4.462   3.973 -0.1347  0.3809  0.0386
16436TIP3    H170723   6.185   4.490   4.028  0.4765  0.5191 -0.8438
16436TIP3    H270724   6.042   4.441   4.036  0.6010  0.3952  0.8748
16437TIP3   OH270725   0.813   1.252  11.535 -0.0239  0.1540 -0.0665
16437TIP3    H170726   0.837   1.344  11.550 -2.0159  0.5621  0.8579
16437TIP3    H270727   0.727   1.242  11.576 -0.1873 -1.9460 -0.8017
16438TIP3   OH270728   0.547   6.385  16.904 -0.0345  0.1547  0.1747
16438TIP3    H170729   0.524   6.450  16.838  0.5255  1.0462  0.8343
16438TIP3    H270730   0.632   6.352  16.876  0.2128  0.5481  0.4415
16439TIP3   OH270731   2.847   2.067   1.534  0.3875 -0.0995  0.1419
16439TIP3    H170732   2.933   2.062   1.576 -0.0146  1.7788  1.3301
16439TIP3    H270733   2.842   2.157   1.502 -1.2217 -0.1024  0.3206
16440TIP3   OH270734   0.515   6.357   0.251 -0.0326  0.7409 -0.0770
16440TIP3    H170735   0.450   6.288   0.239  1.4941 -0.6465 -0.8111
16440TIP3    H270736   0.496   6.393   0.338 -0.8863 -0.5865  0.3175
16441TIP3   OH270737   4.404   5.154  13.379  0.0283  0.2446 -0.2771
16441TIP3    H170738   4.408   5.230  13.437  1.9444 -0.4894  0.6145
16441TIP3    H270739   4.423   5.190  13.292 -1.5559  1.1391 -0.3015
16442TIP3   OH270740   4.978   0.164   0.107  0.4554 -0.3293 -0.0431
16442TIP3    H170741   4.992   0.222   0.182  0.3408 -0.8463  0.3844
16442TIP3    H270742   5.017   0.211   0.033 -0.4185  0.6876  0.1261
16443TIP3   OH270743   4.673   3.276  11.973 -0.0685  0.3079 -0.4372
16443TIP3    H170744   4.697   3.189  11.939  0.7676  0.8750 -1.3378
16443TIP3    H270745   4.756   3.320  11.987 -0.3547  0.1421  2.3720
16444TIP3   OH270746   3.504   5.508   6.290  0.5908  0.1745  0.4331
16444TIP3    H170747   3.596   5.531   6.277  0.0352  2.0697 -0.5309
16444TIP3    H270748   3.493   5.508   6.385  1.5338  0.1194  0.5557
16445TIP3   OH270749   2.214   5.495  14.525  0.1250 -0.6275  0.1405
16445TIP3    H170750   2.151   5.490  14.453 -1.7213  0.3236  1.5853
16445TIP3    H270751   2.186   5.426  14.585  1.0257 -0.7543  0.4202
16446TIP3   OH270752   0.813   6.096  16.144  0.0762  0.0180  0.0180
16446TIP3    H170753   0.857   6.180  16.133 -2.4099  1.2665 -1.1164
16446TIP3    H270754   0.803   6.086  16.238  1.4421  0.3658  0.2266
16447TIP3   OH270755   5.220   3.812  13.175 -0.0141  0.1792  0.0087
16447TIP3    H170756   5.262   3.793  13.260 -0.0904  1.7606  0.4326
16447TIP3    H270757   5.205   3.907  13.177 -0.6889  0.1212 -1.4838
16448TIP3   OH270758   2.685   3.454  16.277 -0.1519  0.2920  0.6961
16448TIP3    H170759   2.621   3.386  16.298  0.6425 -0.5964  0.3100
16448TIP3    H270760   2.756   3.441  16.341  0.0134  0.7544  0.6102
16449TIP3   OH270761   4.158   5.299   5.423  0.3848 -0.5295 -0.3752
16449TIP3    H170762   4.086   5.236   5.414  0.3655 -0.3277 -2.0705
16449TIP3    H270763   4.122   5.381   5.387  0.5588  0.3465  1.3696
16450TIP3   OH270764   4.488   4.878  15.856 -0.1127  0.7407  0.6603
16450TIP3    H170765   4.444   4.796  15.880  0.1184  0.2883 -0.3932
16450TIP3    H270766   4.499   4.872  15.761  1.8620  1.0025  0.8228
16451TIP3   OH270767   3.695   0.257   5.066 -0.4331  0.1654 -0.3870
16451TIP3    H170768   3.625   0.318   5.086 -1.2252  0.2046 -2.9226
16451TIP3    H270769   3.651   0.173   5.051  0.0434  0.1580 -1.8949
16452TIP3   OH270770   4.568   5.394  12.068 -0.0546 -0.1406 -0.1840
16452TIP3    H170771   4.630   5.439  12.125 -1.0833  0.6609  0.3372
16452TIP3    H270772   4.616   5.379  11.987  0.8888  0.2304  0.2903
16453TIP3   OH270773   3.709   1.953   0.865  0.8760 -0.7164  0.3835
16453TIP3    H170774   3.792   1.993   0.839  1.3558 -1.8004  0.2101
16453TIP3    H270775   3.720   1.860   0.847  0.3925 -1.1937  2.3049
16454TIP3   OH270776   0.016   2.974  15.857  0.2019 -0.7166  0.1255
16454TIP3    H170777   0.014   3.059  15.812 -0.5470  1.3392  3.6677
16454TIP3    H270778   0.085   2.925  15.812  0.8889  1.8517 -1.8906
16455TIP3   OH270779   1.451   1.166   4.533  0.7563  0.3794  0.1635
16455TIP3    H170780   1.459   1.154   4.628 -0.1399 -1.5086  0.0459
16455TIP3    H270781   1.489   1.086   4.496  1.0256  1.0655 -1.0890
16456TIP3   OH270782   4.374   1.499   5.578 -0.0363  0.3606 -0.2387
16456TIP3    H170783   4.300   1.447   5.610  0.5884 -2.9452 -3.4153
16456TIP3    H270784   4.446   1.477   5.638 -0.3381 -0.7732 -0.2603
16457TIP3   OH270785   5.163   3.101  14.251  0.3098 -0.1591  0.2410
16457TIP3    H170786   5.187   3.139  14.167  0.5948 -0.6836  0.0820
16457TIP3    H270787   5.245   3.099  14.301  0.4064 -1.0176  0.0652
16458TIP3   OH270788   3.009   1.040   2.269 -0.1668  0.0915  0.3485
16458TIP3    H170789   3.038   1.076   2.352  0.4032 -2.7359  1.5100
16458TIP3    H270790   2.917   1.016   2.283  0.1729 -1.1951  0.5111
16459TIP3   OH270791   2.435   0.239  12.131 -0.1961  0.8258  0.1510
16459TIP3    H170792   2.438   0.156  12.178  0.4478  0.4564 -0.5206
16459TIP3    H270793   2.352   0.237  12.083  0.5343 -0.1916 -1.1686
16460TIP3   OH270794   0.284   4.604  17.298 -0.2194  0.3336 -0.2240
16460TIP3    H170795   0.268   4.513  17.325  0.5271  0.6172  1.2109
16460TIP3    H270796   0.363   4.599  17.244  0.8564  0.3497  1.3102
16461TIP3   OH270797   4.641   3.662  15.915  0.2752  0.4867  0.7092
16461TIP3    H170798   4.612   3.725  15.849  1.6713  0.3438 -0.0858
16461TIP3    H270799   4.611   3.577  15.883  0.6391  0.4610  0.4263
16462TIP3   OH270800   0.815   0.539   1.094 -0.3219  0.2253 -0.8636
16462TIP3    H170801   0.881   0.608   1.096  0.1329 -0.0879 -2.8086
16462TIP3    H270802   0.735   0.583   1.065 -1.0028  0.5769  1.3580
16463TIP3   OH270803   2.071   6.077  17.385 -0.2548 -0.0223 -0.1924
16463TIP3    H170804   2.003   6.083  17.318 -0.6400 -3.1348 -0.2356
16463TIP3    H270805   2.030   6.111  17.464 -1.1194  0.1312 -0.6963
16464TIP3   OH270806   5.808   3.280   5.089  0.7981  0.0578 -0.2192
16464TIP3    H170807   5.839   3.368   5.065  1.4876 -0.3169 -0.7600
16464TIP3    H270808   5.729   3.268   5.036  1.0198  0.1356 -0.5725
16465TIP3   OH270809   5.619   6.352  13.472  0.0685  0.0232  0.5020
16465TIP3    H170810   5.555   6.358  13.543 -1.1722 -1.9283 -0.3516
16465TIP3    H270811   5.687   6.293  13.505  1.1491  1.5574  1.1526
16466TIP3   OH270812   4.349   6.180  12.501  0.2256  0.6194  0.1852
16466TIP3    H170813   4.428   6.136  12.471  0.2868  0.8686 -0.0273
16466TIP3    H270814   4.364   6.273  12.481 -0.4724  0.5662 -0.6880
16467TIP3   OH270815   0.684   6.458  12.503 -0.9870  0.0558  0.4387
16467TIP3    H170816   0.633   6.443  12.583  0.2203  1.2434  1.4769
16467TIP3    H270817   0.703   6.370  12.470 -2.4873 -0.4319  0.7809
16468TIP3   OH270818   6.117   2.043  16.205 -0.8801  0.5414  1.0807
16468TIP3    H170819   6.022   2.039  16.194 -1.1758  0.6105  3.1738
16468TIP3    H270820   6.133   2.126  16.249  0.3037  1.0801 -0.2883
16469TIP3   OH270821   2.786   6.121   3.587  0.1125 -0.1831 -0.4042
16469TIP3    H170822   2.747   6.199   3.549 -1.0613 -0.1216  0.8444
16469TIP3    H270823   2.726   6.050   3.563 -0.6098 -0.1522  1.2040
16470TIP3   OH270824   0.582   3.597  12.813  0.5291  0.5583 -0.1934
16470TIP3    H170825   0.671   3.610  12.845  1.1457 -0.2488 -1.4872
16470TIP3    H270826   0.580   3.639  12.727  0.3843 -1.3401 -1.1789
16471TIP3   OH270827   3.845   4.429   3.182  0.3100 -0.6254 -0.5818
16471TIP3    H170828   3.860   4.352   3.127 -1.3521 -2.3375  1.1947
16471TIP3    H270829   3.750   4.438   3.185  0.4457  0.8948  0.1150
16472TIP3   OH270830   6.479   3.314  13.045 -0.0543  0.5286  0.2647
16472TIP3    H170831   6.527   3.388  13.081  0.4339  0.1787  0.3441
16472TIP3    H270832   6.404   3.353  13.000  0.0567  1.0500  0.5291
16473TIP3   OH270833   0.764   5.372  12.088 -0.2776 -0.3270 -0.3781
16473TIP3    H170834   0.752   5.288  12.045 -1.0041  0.7026 -2.2579
16473TIP3    H270835   0.817   5.351  12.166 -0.3292 -2.4757 -0.8619
16474TIP3   OH270836   2.230   1.071   1.123 -0.0966 -0.1594  0.1931
16474TIP3    H170837   2.269   1.125   1.054 -0.1857 -0.1282  0.1664
16474TIP3    H270838   2.304   1.038   1.173 -0.0110 -0.4912 -0.1467
16475TIP3   OH270839   5.070   2.583   0.918  0.0755  0.1743 -0.0427
16475TIP3    H170840   4.986   2.628   0.911 -0.6274 -1.2469 -1.1271
16475TIP3    H270841   5.063   2.531   0.998 -0.6308 -0.9778 -0.8240
16476TIP3   OH270842   6.716   5.248   1.015  0.6841 -0.3282 -0.0170
16476TIP3    H170843   6.784   5.312   1.038  0.2185 -0.0905  0.7269
16476TIP3    H270844   6.699   5.264   0.922  0.5435  0.6691  0.1621
16477TIP3   OH270845   0.068   6.686  13.876 -0.2724 -0.0154 -0.1572
16477TIP3    H170846   0.163   6.692  13.861 -0.2236 -0.0180  0.1470
16477TIP3    H270847   0.031   6.754  13.819  0.1679  2.3726  2.1855
16478TIP3   OH270848   5.295   0.889  13.271 -0.0867 -0.0793  0.1926
16478TIP3    H170849   5.262   0.915  13.185  0.1559 -0.0451  0.1094
16478TIP3    H270850   5.380   0.850  13.253 -0.3610 -0.7625  0.3352
16479TIP3   OH270851   0.963   5.402  11.865  1.1577 -0.2065  0.2411
16479TIP3    H170852   0.949   5.424  11.957 -0.6420  0.7305 -0.2143
16479TIP3    H270853   1.030   5.332  11.867 -0.1447 -1.5114  2.3708
16480TIP3   OH270854   1.155   3.920  12.429  0.0805  0.1170  0.3653
16480TIP3    H170855   1.079   3.864  12.414  0.5129 -0.6234  0.8727
16480TIP3    H270856   1.219   3.863  12.473  1.8626  0.0405 -2.1305
16481TIP3   OH270857   0.999   0.989  14.020  0.4575  0.3768  0.6235
16481TIP3    H170858   1.003   0.897  13.993 -1.0526  0.1711  0.9883
16481TIP3    H270859   0.994   1.037  13.937  1.6102  0.1721  0.4201
16482TIP3   OH270860   0.922   5.869   6.788 -0.0172 -0.1401  0.3280
16482TIP3    H170861   0.829   5.891   6.798  0.4287  1.8154  0.6579
16482TIP3    H270862   0.968   5.943   6.828  1.6918 -1.3217  0.6572
16483TIP3   OH270863   3.205   3.203   4.639  0.6607  0.3414  1.2225
16483TIP3    H170864   3.296   3.181   4.620  0.4313 -3.1215  3.3279
16483TIP3    H270865   3.175   3.250   4.561  4.1438  1.5072  0.4193
16484TIP3   OH270866   3.112   0.782   1.506  0.0522 -0.7733  0.3636
16484TIP3    H170867   3.157   0.792   1.590 -0.7518  0.4467  0.6676
16484TIP3    H270868   3.020   0.769   1.530 -0.1814 -0.4078 -0.3211
16485TIP3   OH270869   2.557   4.641   2.425 -0.4667  0.2316  0.4441
16485TIP3    H170870   2.611   4.575   2.468 -0.4632  0.3184  0.5726
16485TIP3    H270871   2.617   4.688   2.368 -0.4133  0.3059  0.5614
16486TIP3   OH270872   4.867   0.312  16.273 -0.5885  0.4646  0.1140
16486TIP3    H170873   4.919   0.292  16.195 -1.0937 -1.0165  0.1203
16486TIP3    H270874   4.838   0.402  16.260  0.9229  0.9005 -0.4796
16487TIP3   OH270875   2.262   1.863  16.296  0.2460 -0.4986  0.4735
16487TIP3    H170876   2.292   1.951  16.318 -1.4925  0.1213  0.5079
16487TIP3    H270877   2.175   1.857  16.336 -0.4822 -1.5174 -1.1795
16488TIP3   OH270878   1.209   3.257   1.180  0.1087  0.2939  0.0931
16488TIP3    H170879   1.284   3.214   1.221  1.2809  2.4360  0.3241
16488TIP3    H270880   1.173   3.191   1.121  0.9885 -1.4155  1.3800
16489TIP3   OH270881   0.776   0.229  12.966 -0.0233 -0.3254 -0.5643
16489TIP3    H170882   0.786   0.186  12.881 -0.4345 -0.3413 -0.6095
16489TIP3    H270883   0.699   0.187  13.005 -0.0477 -0.0733 -0.3348
16490TIP3   OH270884   4.775   2.636   3.542  0.2005  0.5417 -0.4004
16490TIP3    H170885   4.775   2.542   3.556  2.0210  0.6719  0.6718
16490TIP3    H270886   4.848   2.669   3.594 -0.1809  2.5142 -1.0185
16491TIP3   OH270887   4.026   6.428  12.295  0.6151 -0.3934 -0.1003
16491TIP3    H170888   4.074   6.486  12.354 -0.2337 -1.6359  1.9426
16491TIP3    H270889   3.934   6.456  12.305  0.4741 -0.5493 -0.9354
16492TIP3   OH270890   2.700   4.147   0.864 -0.6677  0.2419  0.2735
16492TIP3    H170891   2.695   4.052   0.871  0.2912  0.0950 -0.7311
16492TIP3    H270892   2.674   4.179   0.951 -0.3066 -0.9548  0.8429
16493TIP3   OH270893   3.919   2.701   5.362 -0.1648  0.1094 -0.2279
16493TIP3    H170894   3.971   2.743   5.430  1.0049  1.1848 -1.6912
16493TIP3    H270895   3.843   2.759   5.350 -0.6430 -0.3540  0.4785
16494TIP3   OH270896   6.624   5.741  16.743 -0.8017 -0.2375 -0.2024
16494TIP3    H170897   6.706   5.702  16.774 -0.8214 -0.5103 -0.4883
16494TIP3    H270898   6.556   5.698  16.796 -0.7924 -0.3012 -0.2424
16495TIP3   OH270899   5.545   1.345  13.452  0.2086 -0.2658 -0.3570
16495TIP3    H170900   5.628   1.297  13.445 -0.2563 -1.1318 -0.0914
16495TIP3    H270901   5.538   1.393  13.369  0.0450 -1.7387 -1.2336
16496TIP3   OH270902   2.162   2.087  12.447 -0.3142  0.3314  0.1567
16496TIP3    H170903   2.138   2.064  12.537  0.1104 -0.3381  0.1026
16496TIP3    H270904   2.249   2.126  12.455 -0.0680 -0.1750 -0.0160
16497TIP3   OH270905   2.797   1.084  15.031 -0.1573  0.0416  0.6431
16497TIP3    H170906   2.817   1.134  15.110  0.3884 -0.2448  0.6915
16497TIP3    H270907   2.715   1.122  14.998 -0.6293 -0.1370  1.5840
16498TIP3   OH270908   3.440   2.396   5.303  0.0487  0.6986  0.6744
16498TIP3    H170909   3.498   2.385   5.378 -0.1484 -0.7352  0.6551
16498TIP3    H270910   3.379   2.322   5.309 -0.8496  1.3427 -0.1230
16499TIP3   OH270911   4.643   6.099   3.816 -0.5956  0.6628  0.0598
16499TIP3    H170912   4.693   6.162   3.867  2.5694 -0.8302 -0.9748
16499TIP3    H270913   4.622   6.145   3.734  0.5582  0.8230 -0.1621
16500TIP3   OH270914   4.511   2.796  17.168  0.3289 -0.2704  0.3912
16500TIP3    H170915   4.505   2.826  17.078 -0.9705 -1.0557  0.1868
16500TIP3    H270916   4.601   2.765  17.178  0.2621 -0.9333 -0.8828
16501TIP3   OH270917   1.547   3.462   1.895  0.1313  0.1789 -1.0193
16501TIP3    H170918   1.529   3.414   1.814 -0.7430  0.5819 -1.0779
16501TIP3    H270919   1.472   3.520   1.906  1.2009  1.6236 -1.0063
16502TIP3   OH270920   6.547   0.586   4.315  0.1028  0.0926  0.6317
16502TIP3    H170921   6.484   0.544   4.257  0.0967  0.1490  0.5976
16502TIP3    H270922   6.629   0.539   4.300  0.1282  0.1800  0.4943
16503TIP3   OH270923   3.496   4.209  15.338  0.6206  0.2599  0.3585
16503TIP3    H170924   3.522   4.266  15.411  2.6884  2.1376 -1.6671
16503TIP3    H270925   3.452   4.267  15.276 -3.5284 -1.7869  1.0513
16504TIP3   OH270926   5.898   2.669  14.739  0.2354  0.0998  0.1495
16504TIP3    H170927   5.920   2.624  14.657  2.0325 -1.5033  1.4472
16504TIP3    H270928   5.969   2.732  14.751  1.0387 -1.0049  1.3999
16505TIP3   OH270929   0.516   1.978   4.656  0.0381  0.1543  0.8986
16505TIP3    H170930   0.422   1.978   4.676  0.1541  0.8902  1.5086
16505TIP3    H270931   0.543   1.887   4.668 -0.7720 -0.2522 -0.2097
16506TIP3   OH270932   0.489   5.601   2.727 -0.1587 -0.4354  1.3204
16506TIP3    H170933   0.405   5.601   2.680  0.4141 -1.1438  0.2610
16506TIP3    H270934   0.486   5.680   2.781  0.1236  1.7252 -1.6262
16507TIP3   OH270935   5.935   1.749   4.646 -0.1422  0.2155 -0.0239
16507TIP3    H170936   5.990   1.724   4.572 -0.0747  0.3807 -0.0291
16507TIP3    H270937   5.996   1.777   4.714 -0.1743 -0.5008  0.3088
16508TIP3   OH270938   5.483   4.956  11.450 -0.0351 -0.0739 -0.0200
16508TIP3    H170939   5.514   5.003  11.372  0.0280  0.3408  0.2510
16508TIP3    H270940   5.390   4.977  11.454  0.3466  1.5900  1.1566
16509TIP3   OH270941   4.712   5.129   1.097  1.0496  0.2646 -0.1038
16509TIP3    H170942   4.734   5.218   1.122  0.6854  0.6306 -1.0404
16509TIP3    H270943   4.663   5.138   1.015  0.0399 -0.7092  0.3548
16510TIP3   OH270944   3.699   6.652  13.904 -0.1258  0.1065  0.5515
16510TIP3    H170945   3.625   6.700  13.942 -1.3516 -0.6161 -0.8269
16510TIP3    H270946   3.776   6.689  13.948 -1.2870  0.8016  2.1162
16511TIP3   OH270947   3.673   0.815  13.537 -0.1550 -0.4982 -0.4216
16511TIP3    H170948   3.607   0.747  13.544 -0.0080 -0.6486 -0.5135
16511TIP3    H270949   3.709   0.807  13.449 -0.3257 -0.1294 -0.5281
16512TIP3   OH270950   2.048   5.828   0.904 -0.1490  0.0078  0.1922
16512TIP3    H170951   2.030   5.853   0.995 -0.1553 -2.1186  0.8453
16512TIP3    H270952   2.044   5.732   0.905  2.4558 -0.2264 -1.4771
16513TIP3   OH270953   1.061   5.909   5.016  0.4153 -0.6650  0.0678
16513TIP3    H170954   1.005   5.833   4.998 -1.1293  0.5000 -0.2709
16513TIP3    H270955   1.141   5.892   4.966 -0.1957 -1.7243 -0.6002
16514TIP3   OH270956   4.036   0.988   4.684  0.1992 -0.2201  0.2209
16514TIP3    H170957   4.058   1.054   4.750  0.1547  0.8242 -0.7823
16514TIP3    H270958   4.028   1.037   4.603 -3.7297 -0.8171  0.0674
16515TIP3   OH270959   4.357   2.113  13.890 -0.0022  0.5071 -0.0423
16515TIP3    H170960   4.296   2.116  13.964 -0.1996  0.7113 -0.2082
16515TIP3    H270961   4.409   2.035  13.904 -0.1976  0.4179  0.1893
16516TIP3   OH270962   0.069   6.304  14.785 -0.3056  0.0662 -0.5178
16516TIP3    H170963   0.086   6.210  14.793 -0.6282 -0.0374 -1.0072
16516TIP3    H270964  -0.011   6.318  14.835 -0.1219  0.1266 -0.2379
16517TIP3   OH270965   0.069   6.259  17.113 -0.1905 -0.1860 -0.2728
16517TIP3    H170966   0.048   6.245  17.021  0.4944  1.3189 -0.6958
16517TIP3    H270967   0.102   6.174  17.143 -0.8171 -0.8089 -1.2951
16518TIP3   OH270968   5.550   0.061  12.960  0.6143  0.5891 -0.3181
16518TIP3    H170969   5.489   0.099  12.897  0.1435 -0.7445 -0.6990
16518TIP3    H270970   5.572  -0.025  12.924  2.1968  0.7615  0.1570
16519TIP3   OH270971   4.459   5.858  13.510 -0.2865  0.3125 -0.2023
16519TIP3    H170972   4.481   5.777  13.556  1.4813  0.7294 -0.2504
16519TIP3    H270973   4.532   5.917  13.529 -0.3699  1.0984 -2.0988
16520TIP3   OH270974   2.815   0.322   1.457  0.8477  0.2464 -0.4012
16520TIP3    H170975   2.904   0.355   1.454  0.5740  0.9510 -2.2257
16520TIP3    H270976   2.795   0.297   1.366 -0.3130 -1.2785  0.2253
16521TIP3   OH270977   2.949   2.286  12.786 -0.0740  0.2047 -0.0988
16521TIP3    H170978   2.943   2.209  12.730  2.2790 -0.3392  0.2809
16521TIP3    H270979   3.036   2.322  12.769  0.0760  0.9928  1.9573
16522TIP3   OH270980   4.371   1.133   0.195  0.3947 -0.0406 -0.0792
16522TIP3    H170981   4.299   1.072   0.205  1.0040 -0.5968  1.0049
16522TIP3    H270982   4.378   1.177   0.279  0.2776  1.1925 -0.6897
16523TIP3   OH270983   3.998   1.425  17.080  0.0314 -0.2770  0.3512
16523TIP3    H170984   4.077   1.392  17.123  2.3023  3.5193 -0.4581
16523TIP3    H270985   4.014   1.409  16.986  0.6672  1.8506  0.0504
16524TIP3   OH270986   4.225   5.250  15.766  0.1161 -0.1320  0.0680
16524TIP3    H170987   4.171   5.174  15.789  1.0878  0.1307  3.8768
16524TIP3    H270988   4.191   5.320  15.821  2.5601  0.7333  0.6033
16525TIP3   OH270989   4.639   3.099   3.118  0.3584  0.5208 -0.0640
16525TIP3    H170990   4.695   3.172   3.090 -0.4361  1.1414 -0.0869
16525TIP3    H270991   4.616   3.054   3.037  0.4356  0.5503 -0.1028
16526TIP3   OH270992   2.296   5.943  17.100 -0.0978 -0.1232 -0.3735
16526TIP3    H170993   2.306   5.937  17.005 -1.4887 -1.2108 -0.4771
16526TIP3    H270994   2.203   5.930  17.115 -0.0800  1.1681  1.0817
16527TIP3   OH270995   6.694   5.415  10.703 -0.9620 -0.4824  0.3879
16527TIP3    H170996   6.693   5.510  10.712  0.1249 -0.6095  2.7658
16527TIP3    H270997   6.781   5.396  10.668 -0.8546 -0.6310  0.7308
16528TIP3   OH270998   2.286   1.536   1.919  0.3990 -0.2469  0.0871
16528TIP3    H170999   2.257   1.599   1.853  0.4417 -1.1872 -0.8453
16528TIP3    H271000   2.381   1.543   1.920  0.3598  0.2699  0.5646
16529TIP3   OH271001   5.559   5.887   5.753 -0.2753 -0.4192 -0.1794
16529TIP3    H171002   5.494   5.921   5.691  0.6401 -0.6850 -1.3228
16529TIP3    H271003   5.513   5.884   5.837 -0.3887  3.8863  0.1589
16530TIP3   OH271004   5.065   0.216   3.969 -0.5370 -0.3111 -0.1373
16530TIP3    H171005   5.133   0.267   3.927 -1.3587 -0.3507 -1.5563
16530TIP3    H271006   5.060   0.135   3.918 -0.8559 -0.8238  0.6685
16531TIP3   OH271007   3.947   6.010  17.159 -0.7431 -0.3751  0.0173
16531TIP3    H171008   3.929   5.930  17.208 -0.4863 -0.6276 -0.2920
16531TIP3    H271009   4.034   6.037  17.188 -0.1743 -1.0539 -0.9738
16532TIP3   OH271010   0.403   2.980   4.505  0.2135 -0.3791  0.1696
16532TIP3    H171011   0.388   3.016   4.592 -1.0414  0.6162 -0.4337
16532TIP3    H271012   0.494   3.004   4.485  0.0570  0.6372  0.6304
16533TIP3   OH271013   5.738   5.469   3.903 -0.1523  0.5751 -0.3776
16533TIP3    H171014   5.733   5.440   3.994  0.2249  0.3141 -0.4387
16533TIP3    H271015   5.670   5.536   3.895  1.9183  2.9689  0.9377
16534TIP3   OH271016   3.908   6.614  17.402  0.0914  0.7311  0.1060
16534TIP3    H171017   3.852   6.645  17.473 -0.1810  0.6148 -0.0556
16534TIP3    H271018   3.872   6.655  17.323 -1.3695 -1.3046 -0.3778
16535TIP3   OH271019   5.671   3.661   0.853  0.1454  0.8107  0.1004
16535TIP3    H171020   5.718   3.723   0.908  0.2637  1.1469 -0.3812
16535TIP3    H271021   5.723   3.655   0.773 -0.9333  1.6419 -0.6920
16536TIP3   OH271022   1.438   6.158  16.927  0.3953 -0.2672  0.5034
16536TIP3    H171023   1.423   6.248  16.956 -0.6550  0.0523 -0.9134
16536TIP3    H271024   1.360   6.136  16.876  0.6781 -1.9550  0.7340
16537TIP3   OH271025   5.646   2.835   3.639  0.5431  0.1283  0.4704
16537TIP3    H171026   5.683   2.747   3.644 -0.0199 -0.1276  0.1154
16537TIP3    H271027   5.688   2.875   3.563 -1.1343 -0.7497 -0.9789
16538TIP3   OH271028   4.288   4.484   1.223  0.2381  0.2438 -0.8782
16538TIP3    H171029   4.270   4.577   1.218  0.3142  0.2044 -2.2214
16538TIP3    H271030   4.327   4.462   1.139 -0.8807 -1.2452 -1.0504
16539TIP3   OH271031   0.337   2.366  14.367  0.2126 -0.0856  0.4621
16539TIP3    H171032   0.378   2.440  14.323  0.2258  0.0277  0.6632
16539TIP3    H271033   0.319   2.397  14.456  1.5045 -0.7651  0.9874
16540TIP3   OH271034   1.174   6.663  12.597 -0.0799  0.2910 -0.9792
16540TIP3    H171035   1.180   6.577  12.556 -2.1151 -0.9951  1.1627
16540TIP3    H271036   1.226   6.655  12.677  1.5464  1.8561 -1.7944
16541TIP3   OH271037   4.088   4.834   6.830  0.1891  0.0712  0.1417
16541TIP3    H171038   4.159   4.875   6.881  0.1456 -1.3739  1.4690
16541TIP3    H271039   4.134   4.780   6.765  0.2461  2.2397 -1.7174
16542TIP3   OH271040   6.210   0.850   3.610  0.0847 -0.2244  0.3377
16542TIP3    H171041   6.172   0.921   3.661 -3.3084  0.6662 -2.9320
16542TIP3    H271042   6.240   0.891   3.529  1.6304 -2.0367 -0.0909
16543TIP3   OH271043   4.938   4.411   4.658  0.1207  0.1180 -0.0541
16543TIP3    H171044   4.904   4.482   4.603  0.6820  0.7142  0.3615
16543TIP3    H271045   4.869   4.397   4.724 -0.6333 -0.7184 -0.9829
16544TIP3   OH271046   1.868   5.170  17.148 -0.1839  0.0337  0.3167
16544TIP3    H171047   1.920   5.203  17.221 -0.7189 -1.3534  1.3880
16544TIP3    H271048   1.802   5.114  17.190 -0.0757 -1.3599 -1.2795
16545TIP3   OH271049   4.486   1.484   0.163  0.2088 -0.0606  0.6226
16545TIP3    H171050   4.552   1.547   0.133 -0.7365  1.0772  0.8097
16545TIP3    H271051   4.432   1.469   0.085  0.5607 -0.8193  0.5243
16546TIP3   OH271052   3.663   5.538  17.308  0.0445  0.2176  0.6833
16546TIP3    H171053   3.579   5.583  17.318  0.5451  1.3721 -0.1283
16546TIP3    H271054   3.640   5.453  17.269 -0.8117  0.1766  1.2334
16547TIP3   OH271055   4.859   0.102   2.870  0.3399  0.1444 -0.4082
16547TIP3    H171056   4.764   0.105   2.877  0.4307  0.3689  1.0831
16547TIP3    H271057   4.890   0.170   2.929  1.4223  0.7146 -1.5879
16548TIP3   OH271058   5.370   5.365   0.990  0.5183 -0.2934 -0.1018
16548TIP3    H171059   5.385   5.284   1.037  1.8220  1.4967  2.8263
16548TIP3    H271060   5.342   5.337   0.902  2.3958 -3.8545  0.2523
16549TIP3   OH271061   1.833   0.509   4.929 -0.8646 -0.2692 -0.5080
16549TIP3    H171062   1.893   0.553   4.870  0.4034  0.4661  1.2434
16549TIP3    H271063   1.882   0.433   4.962 -0.8605  0.3126  0.9021
16550TIP3   OH271064   2.251   4.671   0.323 -0.2939 -0.4501  0.5485
16550TIP3    H171065   2.222   4.651   0.234  0.1773  1.1013  0.0200
16550TIP3    H271066   2.328   4.727   0.312 -0.3382 -0.0680  1.9232
16551TIP3   OH271067   6.073   4.670   1.835  0.5408 -0.9383 -0.2697
16551TIP3    H171068   6.092   4.579   1.856  1.9823 -0.3705  1.1424
16551TIP3    H271069   6.096   4.718   1.914  1.0897  0.7914 -1.4173
16552TIP3   OH271070   0.233   3.881  16.261  0.0825  0.4563 -0.0634
16552TIP3    H171071   0.227   3.787  16.241  1.0156  0.9318 -3.2836
16552TIP3    H271072   0.293   3.915  16.194  0.0643  3.3116  1.2329
16553TIP3   OH271073   2.105   3.319   4.465  0.4510  0.2420  0.5042
16553TIP3    H171074   2.051   3.357   4.396  1.0758 -0.5093 -0.4192
16553TIP3    H271075   2.082   3.369   4.543  0.1563  1.5099 -0.3544
16554TIP3   OH271076   3.709   4.385   0.646  0.1223 -0.1470 -0.1238
16554TIP3    H171077   3.803   4.369   0.639 -0.0987 -1.0886 -1.2708
16554TIP3    H271078   3.683   4.417   0.559 -0.3703  1.5892  0.6146
16555TIP3   OH271079   4.980   3.798   0.522  0.2281 -0.0154 -0.3459
16555TIP3    H171080   5.064   3.827   0.557 -0.2444  0.8164  0.1485
16555TIP3    H271081   4.938   3.878   0.491  0.6309 -0.7202 -2.9276
16556TIP3   OH271082   0.176   0.068  11.323 -0.3745  0.1487 -0.4605
16556TIP3    H171083   0.225   0.092  11.245 -1.3805  0.2584 -1.0639
16556TIP3    H271084   0.206   0.129  11.390 -0.4363  0.8769 -1.0903
16557TIP3   OH271085   2.792   3.887   5.089 -0.3246  0.3717 -0.3966
16557TIP3    H171086   2.736   3.958   5.120  0.5490  1.8938 -2.0586
16557TIP3    H271087   2.844   3.927   5.019  1.2659 -1.5486 -0.3989
16558TIP3   OH271088   3.710   2.901   0.406  0.3125 -0.7440 -0.2164
16558TIP3    H171089   3.675   2.814   0.424 -0.2673 -0.5339 -0.3181
16558TIP3    H271090   3.670   2.927   0.324  0.0388 -0.1474  0.0984
16559TIP3   OH271091   3.571   2.595  11.249 -0.3293  0.4962 -0.1735
16559TIP3    H171092   3.638   2.652  11.288 -0.6630  1.0382 -0.3840
16559TIP3    H271093   3.621   2.532  11.198  0.0469  0.6235  0.0287
16560TIP3   OH271094   1.094   1.082  12.076 -0.0730 -0.6033  0.2882
16560TIP3    H171095   1.187   1.069  12.095  0.5553 -0.2344 -2.2050
16560TIP3    H271096   1.048   1.021  12.134  1.6921 -0.6710  1.6799
16561TIP3   OH271097   5.991   0.735   4.161  0.6781  0.2104  0.5624
16561TIP3    H171098   6.067   0.685   4.131 -0.4167 -1.9694  1.2539
16561TIP3    H271099   6.029   0.816   4.196  2.4452  0.2949 -1.3410
16562TIP3   OH271100   4.644   1.353  11.996  0.7207  0.0502 -0.9166
16562TIP3    H171101   4.691   1.277  11.962 -0.8020 -0.1032 -2.8883
16562TIP3    H271102   4.672   1.426  11.940 -0.5796  0.1402 -1.5108
16563TIP3   OH271103   5.568   1.786   0.030 -0.7078 -0.1733 -0.0573
16563TIP3    H171104   5.567   1.694   0.003 -1.5964  0.1088 -1.0387
16563TIP3    H271105   5.477   1.813   0.027 -0.4572  0.7399  0.2582
16564TIP3   OH271106   6.296   0.914   4.671 -0.5681  0.1374  0.2068
16564TIP3    H171107   6.309   0.826   4.705 -1.0905  0.5522  1.5623
16564TIP3    H271108   6.313   0.971   4.746 -0.6947  1.1742 -0.5255
16565TIP3   OH271109   2.523   1.220   3.012 -0.6121  0.1491 -0.0540
16565TIP3    H171110   2.506   1.128   3.033 -0.7091  0.0425 -0.5870
16565TIP3    H271111   2.523   1.223   2.917 -1.6339  0.8855 -0.0458
16566TIP3   OH271112   5.192   4.958   1.582  0.3622 -0.2607  0.0360
16566TIP3    H171113   5.248   4.965   1.659 -0.1639 -0.4107  0.4380
16566TIP3    H271114   5.163   5.048   1.565  0.4598 -0.2313  0.0235
16567TIP3   OH271115   0.178   1.123  16.986  0.2211 -0.5587 -0.2043
16567TIP3    H171116   0.257   1.171  16.962  0.1259 -0.3770 -0.1578
16567TIP3    H271117   0.111   1.191  16.996 -0.1817 -0.7942 -1.2043
16568TIP3   OH271118   5.867   0.603  16.502  0.2594  0.0639 -0.6360
16568TIP3    H171119   5.882   0.664  16.429  0.1774 -1.3149 -1.8374
16568TIP3    H271120   5.922   0.528  16.482 -0.4597 -0.7146  0.2594
16569TIP3   OH271121   1.665   0.822  17.124 -0.9550 -0.1094 -1.1304
16569TIP3    H171122   1.626   0.879  17.189  0.7918 -0.8582  0.6898
16569TIP3    H271123   1.658   0.870  17.041 -3.1464  0.9039 -0.4009
16570TIP3   OH271124   5.613   2.892   4.434  0.3235  0.1692 -0.7189
16570TIP3    H171125   5.563   2.973   4.430  0.0844  0.0549 -0.2188
16570TIP3    H271126   5.551   2.823   4.410 -0.2483 -0.1547  1.4383
16571TIP3   OH271127   5.044   0.072   4.863 -0.2537 -0.2439 -0.3538
16571TIP3    H171128   4.973   0.087   4.801 -0.3632 -0.7156 -0.3499
16571TIP3    H271129   5.012   0.002   4.920 -0.0509  0.0085  0.0720
16572TIP3   OH271130   2.729   5.712   4.524 -0.1591  0.2291  0.9169
16572TIP3    H171131   2.790   5.679   4.590  0.8356  1.0960  0.4492
16572TIP3    H271132   2.784   5.756   4.459 -1.1640 -0.1170 -0.2158
16573TIP3   OH271133   2.818   0.866  13.887 -0.7142 -0.0553 -0.0795
16573TIP3    H171134   2.811   0.779  13.928 -0.0974  0.4935  1.2443
16573TIP3    H271135   2.897   0.904  13.925 -1.8531  1.7301  0.6145
16574TIP3   OH271136   5.352   2.348   3.377 -0.4801  0.5850 -0.0808
16574TIP3    H171137   5.391   2.350   3.464 -2.4584  1.0112  0.8348
16574TIP3    H271138   5.427   2.359   3.317  1.2078 -1.7211  1.4064
16575TIP3   OH271139   0.124   1.384  17.022 -0.3990 -0.3104 -0.0398
16575TIP3    H171140   0.064   1.388  17.097 -2.2107 -4.3475 -0.9925
16575TIP3    H271141   0.201   1.435  17.050 -1.5897 -0.3318  3.8958
16576TIP3   OH271142   4.531   1.248   3.913  0.1497 -0.6035 -0.4325
16576TIP3    H171143   4.616   1.220   3.947  2.0208  2.9971 -1.6002
16576TIP3    H271144   4.551   1.298   3.834 -3.2711 -0.9800 -1.7491
16577TIP3   OH271145   1.074   3.938  15.305  0.6439  0.2328  0.3410
16577TIP3    H171146   1.038   3.887  15.232  1.4240 -1.2626  0.9489
16577TIP3    H271147   1.164   3.956  15.279  1.0805 -0.7396  1.1227
16578TIP3   OH271148   5.501   0.359  16.389 -0.0825  0.7957  0.2262
16578TIP3    H171149   5.446   0.303  16.335  1.1206  1.0729 -1.3385
16578TIP3    H271150   5.582   0.370  16.339  1.3874  0.4978  2.4005
16579TIP3   OH271151   6.711   6.498   0.548  0.0110 -0.6166 -0.4208
16579TIP3    H171152   6.646   6.450   0.599  0.4052 -0.2063  0.4983
16579TIP3    H271153   6.718   6.582   0.592  3.6245 -1.7981  1.7087
16580TIP3   OH271154   2.449   0.633   1.865 -0.4722 -0.3317  0.3056
16580TIP3    H171155   2.485   0.581   1.937 -0.7522  0.6168  1.1694
16580TIP3    H271156   2.355   0.619   1.870 -0.8453  2.0593  2.1317
16581TIP3   OH271157   5.874   1.455   3.909 -0.5020  0.2269 -0.0557
16581TIP3    H171158   5.797   1.398   3.920 -1.1673  0.8469 -1.2430
16581TIP3    H271159   5.837   1.542   3.896  0.2529  0.2773 -2.4571
16582TIP3   OH271160   6.695   1.419  12.372  0.2145 -0.1928 -0.6287
16582TIP3    H171161   6.762   1.393  12.309  1.6414 -1.2999  1.2327
16582TIP3    H271162   6.640   1.342  12.382 -0.1054  0.0323 -0.6220
16583TIP3   OH271163   4.373   0.286  10.945 -0.4409  0.2413 -0.3554
16583TIP3    H171164   4.299   0.275  11.005  1.2826 -1.3116  1.6415
16583TIP3    H271165   4.419   0.364  10.978  0.3054 -0.4000  0.1642
16584TIP3   OH271166   4.287   0.938  13.697 -0.2808  0.1458 -0.2059
16584TIP3    H171167   4.303   1.032  13.709 -1.5246  0.5456 -1.4209
16584TIP3    H271168   4.373   0.898  13.708  0.2519  1.4071  0.4719
16585TIP3   OH271169   4.965   6.223  17.221 -0.0115  0.1248 -0.8052
16585TIP3    H171170   4.958   6.315  17.248  1.0184 -0.6077  2.4232
16585TIP3    H271171   5.045   6.219  17.169 -0.2133  1.0845 -1.2085
16586TIP3   OH271172   5.177   4.039  17.150 -0.1725 -0.0584  0.1202
16586TIP3    H171173   5.175   3.964  17.090 -1.0622  0.4201 -0.4661
16586TIP3    H271174   5.234   4.103  17.106 -1.5908  0.6807 -0.7308
16587TIP3   OH271175   0.762   4.687  12.697  0.6559 -0.0682 -0.1343
16587TIP3    H171176   0.842   4.737  12.709 -0.2826  1.7494 -0.9777
16587TIP3    H271177   0.780   4.630  12.623  0.9372  0.8986 -0.8296
16588TIP3   OH271178   2.892   2.957  14.125 -0.4706 -0.1470  0.6241
16588TIP3    H171179   2.928   2.869  14.115 -0.9912 -0.2314 -0.7610
16588TIP3    H271180   2.848   2.955  14.210 -0.6925 -1.3097  0.5012
16589TIP3   OH271181   4.560   3.834   1.362 -0.3527 -0.0362 -0.2105
16589TIP3    H171182   4.500   3.844   1.288 -1.5260  1.4091  0.8533
16589TIP3    H271183   4.638   3.883   1.336  0.1483 -1.3861 -1.3510
16590TIP3   OH271184   5.569   4.967  15.539  0.2589  0.2303 -0.4396
16590TIP3    H171185   5.513   5.028  15.587 -0.9010 -1.8272  0.9632
16590TIP3    H271186   5.634   4.939  15.603  0.7897 -0.0062 -1.0691
16591TIP3   OH271187   1.878   2.183   1.530  0.4233  0.0936  0.1306
16591TIP3    H171188   1.850   2.139   1.611  0.7220  1.4161  0.9760
16591TIP3    H271189   1.947   2.127   1.495 -0.7723 -1.3134 -0.0527
16592TIP3   OH271190   6.326   4.578   3.254 -0.0234  0.2407  0.1779
16592TIP3    H171191   6.312   4.539   3.168 -0.5568 -2.6704  1.4859
16592TIP3    H271192   6.392   4.646   3.238  2.0896 -2.0867 -2.0775
16593TIP3   OH271193   1.916   0.903   2.635  0.6082  0.0104 -0.3230
16593TIP3    H171194   1.924   0.992   2.670 -1.6721 -0.4185  1.4418
16593TIP3    H271195   1.983   0.853   2.681  0.2663  0.3148  0.5307
16594TIP3   OH271196   1.547   0.840  15.146  0.2026  0.3016 -0.3121
16594TIP3    H171197   1.621   0.891  15.112 -0.3840  1.3367 -0.0779
16594TIP3    H271198   1.528   0.777  15.077  1.3057  0.0111 -0.3722
16595TIP3   OH271199   5.417   4.416   2.888 -0.3535  0.2111 -0.5160
16595TIP3    H171200   5.482   4.380   2.948 -0.9800  1.0264  0.6877
16595TIP3    H271201   5.464   4.427   2.806  1.2874  1.5983  0.5529
16596TIP3   OH271202   0.288   2.620  12.593  0.5491 -0.2736 -0.1269
16596TIP3    H171203   0.330   2.689  12.644  0.7709 -1.3267  1.1388
16596TIP3    H271204   0.198   2.651  12.580  0.6947  0.3224  0.2778
16597TIP3   OH271205   2.379   5.255   0.511  0.3804 -0.1677  0.1337
16597TIP3    H171206   2.304   5.219   0.463  0.0172 -1.0710  1.3300
16597TIP3    H271207   2.391   5.342   0.474 -2.4920  0.8006  1.1697
16598TIP3   OH271208   2.013   0.155   2.017 -0.1682  0.2985  0.3013
16598TIP3    H171209   1.988   0.245   1.997 -1.3232 -0.2165 -0.7167
16598TIP3    H271210   1.930   0.110   2.035  0.2285 -0.9103 -0.7164
16599TIP3   OH271211   1.751   3.960   1.320  0.0991 -0.6813 -0.3586
16599TIP3    H171212   1.671   3.910   1.329 -1.3482  1.5549  0.0615
16599TIP3    H271213   1.766   3.998   1.407  0.3722  0.6553 -0.9533
16600TIP3   OH271214   0.663   3.569   1.522  0.3525 -0.1445  0.0254
16600TIP3    H171215   0.731   3.597   1.462  1.3650  0.9979  1.6266
16600TIP3    H271216   0.638   3.482   1.491  3.3410 -1.1083  0.0245
16601TIP3   OH271217   0.553   4.863  17.195 -0.2279 -0.9682  0.2903
16601TIP3    H171218   0.612   4.869  17.270 -0.6556  1.0576  0.5274
16601TIP3    H271219   0.536   4.954  17.170 -2.8110 -1.4605 -0.1019
16602TIP3   OH271220   3.991   2.004   0.095 -0.4015  0.3818  0.4002
16602TIP3    H171221   4.015   2.032   0.183  0.4834 -0.4046  0.4286
16602TIP3    H271222   4.049   2.054   0.038 -0.9276  0.8409  0.2663
16603TIP3   OH271223   0.603   2.080  12.265  0.4466  0.8469  0.5637
16603TIP3    H171224   0.697   2.095  12.267  0.4008  1.0456  1.3432
16603TIP3    H271225   0.587   2.043  12.178  0.9912  2.4489 -0.2798
16604TIP3   OH271226   6.505   6.552  15.390  0.0254 -0.0212 -0.1976
16604TIP3    H171227   6.534   6.607  15.317  1.1841 -0.8288 -0.3838
16604TIP3    H271228   6.579   6.493  15.406 -0.4830 -0.3301  1.1723
16605TIP3   OH271229   5.923   0.276  13.923  0.7531  0.2531 -0.4772
16605TIP3    H171230   5.844   0.240  13.883  1.6668  0.1961 -2.3525
16605TIP3    H271231   5.950   0.210  13.987 -1.3810  0.8577  1.1506
16606TIP3   OH271232   2.553   5.466   5.273  0.5595 -0.0786  0.2378
16606TIP3    H171233   2.624   5.430   5.219  0.0098 -0.8334  0.0030
16606TIP3    H271234   2.572   5.560   5.278  1.9067 -0.3540  0.6889
16607TIP3   OH271235   5.842   5.439   5.861  0.3247  0.0856  0.0450
16607TIP3    H171236   5.793   5.364   5.895 -0.7223  1.2913  1.3254
16607TIP3    H271237   5.873   5.410   5.775 -0.2583 -1.7117  0.3869
16608TIP3   OH271238   1.864   1.673   5.014  0.1713  0.1606  0.3876
16608TIP3    H171239   1.820   1.707   4.936 -2.2282  0.1433  1.6419
16608TIP3    H271240   1.946   1.723   5.019 -0.8439  2.0457 -0.6920
16609TIP3   OH271241   3.386   2.706   0.306 -0.2502 -0.1548  0.2248
16609TIP3    H171242   3.372   2.800   0.292 -0.7846 -0.1865  0.5409
16609TIP3    H271243   3.448   2.702   0.379  1.6759 -0.0106 -1.3053
16610TIP3   OH271244   1.299   0.464   0.287 -0.1443  0.4976  0.4382
16610TIP3    H171245   1.304   0.403   0.213 -1.1295 -0.1545  0.8766
16610TIP3    H271246   1.243   0.534   0.256  0.9342  1.1778 -0.0431
16611TIP3   OH271247   4.976   2.506   6.802  0.1152 -0.2919  0.2877
16611TIP3    H171248   5.028   2.578   6.838  0.5474 -0.8763  0.8651
16611TIP3    H271249   5.038   2.457   6.747 -0.4229  0.3258 -0.8968
16612TIP3   OH271250   4.760   6.159   4.311 -0.2461 -0.4460 -0.0121
16612TIP3    H171251   4.693   6.202   4.257  1.5851  1.9290 -0.5618
16612TIP3    H271252   4.756   6.206   4.394  2.2035  1.4174 -0.8284
16613TIP3   OH271253   4.522   1.076   3.685 -0.1249 -0.1239  0.4939
16613TIP3    H171254   4.501   1.048   3.775 -2.0635 -0.1603  0.0627
16613TIP3    H271255   4.455   1.142   3.664  0.6970  0.3585 -0.7109
16614TIP3   OH271256   2.811   4.426  12.926 -0.5041 -0.1873 -0.2152
16614TIP3    H171257   2.860   4.449  13.005 -1.4019  0.3122  0.2195
16614TIP3    H271258   2.873   4.377  12.872 -0.2439 -1.7105  1.3704
16615TIP3   OH271259   4.297   1.277   2.027 -0.4088  0.3397  0.0325
16615TIP3    H171260   4.346   1.328   1.963 -0.1770  0.5903  0.4077
16615TIP3    H271261   4.209   1.271   1.990 -0.0312 -0.3983 -0.8078
16616TIP3   OH271262   2.870   6.688   5.917  0.0756  0.1165  0.1263
16616TIP3    H171263   2.830   6.709   6.001 -2.5466  0.6981 -1.1490
16616TIP3    H271264   2.869   6.593   5.912  1.7201  0.0019  1.3573
16617TIP3   OH271265   5.553   3.705  12.154 -0.4816  0.0662  0.3592
16617TIP3    H171266   5.539   3.623  12.106  0.6212  0.7816 -1.2444
16617TIP3    H271267   5.641   3.696  12.191 -0.5746  0.3145  0.6493
16618TIP3   OH271268   5.848   5.598   1.797  0.0116 -0.3945 -0.1323
16618TIP3    H171269   5.899   5.624   1.874  0.4735 -0.8214 -0.2967
16618TIP3    H271270   5.795   5.525   1.828  0.7478 -1.0552 -0.4183
16619TIP3   OH271271   2.430   4.129  16.159  0.2577 -0.0408  0.4850
16619TIP3    H171272   2.446   4.060  16.094  2.0214  1.4462 -0.7565
16619TIP3    H271273   2.487   4.105  16.232 -1.6479 -1.6556  1.5608
16620TIP3   OH271274   6.722   2.655   1.494 -0.2250  0.5638  0.1109
16620TIP3    H171275   6.660   2.603   1.442 -0.3759  1.7463 -0.9389
16620TIP3    H271276   6.806   2.611   1.481 -0.7620 -0.9388  1.3831
16621TIP3   OH271277   4.552   4.342   4.166  0.0382 -0.4328  0.6995
16621TIP3    H171278   4.464   4.370   4.190  0.2490 -0.7332  1.8472
16621TIP3    H271279   4.595   4.422   4.135 -0.5043 -0.2145  0.4992
16622TIP3   OH271280   4.808   5.718  11.441 -0.6659 -0.5586 -0.2006
16622TIP3    H171281   4.854   5.775  11.379 -2.3012  2.0193  0.7682
16622TIP3    H271282   4.795   5.636  11.394  2.0425 -0.2826 -1.5988
16623TIP3   OH271283   2.444   2.863   2.646 -0.2094 -0.1387 -0.0975
16623TIP3    H171284   2.424   2.794   2.709  0.6250  0.6074  1.0361
16623TIP3    H271285   2.363   2.913   2.637 -0.6412 -0.9054 -0.4545
16624TIP3   OH271286   4.747   1.933  11.869  0.2151  0.5795  0.0329
16624TIP3    H171287   4.832   1.914  11.829 -0.2734 -0.4918 -0.5380
16624TIP3    H271288   4.710   2.002  11.814  0.6554  0.9614  0.2106
16625TIP3   OH271289   1.139   5.904   4.538  0.6163 -0.2419  0.5045
16625TIP3    H171290   1.227   5.940   4.548  0.2199  0.1436  3.4716
16625TIP3    H271291   1.152   5.809   4.538  1.0829 -0.1838  0.0485
16626TIP3   OH271292   1.257   5.904   6.303  0.1309  0.0603  0.7869
16626TIP3    H171293   1.282   5.881   6.213  1.0795 -0.0105  1.0655
16626TIP3    H271294   1.334   5.948   6.339 -0.0149 -0.4670  1.7743
16627TIP3   OH271295   5.304   5.754  11.373  0.0476  0.2728  0.2672
16627TIP3    H171296   5.255   5.672  11.370  1.8773 -0.8146 -0.9487
16627TIP3    H271297   5.348   5.760  11.288 -0.8514  3.0639 -0.1219
16628TIP3   OH271298   3.514   4.498   3.507  0.3119  0.4563 -0.5649
16628TIP3    H171299   3.437   4.446   3.528  0.6989 -0.7487 -1.9699
16628TIP3    H271300   3.573   4.485   3.581  0.2296 -0.7817 -0.7050
16629TIP3   OH271301   5.259   6.713   7.047 -0.3441 -0.0224  0.3870
16629TIP3    H171302   5.261   6.806   7.069 -1.6145  0.1875 -0.2594
16629TIP3    H271303   5.339   6.699   6.996  0.4549  0.4264  1.4770
16630TIP3   OH271304   2.565   6.744   1.927  0.1851 -0.4088  0.8135
16630TIP3    H171305   2.513   6.808   1.877 -0.9406 -1.9833 -0.1289
16630TIP3    H271306   2.650   6.742   1.883  0.6578  1.2602  1.5800
16631TIP3   OH271307   4.240   0.001   5.182 -0.4811  0.0721 -0.4737
16631TIP3    H171308   4.186  -0.003   5.261  0.1541 -1.1395 -0.0766
16631TIP3    H271309   4.186  -0.040   5.115 -0.8701  0.7610 -0.5974
16632TIP3   OH271310   3.840   5.515  13.575 -0.0742 -0.9001 -0.2231
16632TIP3    H171311   3.792   5.437  13.550  0.9397 -1.2167 -1.2435
16632TIP3    H271312   3.911   5.522  13.511  0.6790  0.0759  0.6760
16633TIP3   OH271313   3.995   3.264  16.967  0.4905 -0.0910 -0.1139
16633TIP3    H171314   3.916   3.216  16.945 -0.2627  1.4881 -0.9975
16633TIP3    H271315   3.965   3.337  17.021  1.3161  0.5881 -0.5503
16634TIP3   OH271316   4.343   3.019   2.070  0.0251 -0.5634  0.2932
16634TIP3    H171317   4.267   3.076   2.056  0.5129 -0.3375 -1.7561
16634TIP3    H271318   4.320   2.938   2.025  0.6722 -0.7749  0.3419
16635TIP3   OH271319   4.901   2.422  13.746  0.3253 -0.1072 -0.1137
16635TIP3    H171320   4.977   2.428  13.688  1.1902 -2.1169  0.7294
16635TIP3    H271321   4.913   2.496  13.807  1.2120  0.0387 -0.4427
16636TIP3   OH271322   3.187   2.806   5.881  0.0423  0.0231  0.3107
16636TIP3    H171323   3.214   2.885   5.927  0.5738  0.0431 -0.0262
16636TIP3    H271324   3.127   2.762   5.942  0.4796  0.2089  0.8878
16637TIP3   OH271325   4.295   4.869   3.075  0.0155  0.1339 -0.1552
16637TIP3    H171326   4.344   4.943   3.039  1.3528 -0.8888 -0.5471
16637TIP3    H271327   4.311   4.798   3.013 -0.8716 -0.6099  0.4469
16638TIP3   OH271328   6.577   5.736   3.642  0.2127 -0.0514  0.1580
16638TIP3    H171329   6.548   5.657   3.597 -1.0135 -0.5280  1.6799
16638TIP3    H271330   6.502   5.795   3.638 -0.2654 -0.4174  2.1830
16639TIP3   OH271331   0.149   6.713   1.094 -0.6870  0.2990  0.6513
16639TIP3    H171332   0.153   6.618   1.091  0.4594  0.3668 -1.6458
16639TIP3    H271333   0.055   6.733   1.101 -1.1994 -1.0051 -1.6328
16640TIP3   OH271334   3.468   3.730   1.754 -0.0620 -0.7279 -0.0123
16640TIP3    H171335   3.457   3.642   1.719  1.0992 -1.2296  0.8251
16640TIP3    H271336   3.563   3.743   1.757 -0.2246  0.6067 -0.2659
16641TIP3   OH271337   2.758   2.370   6.141 -0.7321 -0.1439 -0.4398
16641TIP3    H171338   2.699   2.298   6.160  1.0716 -1.8266 -0.8356
16641TIP3    H271339   2.811   2.379   6.220  0.3160 -0.5824 -1.0666
16642TIP3   OH271340   1.305   2.384   2.220  0.3406 -0.1692 -0.1211
16642TIP3    H171341   1.398   2.362   2.210  0.3432 -0.5794  0.7583
16642TIP3    H271342   1.287   2.442   2.146  1.5035  0.6059  0.1697
16643TIP3   OH271343   0.148   2.888  12.929  0.4699 -0.3450 -0.1192
16643TIP3    H171344   0.128   2.845  13.012 -0.9373 -0.9182 -0.7263
16643TIP3    H271345   0.123   2.979  12.942 -1.0540 -0.7019 -0.3026
16644TIP3   OH271346   6.042   5.549  13.404 -0.4929 -0.0435  0.3632
16644TIP3    H171347   5.974   5.547  13.471  0.1502  0.7282  1.0611
16644TIP3    H271348   6.103   5.617  13.432  0.8492 -1.0392  0.0353
16645TIP3   OH271349   3.670   3.700  13.940 -0.4469 -0.1388 -0.5124
16645TIP3    H171350   3.651   3.685  13.848 -1.1799 -2.0299 -0.0982
16645TIP3    H271351   3.592   3.668  13.986 -0.1391  0.8594  0.7683
16646TIP3   OH271352   0.026   6.181  16.099 -0.2268  0.1168  0.5782
16646TIP3    H171353   0.038   6.218  16.012 -0.1762 -1.5559 -0.1633
16646TIP3    H271354   0.110   6.141  16.121  0.0131  1.1888  1.7615
16647TIP3   OH271355   1.048   0.652   0.274  0.3462  0.4406  0.2042
16647TIP3    H171356   1.005   0.577   0.315 -1.0130  0.7827 -0.5369
16647TIP3    H271357   1.012   0.655   0.186  1.3045  1.2447 -0.1777
16648TIP3   OH271358   2.586   1.188   2.738  0.3302  0.2525 -0.1252
16648TIP3    H171359   2.516   1.226   2.684 -2.2982 -2.4322  1.1308
16648TIP3    H271360   2.657   1.171   2.676 -0.6757  1.6801 -1.7749
16649TIP3   OH271361   5.116   1.636   1.173  0.1235  0.4807  0.4161
16649TIP3    H171362   5.179   1.705   1.155  1.1409 -0.3871  0.5378
16649TIP3    H271363   5.051   1.677   1.230  0.1354  1.6008 -0.3337
16650TIP3   OH271364   1.033   6.189  12.032  0.5752  0.4542 -0.1060
16650TIP3    H171365   1.006   6.153  12.117 -1.2702 -1.5170 -1.4257
16650TIP3    H271366   1.039   6.113  11.974  0.2924  1.8722 -2.1079
16651TIP3   OH271367   4.683   4.123   6.040 -0.0101 -0.5608 -0.3459
16651TIP3    H171368   4.604   4.171   6.014 -0.3247 -1.1401 -0.4679
16651TIP3    H271369   4.695   4.146   6.132 -0.0755 -0.1328 -0.4406
16652TIP3   OH271370   3.525   1.105   3.676  0.0307  0.2186 -0.6471
16652TIP3    H171371   3.596   1.163   3.704  0.8102 -0.8118 -0.4211
16652TIP3    H271372   3.496   1.142   3.592  0.9632  0.5557 -0.8403
16653TIP3   OH271373   2.516   6.624  13.175  0.6495 -0.1092  0.1244
16653TIP3    H171374   2.508   6.718  13.154  0.2992 -0.4916 -1.7060
16653TIP3    H271375   2.430   6.601  13.211  1.1415  0.5104  1.7568
16654TIP3   OH271376   3.994   2.893   2.251 -0.2543  0.3519  0.7859
16654TIP3    H171377   3.953   2.859   2.171  1.5698  0.1298 -0.1032
16654TIP3    H271378   3.996   2.988   2.239  1.3866  0.2271 -0.1715
16655TIP3   OH271379   5.461   5.295  13.426 -0.2978 -0.3195 -0.2043
16655TIP3    H171380   5.488   5.383  13.397 -2.6602 -0.6318 -3.9429
16655TIP3    H271381   5.496   5.288  13.516  1.7077  3.5963 -0.4568
16656TIP3   OH271382   2.960   6.534   1.955 -0.8760  0.7019  0.5140
16656TIP3    H171383   3.047   6.516   1.990 -1.0278  0.3781  0.7327
16656TIP3    H271384   2.939   6.622   1.988 -0.8800  0.5341  0.9660
16657TIP3   OH271385   0.532   4.433  11.495  0.4514 -0.1270  0.3315
16657TIP3    H171386   0.574   4.516  11.471 -1.6419  0.9533  0.2215
16657TIP3    H271387   0.523   4.386  11.412  0.5908  0.0262  0.2280
16658TIP3   OH271388   3.409   2.803  13.558 -0.0535  0.3260 -0.4257
16658TIP3    H171389   3.488   2.846  13.526  2.0654 -1.7998  1.5214
16658TIP3    H271390   3.429   2.783  13.650 -2.1189 -1.9087 -0.3753
16659TIP3   OH271391   0.422   2.381   1.138 -0.2547 -0.0103 -0.3065
16659TIP3    H171392   0.353   2.344   1.194 -2.4606  3.2401 -0.6163
16659TIP3    H271393   0.403   2.345   1.051  0.8680 -2.0894  0.2408
16660TIP3   OH271394   2.279   2.774  15.737 -0.0087  1.0100 -0.4867
16660TIP3    H171395   2.235   2.851  15.773 -0.6930  0.8086 -0.8694
16660TIP3    H271396   2.317   2.730  15.813 -0.6601  1.0747 -0.1211
16661TIP3   OH271397   0.298   6.209   0.108  0.4045 -0.3004  0.0512
16661TIP3    H171398   0.343   6.208   0.024  0.9153  0.5236  0.3030
16661TIP3    H271399   0.282   6.301   0.126  0.2539 -0.4680  0.8301
16662TIP3   OH271400   5.567   1.680  13.249  0.0147 -0.0369  0.1142
16662TIP3    H171401   5.513   1.672  13.328 -0.3566  1.0049 -0.0178
16662TIP3    H271402   5.590   1.773  13.245  1.9962 -0.4725  0.2659
16663TIP3   OH271403   0.243   2.760   4.585 -0.0740  0.3287  0.7315
16663TIP3    H171404   0.283   2.837   4.544 -0.8702  0.2285 -0.2603
16663TIP3    H271405   0.231   2.784   4.677 -1.1689  1.7406  0.2426
16664TIP3   OH271406   2.486   0.549   4.346 -0.0106 -0.5620  0.1231
16664TIP3    H171407   2.393   0.571   4.342  0.1905  0.3047  0.0504
16664TIP3    H271408   2.504   0.536   4.439  0.0832  0.6118  0.2850
16665TIP3   OH271409   4.350   6.365   2.901 -0.3102  0.0091  0.4918
16665TIP3    H171410   4.412   6.437   2.912  0.2115 -0.4008  0.2893
16665TIP3    H271411   4.292   6.394   2.831  0.7875 -0.3535 -0.6004
16666TIP3   OH271412   5.839   5.319   2.720 -0.6415 -0.3187  0.0767
16666TIP3    H171413   5.818   5.237   2.766  0.0968 -0.5316  0.0465
16666TIP3    H271414   5.824   5.298   2.628  2.3917 -1.4059 -0.2838
16667TIP3   OH271415   5.928   2.380   1.690  0.3368  0.3855  0.8951
16667TIP3    H171416   6.018   2.409   1.704  0.2163  0.3773  1.7757
16667TIP3    H271417   5.879   2.418   1.764 -0.0792 -0.8739  1.2986
16668TIP3   OH271418   5.525   0.839  15.754 -0.1251  0.0766 -0.0987
16668TIP3    H171419   5.555   0.776  15.819  1.0872 -0.3557 -1.0376
16668TIP3    H271420   5.456   0.794  15.706  0.7888 -0.6056 -0.8188
16669TIP3   OH271421   1.331   1.977  10.760 -0.2061  0.2034 -0.3103
16669TIP3    H171422   1.361   1.986  10.851  0.4147  0.3773 -0.5270
16669TIP3    H271423   1.340   2.065  10.723 -1.5941  0.4044 -0.2119
16670TIP3   OH271424   2.940   5.058   3.528 -0.4513  0.4228  0.8523
16670TIP3    H171425   3.020   5.098   3.562 -1.0844  1.2239  1.4532
16670TIP3    H271426   2.888   5.131   3.496 -1.5076  0.0852  1.6985
16671TIP3   OH271427   0.593   0.861  12.503 -0.3939 -0.1763 -0.0901
16671TIP3    H171428   0.578   0.916  12.580  0.2794 -0.0961 -0.0141
16671TIP3    H271429   0.544   0.905  12.433 -1.7977 -0.7723  0.4912
16672TIP3   OH271430   6.610   0.580   3.282 -0.3153  0.1407  0.3411
16672TIP3    H171431   6.669   0.551   3.214 -1.3699  0.1731 -0.6146
16672TIP3    H271432   6.628   0.674   3.291 -0.7582  0.3191 -0.5160
16673TIP3   OH271433   4.171   0.997  15.970 -0.0820  0.0881  0.3153
16673TIP3    H171434   4.106   1.015  16.038 -1.2546 -0.0006 -0.7380
16673TIP3    H271435   4.120   0.960  15.898  1.1604 -0.0386 -0.5282
16674TIP3   OH271436   0.586   0.864   5.633  0.2116 -0.3821  0.6779
16674TIP3    H171437   0.581   0.803   5.559  1.1307 -0.3085  0.5470
16674TIP3    H271438   0.569   0.950   5.595  2.0120 -0.1663  0.2842
16675TIP3   OH271439   2.532   3.660   5.095  0.1409 -0.7072 -0.4304
16675TIP3    H171440   2.523   3.681   5.188 -0.9210  0.7109 -0.8218
16675TIP3    H271441   2.626   3.666   5.078  0.0896  2.3441 -0.1215
16676TIP3   OH271442   1.816   3.398   0.119  0.0304 -0.6261  0.5269
16676TIP3    H171443   1.779   3.463   0.060  1.2813  0.3646  0.7974
16676TIP3    H271444   1.742   3.367   0.171 -0.7472 -0.1479 -0.2833
16677TIP3   OH271445   0.903   0.800   3.117 -0.0327 -0.3599  0.2141
16677TIP3    H171446   0.841   0.771   3.184 -2.2129  3.6949  0.2463
16677TIP3    H271447   0.972   0.845   3.165 -0.0609  0.0239 -0.1001
16678TIP3   OH271448   6.525   4.117  15.394 -0.0188  0.6997 -0.1404
16678TIP3    H171449   6.441   4.094  15.353  0.3595 -4.2355  1.2224
16678TIP3    H271450   6.581   4.143  15.321 -1.5277 -0.2632 -1.7133
16679TIP3   OH271451   0.282   2.103   6.084  0.5703  0.2613  0.1381
16679TIP3    H171452   0.317   2.133   6.000 -0.2903  1.7555  0.2783
16679TIP3    H271453   0.291   2.008   6.081  3.1248  0.4524 -0.4571
16680TIP3   OH271454   6.140   3.270   6.273 -0.1112 -0.5558  0.4727
16680TIP3    H171455   6.054   3.284   6.233  0.7589  1.3992 -0.8571
16680TIP3    H271456   6.141   3.328   6.350 -0.1633 -0.9831  0.8008
16681TIP3   OH271457   6.741   0.053  15.435 -0.2583  0.5564  0.0941
16681TIP3    H171458   6.823   0.079  15.392 -0.7508 -0.1715 -1.3634
16681TIP3    H271459   6.686   0.020  15.364 -2.3607  2.2525  0.8203
16682TIP3   OH271460   4.932   5.553  14.654  0.0478 -0.3081 -0.1170
16682TIP3    H171461   4.891   5.507  14.580  0.4811 -0.9004  0.0040
16682TIP3    H271462   4.902   5.643  14.646  0.1277 -0.3607 -1.0388
16683TIP3   OH271463   3.176   4.158   4.465 -0.5686  0.0902 -0.6505
16683TIP3    H171464   3.211   4.111   4.540  0.5985  0.4506 -0.9536
16683TIP3    H271465   3.243   4.223   4.444 -1.5248  0.9567 -1.1041
16684TIP3   OH271466   6.746   5.535   0.573  0.1149 -0.0421 -0.1387
16684TIP3    H171467   6.820   5.579   0.530  0.9153 -0.8551  0.3880
16684TIP3    H271468   6.686   5.513   0.502  0.7036  0.0084 -0.6535
16685TIP3   OH271469   1.282   4.873  12.723  0.8658  0.0153 -0.3881
16685TIP3    H171470   1.298   4.864  12.629  0.6502  2.5942 -0.7420
16685TIP3    H271471   1.310   4.962  12.744  1.1950 -0.5941  2.0886
16686TIP3   OH271472   0.695   0.775  17.077 -0.2123  0.3399  0.3705
16686TIP3    H171473   0.659   0.718  17.145  1.4781 -1.1817  0.0565
16686TIP3    H271474   0.765   0.724  17.036 -0.1957  1.7653 -1.5468
16687TIP3   OH271475   3.729   6.701  17.210  0.0259 -0.1901  0.1609
16687TIP3    H171476   3.641   6.671  17.232 -0.8062  1.7444 -0.3380
16687TIP3    H271477   3.744   6.666  17.122 -0.0358 -0.9274  0.4367
16688TIP3   OH271478   5.089   0.501  12.366 -0.1241  0.3258  0.2008
16688TIP3    H171479   5.030   0.426  12.371  1.9908 -1.3127  1.9055
16688TIP3    H271480   5.079   0.546  12.450  0.7581  0.2408  0.3614
16689TIP3   OH271481   0.131   1.644  13.903 -0.0315 -0.0462 -0.7454
16689TIP3    H171482   0.086   1.644  13.819 -2.2609 -0.3043  0.3556
16689TIP3    H271483   0.119   1.555  13.936  1.0214 -0.0191 -0.2393
16690TIP3   OH271484   3.587   1.209  12.510 -0.1872  0.2275 -0.0029
16690TIP3    H171485   3.621   1.140  12.567 -2.7341 -1.5275 -0.4530
16690TIP3    H271486   3.522   1.254  12.564 -0.0985  0.8562 -0.4159
16691TIP3   OH271487   3.370   0.113  12.075  0.0188 -0.1508  0.2938
16691TIP3    H171488   3.435   0.180  12.095  0.0731  0.7326 -2.4862
16691TIP3    H271489   3.297   0.161  12.036 -1.1329 -1.4500  0.7597
16692TIP3   OH271490   1.924   3.755   2.648 -0.6245  0.4371  0.3430
16692TIP3    H171491   1.847   3.728   2.700  0.0267 -0.6057  0.8155
16692TIP3    H271492   1.999   3.722   2.698  0.1448  1.5007 -0.0743
16693TIP3   OH271493   0.680   4.245   3.713 -0.3665  0.0549 -0.3872
16693TIP3    H171494   0.586   4.252   3.727 -0.2599  0.4826  0.1299
16693TIP3    H271495   0.692   4.261   3.620 -0.5614  2.5249 -0.0362
16694TIP3   OH271496   4.122   0.865  14.271 -0.0855  0.2179  0.1152
16694TIP3    H171497   4.146   0.810  14.345 -0.2586 -0.6118 -0.4330
16694TIP3    H271498   4.203   0.910  14.248 -0.2591  1.2538  1.4221
16695TIP3   OH271499   2.202   2.578  11.868  0.2161  0.6405 -0.1575
16695TIP3    H171500   2.163   2.500  11.828  0.3327  0.9909 -0.9552
16695TIP3    H271501   2.130   2.617  11.918  0.1860 -0.0353  0.3441
16696TIP3   OH271502   1.253   3.095   5.534 -0.5274 -0.1538 -0.2351
16696TIP3    H171503   1.240   3.000   5.532 -0.3737 -0.1732 -0.3429
16696TIP3    H271504   1.169   3.131   5.507 -0.6754 -0.2533  0.0923
16697TIP3   OH271505   2.411   4.864   5.391  0.0531 -0.1911  0.3318
16697TIP3    H171506   2.479   4.807   5.353  0.3527 -1.4164  2.5306
16697TIP3    H271507   2.443   4.883   5.479 -2.7853 -1.4739  1.7541
16698TIP3   OH271508   0.414   1.593   1.881  0.2395  0.3225  0.3034
16698TIP3    H171509   0.466   1.655   1.830  0.5161 -0.4516 -0.3740
16698TIP3    H271510   0.394   1.522   1.820 -3.1564  1.3905 -0.0280
16699TIP3   OH271511   5.248   0.405  14.785  0.4374 -0.1306  0.1315
16699TIP3    H171512   5.210   0.365  14.707  1.8663 -0.8781 -0.2128
16699TIP3    H271513   5.269   0.495  14.759 -1.1649  0.3408  0.3739
16700TIP3   OH271514   4.880   2.190  13.936  0.1138  0.0884  0.1949
16700TIP3    H171515   4.842   2.227  14.016 -0.2641  1.7919 -0.7147
16700TIP3    H271516   4.927   2.264  13.896  1.5974 -1.1244 -0.3912
16701TIP3   OH271517   4.120   1.793  16.818  0.4069 -0.3564  0.9633
16701TIP3    H171518   4.128   1.864  16.754 -0.8363 -0.4090  0.7192
16701TIP3    H271519   4.078   1.722  16.770  1.2566 -1.1105  1.3241
16702TIP3   OH271520   5.022   4.533   4.070  0.0816 -0.3592  0.3708
16702TIP3    H171521   4.969   4.553   3.993 -0.5059 -1.4540  0.4696
16702TIP3    H271522   5.108   4.510   4.035  0.6562  1.7929  0.2311
16703TIP3   OH271523   5.433   0.957  12.671 -0.1687 -0.0842  0.1258
16703TIP3    H171524   5.431   1.039  12.720 -1.5838  0.0038 -0.0352
16703TIP3    H271525   5.494   0.901  12.720  0.6166  0.9605  0.3785
16704TIP3   OH271526   2.847   2.917   3.171 -0.2063  0.8912 -0.5008
16704TIP3    H171527   2.829   2.838   3.222 -0.6639  1.4070  0.1514
16704TIP3    H271528   2.766   2.967   3.175  0.0430  1.3495 -1.0041
16705TIP3   OH271529   0.303   3.166   1.335 -0.2206 -0.1959  0.5267
16705TIP3    H171530   0.331   3.121   1.255  0.2166  0.8155  0.0968
16705TIP3    H271531   0.216   3.199   1.315  0.7745  2.0819 -0.4318
16706TIP3   OH271532   5.167   2.358   3.028  0.0382 -0.3117  0.0602
16706TIP3    H171533   5.187   2.413   3.105  1.9287 -1.0125  0.1360
16706TIP3    H271534   5.238   2.377   2.967 -0.9060 -0.5101 -1.1260
16707TIP3   OH271535   2.518   4.206   2.124 -0.1174 -0.0312  1.1759
16707TIP3    H171536   2.464   4.137   2.164 -0.1005 -1.5615 -1.2195
16707TIP3    H271537   2.593   4.159   2.087  0.2664  1.3773  0.0725
16708TIP3   OH271538   1.748   3.185  13.553  0.3739  0.2017  0.0652
16708TIP3    H171539   1.695   3.208  13.477 -1.0773 -1.8468  0.3753
16708TIP3    H271540   1.837   3.174  13.519 -0.2703 -0.7675 -1.3651
16709TIP3   OH271541   2.867   6.138   3.171  0.2037 -1.0751  0.3403
16709TIP3    H171542   2.954   6.098   3.167  1.2458  1.0691 -0.5867
16709TIP3    H271543   2.850   6.167   3.082 -0.2933  0.7575  0.9781
16710TIP3   OH271544   5.497   1.859   4.890  0.8587 -0.2021  0.2541
16710TIP3    H171545   5.510   1.782   4.945  0.7844  0.3679  1.0883
16710TIP3    H271546   5.467   1.927   4.950  0.2283  0.2848 -0.5904
16711TIP3   OH271547   6.062   2.094   4.506  0.3010 -0.0459 -0.4703
16711TIP3    H171548   6.053   2.162   4.439 -0.8876  2.3109  1.8567
16711TIP3    H271549   6.105   2.139   4.579 -1.2314 -1.5598  1.4630
16712TIP3   OH271550   2.484   3.820   3.826  0.6841  0.2673 -0.2960
16712TIP3    H171551   2.468   3.901   3.875  1.4864  0.1057  0.2465
16712TIP3    H271552   2.573   3.795   3.849  0.3698 -0.9028 -0.2804
16713TIP3   OH271553   5.717   0.874   2.367 -0.3609 -0.5635  0.6306
16713TIP3    H171554   5.756   0.847   2.450 -0.6759 -0.4235  0.8256
16713TIP3    H271555   5.623   0.874   2.383 -0.3611  2.2192  1.1504
16714TIP3   OH271556   6.541   4.001   1.657 -0.2482 -0.1264 -0.0362
16714TIP3    H171557   6.463   4.054   1.639 -1.1743 -1.4095  0.1061
16714TIP3    H271558   6.545   3.940   1.584 -1.1774 -2.0970  1.4729
16715TIP3   OH271559   2.344   3.605  16.540 -0.1022  0.8038  0.4114
16715TIP3    H171560   2.391   3.556  16.607  0.2062  0.3040 -0.1640
16715TIP3    H271561   2.395   3.684  16.527  0.8588  0.0445 -0.5540
16716TIP3   OH271562   3.358   6.351   1.679  0.0445  0.4281  0.0278
16716TIP3    H171563   3.287   6.314   1.626  0.4153 -1.9371  1.0634
16716TIP3    H271564   3.433   6.353   1.619  0.4171 -2.0696  0.2814
16717TIP3   OH271565   6.419   4.149  14.779 -0.0017  0.2594 -0.7850
16717TIP3    H171566   6.447   4.218  14.839 -2.0004  0.8388 -0.4463
16717TIP3    H271567   6.500   4.116  14.740  1.0418  2.5039 -0.6337
16718TIP3   OH271568   2.346   3.875  17.350  0.1400 -0.3244  0.2917
16718TIP3    H171569   2.426   3.827  17.373  2.3149  2.4386 -0.9136
16718TIP3    H271570   2.318   3.916  17.431  0.3015 -0.7879  0.5848
16719TIP3   OH271571   6.746   4.879  16.402 -0.5983  0.7975  0.3468
16719TIP3    H171572   6.781   4.801  16.359 -0.6933  1.6149 -1.2894
16719TIP3    H271573   6.796   4.885  16.484  1.7314  0.8088 -0.9708
16720TIP3   OH271574   3.748   4.325   1.095 -0.6589 -0.6345  0.4871
16720TIP3    H171575   3.841   4.327   1.116 -0.5356 -1.0029 -0.0311
16720TIP3    H271576   3.729   4.233   1.075 -0.9237 -0.4097 -0.3401
16721TIP3   OH271577   4.713   3.030   3.366 -0.4942  0.0044 -0.1305
16721TIP3    H171578   4.658   3.097   3.407 -0.9686  0.4823 -1.4741
16721TIP3    H271579   4.685   3.030   3.274  0.1003 -1.4411 -0.3348
16722TIP3   OH271580   4.093   0.502   6.454 -0.4028  0.5131 -0.5831
16722TIP3    H171581   4.132   0.552   6.382 -0.1364  1.4085  0.1753
16722TIP3    H271582   4.040   0.565   6.501  1.2011  0.5186  1.3488
16723TIP3   OH271583   4.373   1.854   2.478 -0.2871  0.0885 -0.3685
16723TIP3    H171584   4.298   1.797   2.465 -1.9872  2.3582 -1.2566
16723TIP3    H271585   4.394   1.888   2.391  2.6089 -1.3557 -0.3554
16724TIP3   OH271586   4.738   4.384   0.678  0.4288 -0.0387  0.7348
16724TIP3    H171587   4.830   4.359   0.679  0.3690 -0.3703 -0.3738
16724TIP3    H271588   4.736   4.466   0.629 -0.0413 -0.9366 -0.8185
16725TIP3   OH271589   1.420   0.546   4.051 -0.2870 -0.3175 -0.2837
16725TIP3    H171590   1.388   0.573   4.137  0.5927  0.1198 -0.0810
16725TIP3    H271591   1.360   0.477   4.024  0.3728 -1.6339  1.4148
16726TIP3   OH271592   2.442   3.759  12.123 -0.7191  0.2281 -0.6022
16726TIP3    H171593   2.514   3.698  12.110 -1.6128 -1.5982  2.1178
16726TIP3    H271594   2.469   3.813  12.197 -1.3167  0.9390 -0.8901
16727TIP3   OH271595   0.963   2.218   2.923  0.1196 -0.2013 -0.4156
16727TIP3    H171596   0.941   2.125   2.916  1.0183 -0.3772 -1.0661
16727TIP3    H271597   0.933   2.243   3.010 -0.8709 -0.8899 -0.5408
16728TIP3   OH271598   6.347   3.903  11.845 -0.0450 -0.1767 -0.3884
16728TIP3    H171599   6.382   3.960  11.913  0.9255  0.9236 -1.7628
16728TIP3    H271600   6.422   3.851  11.816 -0.5830 -1.0628 -0.2291
16729TIP3   OH271601   5.091   2.020   2.828 -0.0741 -0.0966  0.4009
16729TIP3    H171602   5.126   1.955   2.888  0.5698 -0.0473  0.0862
16729TIP3    H271603   5.075   2.097   2.883  0.2544 -0.1408  0.5615
16730TIP3   OH271604   5.692   0.991   1.235  0.3133  0.1601 -0.0564
16730TIP3    H171605   5.687   0.936   1.313 -0.0433  0.0393 -0.1604
16730TIP3    H271606   5.647   0.940   1.167 -0.2391  0.6839 -0.0911
16731TIP3   OH271607   2.869   2.799  16.533 -0.0162  0.6445  0.0008
16731TIP3    H171608   2.775   2.813  16.526 -0.6278 -2.3039  1.2443
16731TIP3    H271609   2.899   2.868  16.593 -1.7416  0.3429  1.2625
16732TIP3   OH271610   0.402   4.083  17.131 -0.2171  0.0442  0.4271
16732TIP3    H171611   0.307   4.090  17.142 -0.4513 -0.3970 -1.0991
16732TIP3    H271612   0.414   4.008  17.073  0.8722  1.7710 -1.7330
16733TIP3   OH271613   1.948   2.628   3.199 -0.9287 -0.3427 -0.2378
16733TIP3    H171614   1.869   2.680   3.184  0.4417  2.1692  0.4830
16733TIP3    H271615   2.019   2.692   3.195  1.1399 -2.5493 -1.2459
16734TIP3   OH271616   0.604   0.758   4.083 -0.3257  0.4473  0.3369
16734TIP3    H171617   0.509   0.745   4.075 -0.3788  1.0821 -0.1805
16734TIP3    H271618   0.618   0.849   4.058  0.2744  0.7646  1.7163
16735TIP3   OH271619   5.670   2.305   1.308 -0.1488 -0.3922 -0.4247
16735TIP3    H171620   5.726   2.259   1.370  1.4880 -0.2666 -1.7252
16735TIP3    H271621   5.656   2.391   1.348  0.5907 -0.4317 -0.0485
16736TIP3   OH271622   2.161   1.965   2.371  0.1972 -0.1799 -0.2799
16736TIP3    H171623   2.094   1.998   2.431 -0.4364 -4.1975  1.5558
16736TIP3    H271624   2.243   1.968   2.420  0.2717 -0.5204 -0.3739
16737TIP3   OH271625   5.267   4.439   4.328  0.6490  0.3823  0.1414
16737TIP3    H171626   5.311   4.468   4.408  1.4254 -1.8738  0.6255
16737TIP3    H271627   5.202   4.375   4.358  1.4433 -1.0510 -1.0315
16738TIP3   OH271628   3.185   5.249  11.729 -0.3827 -0.5182 -0.0427
16738TIP3    H171629   3.243   5.174  11.714  0.4325 -0.0722  0.7506
16738TIP3    H271630   3.177   5.254  11.824  1.0970  1.5013  0.0415
16739TIP3   OH271631   1.782   0.088   5.744 -0.0289  0.2566 -0.0927
16739TIP3    H171632   1.861   0.129   5.708 -0.0165  0.8043  0.5470
16739TIP3    H271633   1.815   0.013   5.794 -0.0703 -0.7382 -1.4854
16740TIP3   OH271634   1.268   2.074  14.847  0.2072  0.2156 -0.3087
16740TIP3    H171635   1.199   2.022  14.804 -1.3251  0.9289  1.2031
16740TIP3    H271636   1.289   2.025  14.927 -0.7852  1.5384  0.8025
16741TIP3   OH271637   0.094   0.740  11.136 -0.0457 -0.1880  0.5942
16741TIP3    H171638   0.101   0.649  11.165  1.0763 -0.1148  0.5705
16741TIP3    H271639   0.143   0.791  11.200 -1.4469  0.5393  1.1380
16742TIP3   OH271640   1.022   3.518   3.431 -0.5104 -0.7708 -0.2321
16742TIP3    H171641   0.992   3.475   3.351 -1.7374 -0.2517 -0.0678
16742TIP3    H271642   1.118   3.512   3.427 -0.5790 -1.3636 -1.3858
16743TIP3   OH271643   1.474   4.101  16.147  0.5788 -0.1569 -0.0468
16743TIP3    H171644   1.443   4.184  16.110 -1.7223  0.2118  2.3873
16743TIP3    H271645   1.535   4.128  16.216 -1.1453 -0.3034  1.6254
16744TIP3   OH271646   4.587   6.124  14.905 -0.1199  0.3101  0.1207
16744TIP3    H171647   4.568   6.169  14.988 -0.0608  0.1243  0.2360
16744TIP3    H271648   4.567   6.189  14.838  0.1171  0.5614  0.2926
16745TIP3   OH271649   4.798   2.757   5.787 -0.1954 -0.2456  0.6417
16745TIP3    H171650   4.714   2.726   5.754  0.3435 -0.5713 -0.5023
16745TIP3    H271651   4.801   2.726   5.878 -0.8306 -1.2289  0.3505
16746TIP3   OH271652   2.806   1.109   6.260  0.3737  0.0944 -0.2929
16746TIP3    H171653   2.898   1.082   6.258  1.2132  2.6866 -1.1021
16746TIP3    H271654   2.773   1.075   6.343  1.5430 -2.2760 -0.7073
16747TIP3   OH271655   5.429   5.113  14.846  0.3934  0.4136  0.9140
16747TIP3    H171656   5.480   5.194  14.838 -0.4633  1.0197  1.4251
16747TIP3    H271657   5.426   5.096  14.940 -0.9202  0.7693  0.9442
16748TIP3   OH271658   0.106   5.582  17.137 -0.5603  0.8539  0.7314
16748TIP3    H171659   0.012   5.591  17.154 -0.6853  0.2231  0.4090
16748TIP3    H271660   0.113   5.574  17.042 -0.1459  1.2661  0.7244
16749TIP3   OH271661   3.644   2.139   2.811 -0.3839  0.5890 -0.6219
16749TIP3    H171662   3.629   2.085   2.734 -0.3269 -0.0050 -0.2234
16749TIP3    H271663   3.732   2.116   2.840 -1.3917 -1.2485  1.2154
16750TIP3   OH271664   0.042   4.876  13.150 -0.6808  0.4761  0.1489
16750TIP3    H171665   0.127   4.884  13.106 -0.3427  2.7718  1.1052
16750TIP3    H271666   0.064   4.851  13.240 -1.0475  0.6301  0.2822
16751TIP3   OH271667   3.747   4.545  16.173 -0.5112 -0.7264 -0.7855
16751TIP3    H171668   3.771   4.623  16.123  1.4472 -0.7969 -0.0382
16751TIP3    H271669   3.651   4.545  16.173 -0.7709  3.5674  1.9287
16752TIP3   OH271670   5.692   4.956  15.992  0.3167  0.2227 -0.4234
16752TIP3    H171671   5.628   4.893  16.024  1.3057  0.2708  1.8292
16752TIP3    H271672   5.687   5.029  16.053  1.1123  1.1110 -1.3839
16753TIP3   OH271673   5.524   6.034  10.774  0.2801  0.2853  0.0304
16753TIP3    H171674   5.504   6.088  10.850  3.0080  1.4505  0.0308
16753TIP3    H271675   5.453   6.051  10.712 -1.9479 -0.6059  2.1755
16754TIP3   OH271676   0.835   3.100   5.346 -0.0848  0.2081  0.1519
16754TIP3    H171677   0.822   3.081   5.439 -2.6041 -1.4919 -0.4458
16754TIP3    H271678   0.896   3.032   5.317 -0.8668 -0.5272  0.1847
16755TIP3   OH271679   4.830   6.475  17.238 -0.4004 -0.2297 -0.4313
16755TIP3    H171680   4.740   6.449  17.256 -0.0275 -2.2513 -1.1913
16755TIP3    H271681   4.831   6.497  17.145  0.2754 -2.2984 -0.9660
16756TIP3   OH271682   4.047   5.090   2.111 -0.0185  0.0515 -0.3253
16756TIP3    H171683   3.989   5.136   2.050 -0.3209  0.3854  0.2080
16756TIP3    H271684   4.003   5.097   2.196  0.3089 -0.5699 -0.1014
16757TIP3   OH271685   4.374   4.078  11.712 -0.4230 -0.2319 -0.4682
16757TIP3    H171686   4.379   4.146  11.779 -3.5658  0.6239 -0.9645
16757TIP3    H271687   4.460   4.079  11.671 -0.2639  3.3956 -0.3698
16758TIP3   OH271688   1.090   4.143  12.649  0.4965  0.6247  0.2306
16758TIP3    H171689   1.071   4.127  12.742 -0.0659 -0.3898 -0.0455
16758TIP3    H271690   1.140   4.066  12.622  2.4449  1.8372  0.1681
16759TIP3   OH271691   4.072   3.231   6.521 -0.4222  0.7937 -0.0188
16759TIP3    H171692   4.024   3.296   6.572 -1.8545 -0.8388  0.8453
16759TIP3    H271693   4.004   3.177   6.481  0.6609 -0.9999  0.4278
16760TIP3   OH271694   2.294   2.085   0.056 -0.5423  0.8128  0.7486
16760TIP3    H171695   2.257   2.132  -0.019  0.8844  0.1635 -0.3875
16760TIP3    H271696   2.378   2.128   0.073 -0.1082 -0.0846  0.9290
16761TIP3   OH271697   6.303   2.418   2.310 -0.0809 -0.1941 -0.1730
16761TIP3    H171698   6.326   2.346   2.252 -1.4703 -2.3100  1.7183
16761TIP3    H271699   6.208   2.425   2.302  0.0959  2.0353 -0.9163
16762TIP3   OH271700   1.132   2.297   3.970  0.0261  0.3751  0.2871
16762TIP3    H171701   1.068   2.327   4.033  2.4895 -0.4908  3.4799
16762TIP3    H271702   1.205   2.359   3.977  0.8576 -0.4138 -0.8187
16763TIP3   OH271703   1.144   2.040   3.799 -0.0247  0.1782 -0.2719
16763TIP3    H171704   1.225   2.089   3.790  0.1612 -0.0606  0.0769
16763TIP3    H271705   1.095   2.087   3.866  0.3300 -0.3379  0.3597
16764TIP3   OH271706   4.357   0.853   4.007  0.5483  0.4197 -0.1887
16764TIP3    H171707   4.448   0.858   3.981  0.0440  2.5336 -1.7989
16764TIP3    H271708   4.308   0.881   3.930 -1.4755 -0.5105  0.6721
16765TIP3   OH271709   6.270   1.362  11.605 -0.4561 -0.3052 -0.0017
16765TIP3    H171710   6.330   1.436  11.606 -0.6983 -0.1160  0.3546
16765TIP3    H271711   6.326   1.286  11.585 -0.1236 -0.1097  0.1924
16766TIP3   OH271712   1.261   2.935  17.396  0.0036 -0.7290 -0.0443
16766TIP3    H171713   1.208   3.004  17.357  1.8196  0.0071 -1.3420
16766TIP3    H271714   1.203   2.893  17.460 -2.1793 -0.1190 -1.5100
16767TIP3   OH271715   3.947   0.020   4.382  0.8782 -0.9733  0.3939
16767TIP3    H171716   3.966  -0.067   4.349 -0.3922 -1.8727  1.8761
16767TIP3    H271717   3.885   0.006   4.453  0.9990  1.1104  0.9938
16768TIP3   OH271718   6.024   3.106   5.143 -0.2017  0.4185  0.0437
16768TIP3    H171719   5.934   3.138   5.142 -0.5203 -0.4119  0.6720
16768TIP3    H271720   6.057   3.125   5.056 -0.7306  1.4294  0.0449
16769TIP3   OH271721   2.210   4.459   3.810  0.3901  0.0693 -0.3463
16769TIP3    H171722   2.131   4.511   3.821 -0.4545 -1.3369  0.6063
16769TIP3    H271723   2.186   4.371   3.839  2.2314 -0.4710 -0.2722
16770TIP3   OH271724   1.564   2.046   5.431 -0.6726  0.5492 -0.2740
16770TIP3    H171725   1.614   1.979   5.478 -1.2824  0.3506  0.1108
16770TIP3    H271726   1.581   2.127   5.480  0.3738  0.7614 -0.9687
16771TIP3   OH271727   6.716   0.434   1.712 -0.4483  0.1973 -0.1871
16771TIP3    H171728   6.738   0.466   1.624  0.6728  1.5647  0.5570
16771TIP3    H271729   6.621   0.419   1.708 -0.2257 -1.1504 -2.0322
16772TIP3   OH271730   2.702   3.910   0.321 -0.5169 -0.0012 -0.1933
16772TIP3    H171731   2.714   3.815   0.319 -0.1012  0.0328  0.3944
16772TIP3    H271732   2.648   3.925   0.399 -2.8022  0.0278 -1.6752
16773TIP3   OH271733   2.488   3.374  15.686 -0.1173  0.6863 -0.4836
16773TIP3    H171734   2.519   3.456  15.725 -1.3094  1.5237 -1.2227
16773TIP3    H271735   2.540   3.306  15.729 -0.2878  1.6701  1.4031
16774TIP3   OH271736   4.750   6.672  14.069  0.3143  0.0722 -0.5808
16774TIP3    H171737   4.782   6.745  14.017  0.2631 -0.7097 -1.7552
16774TIP3    H271738   4.665   6.700  14.102  0.4715  0.6889 -0.6959
16775TIP3   OH271739   6.536   1.848  14.870  0.3231 -0.1406  0.3084
16775TIP3    H171740   6.571   1.921  14.921  0.6220 -0.5203  0.6594
16775TIP3    H271741   6.492   1.793  14.935 -3.4149  1.6808 -0.4284
16776TIP3   OH271742   6.600   3.649   6.513 -0.4074 -0.4526 -0.3146
16776TIP3    H171743   6.589   3.663   6.607  0.1734  0.3820 -0.3574
16776TIP3    H271744   6.564   3.728   6.473  0.9228 -0.0110 -0.6981
16777TIP3   OH271745   1.907   5.805   5.383 -0.3610 -0.2795  0.4252
16777TIP3    H171746   1.920   5.744   5.311 -0.1493  1.8549 -1.4310
16777TIP3    H271747   1.987   5.857   5.386 -2.0504  2.6694 -0.8938
16778TIP3   OH271748   1.109   4.997  14.113 -0.1469 -0.0631 -0.4051
16778TIP3    H171749   1.096   4.968  14.202  1.4165 -0.6027 -0.3140
16778TIP3    H271750   1.203   4.983  14.097 -0.3913  0.0377 -2.1134
16779TIP3   OH271751   6.179   4.337  12.614 -0.2224  0.1342  0.1994
16779TIP3    H171752   6.148   4.422  12.645 -2.1155 -0.1093 -0.8705
16779TIP3    H271753   6.153   4.334  12.522 -0.5138 -1.7293  0.3086
16780TIP3   OH271754   4.771   3.291  14.322  0.3120  0.4578  0.0650
16780TIP3    H171755   4.715   3.352  14.370 -0.9905 -0.4001 -0.3177
16780TIP3    H271756   4.853   3.291  14.370 -1.1441 -0.8959  2.7564
16781TIP3   OH271757   3.915   1.438   0.078 -0.4137 -0.1083  0.2181
16781TIP3    H171758   4.001   1.422   0.117 -0.9511 -0.8565  1.1126
16781TIP3    H271759   3.877   1.507   0.132 -0.7019 -0.3496  0.3244
16782TIP3   OH271760   1.479   5.624   6.568 -0.3637 -0.0239 -0.1982
16782TIP3    H171761   1.531   5.704   6.570 -1.8388  0.9543  0.1019
16782TIP3    H271762   1.456   5.608   6.660  1.4085 -1.8415  0.0063
16783TIP3   OH271763   3.817   6.587  14.249  0.0929 -0.0885  0.2196
16783TIP3    H171764   3.812   6.678  14.280  0.5536 -0.2191  0.6906
16783TIP3    H271765   3.737   6.575  14.198 -1.0262 -0.0667  1.8985
16784TIP3   OH271766   5.057   0.930   1.723 -0.4778  0.0034 -0.3019
16784TIP3    H171767   5.023   0.891   1.642 -0.0278  1.9085 -1.4707
16784TIP3    H271768   5.127   0.988   1.694 -1.1093  1.6677  1.3048
16785TIP3   OH271769   0.574   2.301   2.754 -0.1917 -0.2347  0.0719
16785TIP3    H171770   0.565   2.358   2.830 -1.4431 -0.9248  0.4594
16785TIP3    H271771   0.610   2.358   2.686  1.1491  0.3442  1.2066
16786TIP3   OH271772   2.130   1.850  15.230  0.3941 -0.1340 -0.1827
16786TIP3    H171773   2.190   1.808  15.169  0.4916  0.3824 -0.4417
16786TIP3    H271774   2.168   1.833  15.316 -0.3944 -1.9404 -0.1498
16787TIP3   OH271775   6.544   3.195   5.516 -0.3248 -0.2388 -0.8981
16787TIP3    H171776   6.612   3.199   5.449  0.0755  0.7164 -0.4590
16787TIP3    H271777   6.528   3.286   5.540  0.4073 -0.5854  1.1385
16788TIP3   OH271778   3.063   5.410   2.086  0.2954 -0.3276  0.3390
16788TIP3    H171779   3.140   5.372   2.044 -0.9794 -1.7233 -0.8562
16788TIP3    H271780   3.047   5.492   2.040  2.2118  1.0594  1.9617
16789TIP3   OH271781   2.187   4.821  12.661 -0.1702  0.1182  0.4409
16789TIP3    H171782   2.197   4.729  12.685 -0.5542 -0.2351 -0.6746
16789TIP3    H271783   2.243   4.832  12.584  1.0883  1.2244  1.4644
16790TIP3   OH271784   6.592   6.252  11.394 -0.1231 -0.8084 -0.2804
16790TIP3    H171785   6.612   6.190  11.324  1.9233  0.2322 -0.6938
16790TIP3    H271786   6.588   6.337  11.351  2.9720  0.1132  1.0205
16791TIP3   OH271787   4.494   2.686   4.673  0.6746  0.3042  0.1137
16791TIP3    H171788   4.583   2.656   4.655  0.9711  0.9361  0.4835
16791TIP3    H271789   4.442   2.606   4.677  1.1758 -0.0578 -0.3626
16792TIP3   OH271790   1.044   1.762   1.137 -0.2176 -0.0703  0.2319
16792TIP3    H171791   0.971   1.750   1.198  0.5156 -0.0128  1.1355
16792TIP3    H271792   1.035   1.852   1.107  0.4879  0.5439  1.7317
16793TIP3   OH271793   4.133   1.346  15.970 -0.4839  0.9143 -0.4698
16793TIP3    H171794   4.211   1.384  15.929 -1.0256  0.1417 -2.3236
16793TIP3    H271795   4.162   1.318  16.057  1.2520  0.8094 -1.0565
16794TIP3   OH271796   2.238   5.020   1.306  0.1341 -0.0450  0.2425
16794TIP3    H171797   2.262   5.110   1.328 -1.5578  0.2818  0.9820
16794TIP3    H271798   2.210   5.024   1.215  1.3884 -0.1382 -0.1665
16795TIP3   OH271799   0.967   5.036  16.581  0.1217  0.2114  0.0988
16795TIP3    H171800   1.020   4.981  16.639 -0.1891 -0.0895  0.1007
16795TIP3    H271801   0.879   5.033  16.619 -0.1287 -0.1454 -0.4941
16796TIP3   OH271802   3.486   4.181  12.826 -0.4963 -0.5003  0.5984
16796TIP3    H171803   3.462   4.090  12.843  1.0684 -0.9029  0.8260
16796TIP3    H271804   3.445   4.231  12.897  0.6342 -1.3670  1.9314
16797TIP3   OH271805   0.492   3.764  16.176 -0.1361 -0.2106 -0.3349
16797TIP3    H171806   0.531   3.722  16.100  1.3795  1.1840 -0.3932
16797TIP3    H271807   0.415   3.711  16.197  1.3503 -2.6230 -0.7135
16798TIP3   OH271808   5.838   6.734  16.729  0.1424 -0.5356  0.2781
16798TIP3    H171809   5.746   6.722  16.755  0.4372 -0.7199  1.2851
16798TIP3    H271810   5.862   6.651  16.688 -0.6210  0.1047 -1.5763
16799TIP3   OH271811   2.246   6.107  12.508  0.0068  0.1594  0.3501
16799TIP3    H171812   2.313   6.049  12.474 -1.7169 -0.5399 -2.1091
16799TIP3    H271813   2.225   6.072  12.595  0.3797 -1.7209 -0.2821
16800TIP3   OH271814   5.067   4.704  12.777 -0.3985  0.3810  0.2088
16800TIP3    H171815   5.040   4.614  12.793 -1.1688  0.8230  1.5957
16800TIP3    H271816   5.075   4.710  12.682 -1.5450 -0.8245 -0.0000
16801TIP3   OH271817   4.029   1.574   5.835 -0.1331 -0.1923  0.1977
16801TIP3    H171818   4.039   1.480   5.845  2.2692 -0.0043  0.1347
16801TIP3    H271819   4.026   1.588   5.740  0.3738 -0.1604  0.1817
16802TIP3   OH271820   6.541   0.434  11.678  0.0704 -0.1780 -0.5389
16802TIP3    H171821   6.529   0.341  11.696 -0.5110  0.0154  0.1330
16802TIP3    H271822   6.477   0.454  11.609 -2.7173  0.5321  2.0234
16803TIP3   OH271823   1.249   0.044  12.363 -0.0636 -0.1840 -0.5046
16803TIP3    H171824   1.183   0.013  12.425  0.3520  0.3044  0.1893
16803TIP3    H271825   1.264  -0.032  12.306 -1.7439 -0.0795 -1.1501
16804TIP3   OH271826   3.258   6.002  14.753  0.0906  0.2775  0.2842
16804TIP3    H171827   3.228   5.973  14.667 -0.2982  2.9476 -0.5654
16804TIP3    H271828   3.353   6.008  14.745  0.0451  0.6334 -0.0042
16805TIP3   OH271829   2.852   2.003   3.762  0.3114 -0.2598 -0.2799
16805TIP3    H171830   2.867   1.980   3.854  1.9351  0.7275 -0.2681
16805TIP3    H271831   2.893   1.933   3.713  0.4052 -0.2227 -0.2544
16806TIP3   OH271832   5.316   0.724  16.168  0.3602 -0.1682  0.1684
16806TIP3    H171833   5.277   0.783  16.102  0.8890  0.2562  0.2279
16806TIP3    H271834   5.263   0.739  16.246  0.8269  0.6542  0.3443
16807TIP3   OH271835   5.331   1.836   1.171 -0.4661  0.2002  0.1848
16807TIP3    H171836   5.331   1.899   1.099 -0.1484  0.6787  0.6058
16807TIP3    H271837   5.385   1.876   1.239  0.0075 -0.6678  0.3342
16808TIP3   OH271838   3.316   4.618  13.209 -0.0845  0.2333  0.4837
16808TIP3    H171839   3.332   4.629  13.116 -1.0219  0.0612  0.2918
16808TIP3    H271840   3.380   4.675  13.252  0.0494  0.6609 -0.2732
16809TIP3   OH271841   4.196   0.770   0.416  0.3641 -0.1237  0.2580
16809TIP3    H171842   4.242   0.724   0.346 -0.0058  0.2700 -0.2524
16809TIP3    H271843   4.153   0.701   0.466  0.6534 -0.4077  0.1170
16810TIP3   OH271844   2.986   0.732  12.133  0.4303  0.2036 -0.1770
16810TIP3    H171845   2.952   0.659  12.184  1.0139  0.9488  1.3631
16810TIP3    H271846   3.049   0.693  12.073  0.2620 -0.6170  0.1686
16811TIP3   OH271847   0.949   1.210   6.540 -0.4668  0.5980  0.0886
16811TIP3    H171848   0.891   1.286   6.539 -0.7480  0.4002  0.6760
16811TIP3    H271849   1.028   1.241   6.586 -0.3726  0.6811 -0.1293
16812TIP3   OH271850   1.471   4.080  17.259 -0.2351  0.6042  0.0211
16812TIP3    H171851   1.407   4.023  17.216 -0.3552  1.0179 -0.3544
16812TIP3    H271852   1.523   4.020  17.313  1.1158 -0.2606 -2.0931
16813TIP3   OH271853   4.251   5.459   4.547 -0.3052  0.0622 -0.0484
16813TIP3    H171854   4.176   5.414   4.506 -1.5144  1.5287  0.4618
16813TIP3    H271855   4.230   5.459   4.641  0.2957  0.5847  0.0901
16814TIP3   OH271856   0.301   2.150  13.327  0.0978  0.2084 -0.3431
16814TIP3    H171857   0.306   2.151  13.231 -0.9919  1.2648 -0.4070
16814TIP3    H271858   0.360   2.079  13.353  1.4096  0.7487 -1.7200
16815TIP3   OH271859   3.211   3.252   6.059 -0.8580  0.2589  0.8343
16815TIP3    H171860   3.143   3.279   6.120 -0.7540 -0.4503  1.2751
16815TIP3    H271861   3.230   3.162   6.083  0.4178  0.5260  0.8808
16816TIP3   OH271862   3.663   1.844   4.773 -0.7147  0.3784 -0.2025
16816TIP3    H171863   3.719   1.919   4.754 -3.0240  2.6203  1.1566
16816TIP3    H271864   3.657   1.841   4.869 -0.1842 -2.0098 -0.1733
16817TIP3   OH271865   2.167   4.644   3.491 -0.2253  0.9835 -0.3639
16817TIP3    H171866   2.182   4.585   3.418 -0.0592  0.8839 -0.2503
16817TIP3    H271867   2.073   4.637   3.509 -0.0071 -0.1875  0.4430
16818TIP3   OH271868   2.562   1.035   1.992 -1.0471 -0.1414 -0.0005
16818TIP3    H171869   2.554   1.123   2.027 -0.5357 -0.9017  2.1804
16818TIP3    H271870   2.578   1.048   1.898 -1.6242  2.0333  0.1474
16819TIP3   OH271871   5.813   5.545  10.705 -0.3699  0.3428 -0.2486
16819TIP3    H171872   5.870   5.582  10.772  0.7331 -0.5278 -0.6893
16819TIP3    H271873   5.724   5.570  10.732  0.0575  0.0823  1.4677
16820TIP3   OH271874   4.187   2.654  16.981  0.1979 -0.6306 -0.2003
16820TIP3    H171875   4.172   2.747  16.962 -1.5501 -0.4335  1.6978
16820TIP3    H271876   4.100   2.621  17.004  1.1324 -2.2111  1.2575
16821TIP3   OH271877   5.029   5.310   5.136 -0.1344  0.7004  0.1094
16821TIP3    H171878   5.027   5.245   5.066  1.1409  0.9048 -0.1440
16821TIP3    H271879   5.023   5.259   5.217 -0.3161  0.3629 -0.1168
16822TIP3   OH271880   0.515   6.407   1.904 -0.1658 -0.4295  0.3033
16822TIP3    H171881   0.462   6.469   1.855 -1.1900 -1.3968  0.1434
16822TIP3    H271882   0.589   6.387   1.847 -1.6512 -2.0062 -1.1621
16823TIP3   OH271883   6.750   1.232  11.833 -0.3401  0.0002  0.2762
16823TIP3    H171884   6.676   1.187  11.794  0.3402  0.1934 -1.3016
16823TIP3    H271885   6.733   1.325  11.818  1.8846  0.0192 -3.5725
16824TIP3   OH271886   3.025   6.240  12.935 -0.1877 -0.2978  0.5080
16824TIP3    H171887   2.945   6.289  12.956 -0.3843 -0.2065 -0.4148
16824TIP3    H271888   3.043   6.261  12.843  1.2275  0.1393  0.8616
16825TIP3   OH271889   0.725   6.396  11.858  0.0817 -0.2008  0.1629
16825TIP3    H171890   0.700   6.432  11.773  0.0474 -1.6316 -0.4561
16825TIP3    H271891   0.816   6.368  11.847 -0.0817 -0.8546  0.4249
16826TIP3   OH271892   1.788   6.057  14.700 -0.2417  1.1103  0.9581
16826TIP3    H171893   1.878   6.090  14.691  0.7749 -1.0738  2.0845
16826TIP3    H271894   1.776   6.002  14.623 -0.9645  2.0888  0.3639
16827TIP3   OH271895   1.722   2.594  14.953 -0.1952  0.1286 -0.0103
16827TIP3    H171896   1.785   2.522  14.956  0.3691  0.5332 -1.3585
16827TIP3    H271897   1.740   2.638  14.870 -2.4144  0.1155 -0.5762
16828TIP3   OH271898   2.927   1.240  12.042  0.3943  0.3497  0.0821
16828TIP3    H171899   2.900   1.258  11.952 -2.4163  1.3812  1.0045
16828TIP3    H271900   2.919   1.145  12.051  0.6309  0.2506 -0.7205
16829TIP3   OH271901   5.541   4.762  14.416  0.3341  0.2928 -0.6674
16829TIP3    H171902   5.477   4.691  14.420  1.8438 -1.2118 -1.8226
16829TIP3    H271903   5.591   4.754  14.498 -1.3980  2.0206  0.6589
16830TIP3   OH271904   6.627   2.475   6.059  0.0035 -0.0737 -0.5735
16830TIP3    H171905   6.663   2.525   6.132 -2.1960  0.0801  0.4846
16830TIP3    H271906   6.647   2.384   6.081  0.2853  0.0467 -0.3259
16831TIP3   OH271907   1.102   1.724  11.063  0.4930  0.1043 -0.3886
16831TIP3    H171908   1.069   1.796  11.009  0.6929  1.4967  1.2837
16831TIP3    H271909   1.085   1.751  11.153  1.3735 -1.5610  0.3286
16832TIP3   OH271910   3.716   1.522   5.811 -0.3689 -0.3782  0.4383
16832TIP3    H171911   3.775   1.528   5.736 -0.7415  2.6541  0.2510
16832TIP3    H271912   3.769   1.550   5.886 -0.3396 -2.2005  1.1425
16833TIP3   OH271913   5.541   0.044  12.553  0.1255 -0.5045 -0.0913
16833TIP3    H171914   5.629   0.021  12.523  0.8697 -0.0842  1.6032
16833TIP3    H271915   5.521   0.126  12.509  1.7264  0.7803  1.4237
16834TIP3   OH271916   6.071   6.173   0.011 -0.0135 -0.1975  0.4735
16834TIP3    H171917   6.166   6.158   0.015 -0.0671 -0.4349  0.9410
16834TIP3    H271918   6.033   6.086   0.015 -0.2259 -0.1820 -0.9733
16835TIP3   OH271919   4.764   0.506  15.275 -0.1739  0.0180 -0.4364
16835TIP3    H171920   4.790   0.565  15.204  0.0903 -1.1498 -1.3438
16835TIP3    H271921   4.810   0.424  15.256 -1.1211 -0.7266  0.3602
16836TIP3   OH271922   2.232   4.233   6.059  0.1873  0.2545 -0.0430
16836TIP3    H171923   2.296   4.178   6.014  0.3948  0.8997 -0.5494
16836TIP3    H271924   2.273   4.253   6.143 -0.8581 -2.2679  1.1933
16837TIP3   OH271925   6.519   4.360   0.272 -0.1831 -0.1528 -0.2996
16837TIP3    H171926   6.519   4.452   0.300  0.5026  0.2666 -1.6000
16837TIP3    H271927   6.447   4.321   0.321 -2.5599  1.8063 -1.9831
16838TIP3   OH271928   2.811   0.490  12.985 -0.4785 -0.0039 -0.4598
16838TIP3    H171929   2.885   0.551  12.982  0.1733 -0.8029 -1.8822
16838TIP3    H271930   2.758   0.520  13.058 -1.0887  3.3026 -2.0685
16839TIP3   OH271931   5.593   6.528  14.808  0.6407 -0.0645  0.1487
16839TIP3    H171932   5.616   6.602  14.752 -0.1078 -1.1625 -1.7398
16839TIP3    H271933   5.638   6.454  14.768  1.8056 -0.5757  2.3067
16840TIP3   OH271934   3.010   4.040   4.245 -0.2236 -0.0908 -0.3849
16840TIP3    H171935   3.025   3.945   4.246  0.8276  0.0580 -0.9015
16840TIP3    H271936   3.063   4.073   4.318 -2.1004 -0.0771  1.0560
16841TIP3   OH271937   2.167   2.658   1.432 -0.2660 -0.2546  0.1101
16841TIP3    H171938   2.098   2.712   1.392  0.5766  2.2819  1.7949
16841TIP3    H271939   2.222   2.631   1.359  0.4695  3.0565 -0.7377
16842TIP3   OH271940   1.599   5.870   1.491 -0.1968 -0.2129  0.1393
16842TIP3    H171941   1.629   5.807   1.425 -0.3989  0.0376 -0.1938
16842TIP3    H271942   1.652   5.948   1.476  1.3693 -0.8974  1.7433
16843TIP3   OH271943   4.293   2.597   2.820  0.9051 -0.1921  0.1894
16843TIP3    H171944   4.230   2.527   2.802 -0.6099  0.6152  1.9664
16843TIP3    H271945   4.378   2.553   2.823  0.5118 -1.2959 -2.4251
16844TIP3   OH271946   4.946   6.613  12.659  0.0613 -0.5036  0.4811
16844TIP3    H171947   4.950   6.524  12.695  0.5092 -1.3256 -1.4273
16844TIP3    H271948   4.951   6.600  12.564  1.5513  1.6578  0.2000
16845TIP3   OH271949   0.280   1.057   3.671  0.1326  0.0679  0.2135
16845TIP3    H171950   0.238   0.991   3.617  0.9774 -1.8725  1.7983
16845TIP3    H271951   0.210   1.118   3.693 -0.9709 -0.9541 -0.3208
16846TIP3   OH271952   1.267   1.347  15.198  0.8437 -0.2875 -0.3367
16846TIP3    H171953   1.173   1.353  15.179  0.6403  2.5746  0.9455
16846TIP3    H271954   1.307   1.404  15.132  1.3275  0.6516  0.7297
16847TIP3   OH271955   5.423   6.340   4.951  0.5020 -0.0233 -0.2438
16847TIP3    H171956   5.466   6.259   4.925  1.7446  0.4641  0.2101
16847TIP3    H271957   5.361   6.315   5.019  1.0014 -0.5653  0.0167
16848TIP3   OH271958   4.516   3.681  10.783  0.1072  0.0761  0.2143
16848TIP3    H171959   4.592   3.694  10.839  0.6566 -2.0171  0.0396
16848TIP3    H271960   4.524   3.591  10.752 -1.0982  0.6197 -1.8549
16849TIP3   OH271961   4.233   1.147   5.762  0.3753 -0.7035  0.0226
16849TIP3    H171962   4.307   1.106   5.717 -0.1284 -0.2120 -1.3101
16849TIP3    H271963   4.229   1.103   5.847  1.9235 -1.0287 -0.0424
16850TIP3   OH271964   5.831   4.014   5.823 -0.0271 -0.1390 -0.1261
16850TIP3    H171965   5.863   4.010   5.913 -0.8284  0.6044  0.2064
16850TIP3    H271966   5.910   4.014   5.770  0.4609 -2.7197  0.4399
16851TIP3   OH271967   0.025   6.739  14.154  0.0844 -0.4435 -0.5325
16851TIP3    H171968   0.046   6.661  14.205  0.9372  0.6881  0.9522
16851TIP3    H271969   0.036   6.712  14.063  1.2627 -1.8159 -0.0279
16852TIP3   OH271970   1.086   3.579   2.029  0.1963 -0.0903  0.0429
16852TIP3    H171971   1.107   3.668   2.003  0.5109  0.3349  1.6204
16852TIP3    H271972   1.129   3.524   1.964  0.6185  0.8888 -0.5256
16853TIP3   OH271973   4.874   3.293   6.471 -0.3675  0.3641 -0.3632
16853TIP3    H171974   4.786   3.293   6.434 -0.1329 -1.3435 -0.9972
16853TIP3    H271975   4.863   3.255   6.559 -0.3090  0.5028 -0.2948
16854TIP3   OH271976   2.740   0.263   5.059 -0.2531 -0.3021  0.4621
16854TIP3    H171977   2.684   0.190   5.086 -0.4253 -0.0206  0.8790
16854TIP3    H271978   2.759   0.309   5.141 -0.2748  0.2137  0.1783
16855TIP3   OH271979   0.845   1.690  16.270 -0.6837  0.0649  0.2183
16855TIP3    H171980   0.887   1.708  16.185  0.2214 -1.1262  0.3951
16855TIP3    H271981   0.754   1.718  16.258 -0.5909 -0.1625 -1.1782
16856TIP3   OH271982   1.556   6.251  16.278  0.2503 -0.4820 -0.4870
16856TIP3    H171983   1.647   6.252  16.249  1.3849  1.8482  2.6207
16856TIP3    H271984   1.556   6.198  16.358 -1.0934 -0.3058 -0.3454
16857TIP3   OH271985   3.288   4.139  16.937  0.2838 -0.7602 -0.2305
16857TIP3    H171986   3.229   4.204  16.975  0.2532 -0.5892 -0.5651
16857TIP3    H271987   3.370   4.150  16.986  0.0402 -1.0114  0.2498
16858TIP3   OH271988   0.813   4.385  12.830 -0.0694 -0.6903  0.4382
16858TIP3    H171989   0.860   4.467  12.845 -0.3931 -0.0765 -1.6182
16858TIP3    H271990   0.875   4.316  12.856  0.0050  0.1464  2.7234
16859TIP3   OH271991   1.404   0.240  13.867  0.2222  0.3659  0.1051
16859TIP3    H171992   1.391   0.227  13.774 -0.7380  0.7846  0.1672
16859TIP3    H271993   1.420   0.334  13.876  0.8006  0.2555  0.3213
16860TIP3   OH271994   6.682   2.543   5.807  0.5716  0.8157  0.7965
16860TIP3    H171995   6.691   2.636   5.787 -1.5620  0.8006 -0.5403
16860TIP3    H271996   6.649   2.541   5.897  0.3837  1.3686  0.7410
16861TIP3   OH271997   3.386   6.102   3.442  0.1154  0.5516  0.1818
16861TIP3    H171998   3.451   6.168   3.465  0.3548  0.5333 -0.4136
16861TIP3    H271999   3.302   6.139   3.469  0.3410  0.7260  0.6334
16862TIP3   OH272000   5.751   4.394   5.001 -0.1336  0.1092 -0.4510
16862TIP3    H172001   5.846   4.400   5.005 -0.1702  0.0983  0.9348
16862TIP3    H272002   5.732   4.303   5.023 -0.4564  0.0988 -0.7762
16863TIP3   OH272003   3.867   2.284  13.495 -0.1372  0.3496  0.2614
16863TIP3    H172004   3.844   2.377  13.484  0.8747  0.7851  1.6205
16863TIP3    H272005   3.962   2.284  13.501 -0.2488 -0.4682  2.8220
16864TIP3   OH272006   5.443   3.024  11.263 -0.2556 -0.0961  0.2717
16864TIP3    H172007   5.431   2.935  11.231  0.9078 -0.6229  1.2290
16864TIP3    H272008   5.400   3.025  11.348  0.0210  0.1397  0.4124
16865TIP3   OH272009   3.971   0.366   2.079  0.1292 -0.3299 -0.7496
16865TIP3    H172010   4.007   0.278   2.089 -0.3667 -0.7114 -2.0948
16865TIP3    H272011   4.024   0.405   2.009 -0.4395 -0.0143 -1.0094
16866TIP3   OH272012   6.019   2.551   1.113  0.2133 -0.0890 -0.0772
16866TIP3    H172013   6.012   2.563   1.208 -0.0144 -0.6376 -0.0205
16866TIP3    H272014   6.042   2.637   1.080 -2.0312  0.6841  0.2250
16867TIP3   OH272015   3.021   3.842   0.888 -0.3750  0.1621 -0.0514
16867TIP3    H172016   2.934   3.845   0.926 -0.7116 -0.6236 -0.7228
16867TIP3    H272017   3.007   3.857   0.794  0.2618  0.4985 -0.1005
16868TIP3   OH272018   0.867   5.827  13.488  0.8700 -0.3602  0.3852
16868TIP3    H172019   0.918   5.763  13.437  1.3598 -0.7154  1.2905
16868TIP3    H272020   0.783   5.831  13.444  1.4589 -0.2499 -0.7750
16869TIP3   OH272021   2.872   2.179  13.631  0.1712 -0.3584  0.3371
16869TIP3    H172022   2.907   2.111  13.574 -0.8360  0.3012 -1.1483
16869TIP3    H272023   2.921   2.258  13.607 -2.5293  0.7390 -2.2535
16870TIP3   OH272024   1.939   4.355   0.082  0.1716  0.8354 -0.0337
16870TIP3    H172025   1.946   4.422   0.150 -0.0334  0.3933  0.4300
16870TIP3    H272026   1.882   4.288   0.120  0.2352  0.4808 -0.5555
16871TIP3   OH272027   3.304   1.574   3.897  0.3384  0.0952 -0.1342
16871TIP3    H172028   3.297   1.669   3.893 -0.6620  0.0448  0.2093
16871TIP3    H272029   3.229   1.546   3.949 -0.2172 -0.9840 -1.4271
16872TIP3   OH272030   0.747   2.666   4.605 -0.3343  0.1637 -0.4631
16872TIP3    H172031   0.654   2.644   4.596  0.0841 -0.8709 -3.0750
16872TIP3    H272032   0.760   2.743   4.550  0.8171 -1.3235 -2.3929
16873TIP3   OH272033   3.221   2.070  12.210 -0.3160  0.0218  0.1013
16873TIP3    H172034   3.170   2.076  12.129 -0.1487  0.1584  0.0038
16873TIP3    H272035   3.157   2.049  12.278 -0.3534 -0.8917 -0.1918
16874TIP3   OH272036   2.556   2.746   1.500  0.0591  0.2959  0.0270
16874TIP3    H172037   2.491   2.758   1.431  0.6321  1.0463 -0.3899
16874TIP3    H272038   2.634   2.715   1.455 -0.7908 -3.6381  0.8388
16875TIP3   OH272039   3.192   5.819   0.866 -0.8430  0.4347  0.0888
16875TIP3    H172040   3.148   5.903   0.853  1.7197  2.1556  1.5890
16875TIP3    H272041   3.207   5.814   0.960  1.9518 -0.0406 -0.2900
16876TIP3   OH272042   2.652   0.518   2.665  0.0071 -0.4643 -0.1577
16876TIP3    H172043   2.593   0.445   2.684 -1.4804  0.2146 -1.8337
16876TIP3    H272044   2.604   0.571   2.601  1.2764  1.6922  0.5960
16877TIP3   OH272045   4.396   5.928   3.692  0.0273 -0.4995 -0.3500
16877TIP3    H172046   4.387   5.902   3.600 -0.6959 -2.1756  0.1493
16877TIP3    H272047   4.319   5.981   3.710  0.1870 -0.1378 -0.7016
16878TIP3   OH272048   1.082   4.391  12.563  0.4538 -0.1460  0.0508
16878TIP3    H172049   1.072   4.300  12.590  1.4330 -0.6950 -1.3351
16878TIP3    H272050   1.176   4.407  12.566  0.3272  0.6894 -0.1417
16879TIP3   OH272051   4.090   3.643  12.276  0.2423 -0.5639 -0.0925
16879TIP3    H172052   4.181   3.629  12.250 -0.2007 -0.4657 -1.8051
16879TIP3    H272053   4.040   3.580  12.225 -0.4663 -2.7216  2.9868
16880TIP3   OH272054   2.246   6.589   0.040 -0.5395  0.0901 -0.3807
16880TIP3    H172055   2.259   6.588  -0.055 -0.6330  0.1366 -0.3948
16880TIP3    H272056   2.316   6.645   0.073 -0.1643 -0.3846 -0.3665
16881TIP3   OH272057   3.705   5.005  12.543 -0.2256  0.1148  0.1497
16881TIP3    H172058   3.775   5.007  12.478 -0.4673 -0.5608 -0.1430
16881TIP3    H272059   3.656   5.087  12.529 -1.0362 -0.5892 -1.3875
16882TIP3   OH272060   6.160   1.302   0.573 -0.0653  1.0402 -0.2917
16882TIP3    H172061   6.195   1.291   0.661 -2.7045 -2.1574  0.5287
16882TIP3    H272062   6.170   1.217   0.532 -0.6257  1.9363 -2.4330
16883TIP3   OH272063   3.446   3.962   6.058 -0.4703  0.4647 -0.4917
16883TIP3    H172064   3.503   3.918   6.121  0.8935  2.9186  0.1612
16883TIP3    H272065   3.469   3.923   5.973 -0.8625 -1.4593  0.2427
16884TIP3   OH272066   4.664   4.167   5.468 -0.2363  0.1962 -0.3795
16884TIP3    H172067   4.721   4.219   5.525  1.0219 -0.7394 -0.7302
16884TIP3    H272068   4.711   4.085   5.456 -1.1966 -0.2128 -1.5225
16885TIP3   OH272069   6.596   0.533   5.731 -0.1730  0.4701 -0.1169
16885TIP3    H172070   6.558   0.466   5.788  0.4533 -1.4430 -1.8022
16885TIP3    H272071   6.690   0.515   5.732 -0.1380  0.4109 -1.6491
16886TIP3   OH272072   6.699   0.980  14.954  0.1980  0.0026 -0.2161
16886TIP3    H172073   6.616   0.972  15.001  1.0580  1.6376  1.7908
16886TIP3    H272074   6.744   0.897  14.970  1.2932  1.1351  3.8411
16887TIP3   OH272075   5.901   6.524   5.842  0.4620  0.1512 -0.6557
16887TIP3    H172076   5.918   6.463   5.914 -1.0170  0.0320 -0.3702
16887TIP3    H272077   5.941   6.483   5.766  1.1434 -0.2316 -0.1039
16888TIP3   OH272078   2.735   2.563  16.079  0.3807  0.1807  0.0355
16888TIP3    H172079   2.780   2.642  16.111  2.3917 -1.6731  2.1071
16888TIP3    H272080   2.644   2.591  16.067  0.1964  2.0027  4.1601
16889TIP3   OH272081   2.175   1.565  16.012  0.1654 -0.7851 -0.7643
16889TIP3    H172082   2.133   1.618  15.944  0.1211 -1.5150 -1.3073
16889TIP3    H272083   2.260   1.542  15.976  1.3727  1.2236  0.5812
16890TIP3   OH272084   0.838   2.277  14.353  0.0656 -0.0953 -0.4160
16890TIP3    H172085   0.891   2.225  14.293 -0.2647  0.3939 -1.1337
16890TIP3    H272086   0.899   2.341  14.390  1.1980 -2.6740  2.6272
16891TIP3   OH272087   3.645   0.735  13.870 -0.0551 -0.2335 -0.1844
16891TIP3    H172088   3.622   0.655  13.822 -0.3491 -2.3298  3.1067
16891TIP3    H272089   3.731   0.716  13.908  1.1387  2.1808 -1.4454
16892TIP3   OH272090   2.476   0.955  16.353 -0.1809  0.3738 -0.1896
16892TIP3    H172091   2.413   0.893  16.317 -0.2470 -0.1740  0.8317
16892TIP3    H272092   2.530   0.903  16.413 -0.1589  1.2671  0.5926
16893TIP3   OH272093   4.924   4.016  16.062  0.6175  0.1958  0.5326
16893TIP3    H172094   4.905   4.101  16.102  2.4580  0.4202  0.9978
16893TIP3    H272095   4.845   3.964  16.077 -0.4446  1.7327  0.4540
16894TIP3   OH272096   1.293   6.658  15.806  0.3047 -0.1855 -0.9864
16894TIP3    H172097   1.368   6.703  15.845  0.1460  0.9562 -1.9388
16894TIP3    H272098   1.332   6.584  15.758  0.5782 -1.0374  0.4993
16895TIP3   OH272099   4.108   2.775  14.227 -0.5081 -0.3889 -0.2525
16895TIP3    H172100   4.062   2.858  14.214 -0.4340 -0.1301  1.0055
16895TIP3    H272101   4.082   2.746  14.315 -2.3552 -2.9042 -1.5005
16896TIP3   OH272102   0.336   5.997   4.745 -0.8841 -1.0418 -0.4629
16896TIP3    H172103   0.292   6.081   4.744 -0.1637 -0.6591 -1.5278
16896TIP3    H272104   0.429   6.019   4.748 -0.7059 -1.8257  1.2208
16897TIP3   OH272105   4.369   3.252  15.795  0.6565  0.6573  0.1589
16897TIP3    H172106   4.302   3.231  15.861  0.5520 -0.0605 -0.1610
16897TIP3    H272107   4.323   3.244  15.711  0.8625  1.2713 -0.0169
16898TIP3   OH272108   0.655   3.084   6.169  0.5020 -0.2798  0.6988
16898TIP3    H172109   0.712   3.110   6.241  0.5423 -1.9241  1.2851
16898TIP3    H272110   0.574   3.134   6.182  1.1135  0.6698  0.9135
16899TIP3   OH272111   4.392   4.619   5.562 -0.8311 -0.0707 -0.2535
16899TIP3    H172112   4.386   4.692   5.500 -1.6017 -0.9561 -1.2607
16899TIP3    H272113   4.333   4.553   5.526 -0.4455 -1.0386  0.8514
16900TIP3   OH272114   5.327   0.497  15.316  0.0942 -0.3642  0.4941
16900TIP3    H172115   5.266   0.446  15.369 -0.1289 -0.3587  0.2467
16900TIP3    H272116   5.412   0.483  15.357  0.2936 -2.1201 -0.3974
16901TIP3   OH272117   5.652   4.381   3.106  0.3450  0.4847  0.7819
16901TIP3    H172118   5.573   4.392   3.159 -0.7946  1.4003 -1.0322
16901TIP3    H272119   5.707   4.321   3.157 -0.9002  0.9255  2.7397
16902TIP3   OH272120   4.080   1.380  15.683  0.1340 -0.6596 -1.0395
16902TIP3    H172121   4.094   1.372  15.777  1.8313 -0.0070 -1.2129
16902TIP3    H272122   4.164   1.410  15.648 -0.5058 -0.7475 -2.7483
16903TIP3   OH272123   0.746   6.598   0.880  0.2642 -1.0544  0.3898
16903TIP3    H172124   0.797   6.518   0.873  1.0892 -0.5346  0.2845
16903TIP3    H272125   0.704   6.592   0.966  1.1602 -1.1308  0.8420
16904TIP3   OH272126   4.405   1.997  17.369  0.0177  0.0231  0.2590
16904TIP3    H172127   4.452   2.074  17.336  0.7347 -0.5335 -0.0513
16904TIP3    H272128   4.412   2.004  17.464  1.2290 -0.3314  0.2155
16905TIP3   OH272129   0.486   5.416   4.976 -0.0986 -0.0568 -0.4425
16905TIP3    H172130   0.493   5.321   4.980  0.6144  0.0385  1.2858
16905TIP3    H272131   0.569   5.448   5.011 -1.1851  1.1714  1.1768
16906TIP3   OH272132   6.013   1.377   1.832  0.7296  0.0469 -0.4966
16906TIP3    H172133   6.026   1.359   1.739  1.8902  1.8410 -0.7442
16906TIP3    H272134   5.973   1.464   1.834  1.0652  0.1956  0.6665
16907TIP3   OH272135   5.015   3.298   4.382 -0.1977 -0.5002  0.1773
16907TIP3    H172136   4.952   3.331   4.446  0.5700  1.8396 -0.2030
16907TIP3    H272137   4.960   3.264   4.311 -1.0236 -0.5358  0.8046
16908TIP3   OH272138   0.133   0.557  15.548  0.1958  0.1699 -0.6288
16908TIP3    H172139   0.055   0.598  15.511 -0.4633 -1.1999 -0.8399
16908TIP3    H272140   0.176   0.515  15.474  0.2501 -0.4485 -0.2588
16909TIP3   OH272141   4.187   6.721  13.907  0.3055  0.2015 -0.3478
16909TIP3    H172142   4.173   6.800  13.855 -0.8523  1.4405  1.7214
16909TIP3    H272143   4.223   6.658  13.845  0.9747  2.2297 -2.1484
16910TIP3   OH272144   4.766   6.096   2.967 -0.0889 -0.0413  0.5130
16910TIP3    H172145   4.811   6.180   2.957  0.8419 -0.5631  0.2634
16910TIP3    H272146   4.789   6.047   2.889  0.4052 -0.9985  1.2385
16911TIP3   OH272147   4.778   2.258  11.216 -0.1831 -0.2443  0.1560
16911TIP3    H172148   4.860   2.210  11.227 -0.1668  0.1717  2.1819
16911TIP3    H272149   4.736   2.217  11.140  0.7633 -2.1064  0.5819
16912TIP3   OH272150   6.142   5.595  14.685  0.3485  0.4543 -0.2031
16912TIP3    H172151   6.054   5.560  14.699  0.2151 -0.6002 -2.9512
16912TIP3    H272152   6.141   5.682  14.724 -2.3918  1.0365 -1.4023
16913TIP3   OH272153   2.622   1.930  14.239 -0.0239  0.3747  0.0177
16913TIP3    H172154   2.550   1.949  14.177 -1.8153 -0.7423  1.6330
16913TIP3    H272155   2.667   1.855  14.200 -0.5576  0.2500 -0.3757
16914TIP3   OH272156   6.671   3.936  16.553  0.2840  0.1771  0.0922
16914TIP3    H172157   6.739   3.999  16.529  0.9883  0.1946  1.9710
16914TIP3    H272158   6.718   3.856  16.575 -0.4999 -0.5589 -0.8155
16915TIP3   OH272159   1.985   1.274  14.664 -0.2512  0.4495 -0.7809
16915TIP3    H172160   1.962   1.181  14.664 -1.1417  0.6273  1.2061
16915TIP3    H272161   2.080   1.275  14.674 -0.2945 -0.2414 -0.2655
16916TIP3   OH272162   1.576   6.311   6.546 -0.5984  0.2420  0.4760
16916TIP3    H172163   1.488   6.318   6.584 -0.8939 -1.4931  0.2148
16916TIP3    H272164   1.607   6.225   6.575  1.0776  0.8882  0.6761
16917TIP3   OH272165   1.503   4.072  13.956  0.4057  0.1264  1.3060
16917TIP3    H172166   1.508   4.153  14.006  1.0573  1.0498 -0.1914
16917TIP3    H272167   1.431   4.023  13.997 -0.1600  1.5557  2.0825
16918TIP3   OH272168   2.668   5.905  14.408  0.0732  0.3021  0.7867
16918TIP3    H172169   2.761   5.922  14.426  0.6302 -0.5189 -1.1005
16918TIP3    H272170   2.651   5.820  14.449  0.1228  0.4754  1.1786
16919TIP3   OH272171   3.949   6.417  15.628  0.1676 -0.3309 -1.2257
16919TIP3    H172172   3.968   6.420  15.722 -1.9204 -0.0749 -0.7550
16919TIP3    H272173   4.026   6.375  15.590  1.3432  0.1251  0.5041
16920TIP3   OH272174   2.423   1.918  15.532  0.0047  0.1347  0.2151
16920TIP3    H172175   2.478   1.872  15.468  0.5601  1.0645  0.0109
16920TIP3    H272176   2.414   2.006  15.497  0.6459  0.7740  1.6073
16921TIP3   OH272177   3.601   0.389  14.977 -0.4631 -0.3214  0.1450
16921TIP3    H172178   3.611   0.381  15.072 -0.2675  0.8908  0.2534
16921TIP3    H272179   3.516   0.432  14.966  0.4714  1.5847 -0.0794
16922TIP3   OH272180   2.047   3.012   2.352 -0.4241 -0.0380  0.3219
16922TIP3    H172181   2.033   2.941   2.289  0.7066 -0.4613  0.5336
16922TIP3    H272182   2.095   3.079   2.303  0.3214 -0.3020  0.6786
16923TIP3   OH272183   0.467   6.342   5.799 -0.5132 -0.1802 -0.1746
16923TIP3    H172184   0.494   6.427   5.766 -1.2746  0.5939  1.0897
16923TIP3    H272185   0.474   6.350   5.895  1.7926 -2.3548 -0.0388
16924TIP3   OH272186   1.142   3.282   4.785  0.5160 -0.4952 -0.1017
16924TIP3    H172187   1.140   3.322   4.698 -1.2662  0.0361  0.1523
16924TIP3    H272188   1.217   3.222   4.782  0.6412 -0.2957 -1.9090
16925TIP3   OH272189   6.669   0.151  11.661 -0.2583  0.8867  0.1139
16925TIP3    H172190   6.730   0.170  11.733  0.3634  0.6513 -0.3359
16925TIP3    H272191   6.666   0.056  11.658  0.6141  0.8755 -0.8934
16926TIP3   OH272192   5.590   2.034  14.675  0.0156  0.0600  0.0922
16926TIP3    H172193   5.635   2.104  14.723 -1.3013  1.1824 -0.2082
16926TIP3    H272194   5.592   1.959  14.734  4.0246 -0.6813 -0.7277
16927TIP3   OH272195   3.532   2.729   2.129 -0.1213  0.1921 -0.2556
16927TIP3    H172196   3.537   2.753   2.037  2.1447 -0.7930 -0.4750
16927TIP3    H272197   3.439   2.715   2.146 -0.6628  1.1220 -2.1729
16928TIP3   OH272198   1.367   4.189  12.939 -0.7546 -0.4043 -0.3238
16928TIP3    H172199   1.360   4.141  13.022 -2.8423 -0.2316 -0.3612
16928TIP3    H272200   1.361   4.121  12.872 -0.8240 -0.3714 -0.3510
16929TIP3   OH272201   1.510   0.269   2.392  0.1674  0.6446 -0.4041
16929TIP3    H172202   1.572   0.231   2.454  1.4122  2.4561 -0.4613
16929TIP3    H272203   1.493   0.356   2.426 -1.7099  0.4939 -0.8696
16930TIP3   OH272204   2.848   6.724  12.712  0.4680 -0.5617 -0.6276
16930TIP3    H172205   2.779   6.724  12.779  1.3197 -1.6555  0.2941
16930TIP3    H272206   2.803   6.749  12.631 -0.5898  0.8124  0.3423
16931TIP3   OH272207   1.690   3.737  15.627  0.1630 -0.3098  0.0790
16931TIP3    H172208   1.746   3.735  15.705 -0.1200  0.3512  0.3017
16931TIP3    H272209   1.666   3.829  15.617 -3.3347 -0.8886  1.7669
16932TIP3   OH272210   0.687   1.314  15.293  0.0873  0.5965  0.2913
16932TIP3    H172211   0.739   1.360  15.359  1.8028 -1.7656  0.7341
16932TIP3    H272212   0.663   1.232  15.335 -1.0703  0.1732 -1.1329
16933TIP3   OH272213   0.259   5.115  16.814 -0.0927  0.3959 -0.2847
16933TIP3    H172214   0.319   5.174  16.858  0.7102  1.3050 -2.4800
16933TIP3    H272215   0.173   5.139  16.849  0.5207  0.8358  0.9952
16934TIP3   OH272216   3.205   1.433   1.994 -0.7879  0.3185  0.4718
16934TIP3    H172217   3.265   1.490   1.946 -1.1899  0.6494  0.3547
16934TIP3    H272218   3.181   1.483   2.072 -0.2247 -0.1731  0.9718
16935TIP3   OH272219   6.048   1.520   6.286  0.1965  0.5475  0.1617
16935TIP3    H172220   5.953   1.512   6.286  0.3085 -1.4644  0.1193
16935TIP3    H272221   6.065   1.613   6.301 -1.7582  0.9004  0.4390
16936TIP3   OH272222   2.346   1.044  13.840 -0.0397  0.3956  0.0169
16936TIP3    H172223   2.328   0.959  13.799 -2.0197  2.3203 -3.5540
16936TIP3    H272224   2.441   1.048  13.845  0.1258 -1.8226 -0.0794
16937TIP3   OH272225   0.558   1.400   1.420  0.3996 -0.8381  0.2305
16937TIP3    H172226   0.565   1.446   1.336 -2.5832 -0.5167  0.0358
16937TIP3    H272227   0.518   1.316   1.396 -2.1466 -0.0635  1.4084
16938TIP3   OH272228   1.436   4.895   0.218  0.6962  0.2431  0.6069
16938TIP3    H172229   1.432   4.808   0.178  0.5277  0.5494 -0.0586
16938TIP3    H272230   1.529   4.909   0.237  1.0050  0.7203 -1.1234
16939TIP3   OH272231   6.225   6.398   5.714 -0.1919  0.4270 -0.3969
16939TIP3    H172232   6.278   6.473   5.687  1.2775 -0.5986 -0.5113
16939TIP3    H272233   6.261   6.324   5.664 -1.4130 -0.4076 -0.0932
16940TIP3   OH272234   2.810   1.468  13.480 -0.2438 -0.2666 -0.0449
16940TIP3    H172235   2.839   1.439  13.566  0.6198 -0.1131 -0.2797
16940TIP3    H272236   2.844   1.557  13.472 -2.0039  0.4756  0.2558
16941TIP3   OH272237   1.125   3.265   3.218  0.0911 -0.2915  0.1778
16941TIP3    H172238   1.115   3.208   3.295  1.2031  0.6641  1.0633
16941TIP3    H272239   1.161   3.346   3.253 -0.7737  0.7200 -1.1652
16942TIP3   OH272240   3.294   5.672   4.128  0.2805  0.1502  0.3320
16942TIP3    H172241   3.368   5.697   4.073 -1.4735  2.3192 -1.2517
16942TIP3    H272242   3.308   5.719   4.210  0.1590  1.3875 -0.3419
16943TIP3   OH272243   1.666   5.372   5.341 -0.1992 -0.6423  0.3271
16943TIP3    H172244   1.733   5.362   5.273 -0.6930 -1.2554 -0.0837
16943TIP3    H272245   1.586   5.391   5.293 -0.4691 -0.6609  0.7686
16944TIP3   OH272246   3.796   6.730   2.698 -0.0643  0.6145  0.4387
16944TIP3    H172247   3.818   6.739   2.605  0.6765  1.9291  0.7189
16944TIP3    H272248   3.747   6.648   2.703  0.8203 -0.0312 -0.9475
16945TIP3   OH272249   0.314   5.914   1.973  0.3835 -0.4893  0.1361
16945TIP3    H172250   0.380   5.886   2.037  0.2604 -1.1229 -0.0008
16945TIP3    H272251   0.314   5.843   1.908 -0.1553 -0.3013 -0.0683
16946TIP3   OH272252   5.903   0.506   2.194 -0.4127 -0.4311  0.2234
16946TIP3    H172253   5.890   0.480   2.285 -1.0202  1.3827  0.7076
16946TIP3    H272254   5.957   0.437   2.156 -0.3250 -1.3261  1.8962
16947TIP3   OH272255   3.959   6.382  17.293 -0.1447  0.2181 -0.4648
16947TIP3    H172256   4.048   6.378  17.330 -0.2175  0.4074 -0.2676
16947TIP3    H272257   3.923   6.465  17.326 -1.2278 -0.9057  1.3851
16948TIP3   OH272258   2.331   4.827   6.073  0.1038 -0.2293 -0.0786
16948TIP3    H172259   2.256   4.838   6.014  0.0399 -0.0637  0.0322
16948TIP3    H272260   2.344   4.733   6.078 -0.8356 -0.3387  0.8100
16949TIP3   OH272261   0.195   4.671   1.574  0.3467  0.1121 -0.6275
16949TIP3    H172262   0.104   4.690   1.595  0.6870  0.0543  1.0169
16949TIP3    H272263   0.197   4.667   1.478 -1.5107 -0.6436 -0.6739
16950TIP3   OH272264   2.206   0.405  16.829  0.6467 -0.1915 -0.3796
16950TIP3    H172265   2.120   0.390  16.789  1.1372  0.1235 -1.6141
16950TIP3    H272266   2.200   0.363  16.915 -1.3767  1.4709  0.3815
16951TIP3   OH272267   1.503   3.778   1.721  0.0916  0.4059  0.5611
16951TIP3    H172268   1.574   3.749   1.664 -1.2959  2.4453 -2.4566
16951TIP3    H272269   1.535   3.858   1.761 -0.0993  0.7443  0.0448
16952TIP3   OH272270   3.317   2.568  12.409  0.0330 -0.3638 -1.0676
16952TIP3    H172271   3.232   2.610  12.392 -0.5244 -1.2857 -0.6345
16952TIP3    H272272   3.349   2.609  12.489 -0.1416 -0.2263 -1.0675
16953TIP3   OH272273   2.748   4.628   1.565  0.2453 -0.4199  0.4611
16953TIP3    H172274   2.799   4.608   1.644  1.1865 -1.8602 -0.4520
16953TIP3    H272275   2.658   4.609   1.590  0.8318 -4.3890  0.2962
16954TIP3   OH272276   3.825   5.851  12.689  0.0987  0.0214  0.2663
16954TIP3    H172277   3.744   5.887  12.727  0.2411  0.3788  0.2357
16954TIP3    H272278   3.795   5.801  12.613 -0.1524 -0.3833  0.6285
16955TIP3   OH272279   4.702   1.386   0.959  0.4937  0.5428  0.2597
16955TIP3    H172280   4.680   1.351   1.045  1.2536  0.9453  0.6209
16955TIP3    H272281   4.790   1.422   0.969  1.3319 -0.9460 -1.1160
16956TIP3   OH272282   0.113   6.488  13.443  0.3956 -0.4049  0.0725
16956TIP3    H172283   0.197   6.514  13.406  0.4470 -1.3476 -0.5226
16956TIP3    H272284   0.128   6.488  13.538  0.1062  2.5396  0.1937
16957TIP3   OH272285   2.617   0.686  12.451 -0.1363  0.2960  0.3987
16957TIP3    H172286   2.626   0.768  12.402  1.5005  0.5049  0.9953
16957TIP3    H272287   2.702   0.673  12.493  0.1042 -2.3797 -0.7028
16958TIP3   OH272288   6.572   4.539  15.337  0.0803 -0.4456 -0.0164
16958TIP3    H172289   6.664   4.519  15.319  0.2478  0.1069  0.2103
16958TIP3    H272290   6.551   4.487  15.415 -0.0553 -1.2459 -0.5807
16959TIP3   OH272291   0.564   0.667   5.447  0.8511  0.6669 -0.2395
16959TIP3    H172292   0.498   0.598   5.455  0.6196  1.0365  1.2369
16959TIP3    H272293   0.638   0.624   5.403  1.2555 -0.9319  1.8463
16960TIP3   OH272294   0.271   1.071  10.879 -0.7613  0.4539 -0.2619
16960TIP3    H172295   0.265   1.085  10.973  2.4467 -2.7516  0.5951
16960TIP3    H272296   0.249   0.979  10.866  1.0511  0.2123 -2.2920
16961TIP3   OH272297   2.589   2.760  11.281  0.4034  0.2380 -0.0159
16961TIP3    H172298   2.650   2.795  11.216 -1.0656  0.5066 -1.3069
16961TIP3    H272299   2.503   2.766  11.240 -0.3624 -1.3986  1.2042
16962TIP3   OH272300   3.902   4.370  13.190 -0.2138  0.2197  0.1183
16962TIP3    H172301   3.918   4.465  13.190 -1.1466  0.3924 -0.4983
16962TIP3    H272302   3.989   4.331  13.185  0.1404  1.0594 -0.4870
16963TIP3   OH272303   0.139   5.038  15.138  0.0820 -0.3451  0.0944
16963TIP3    H172304   0.128   5.072  15.227 -0.5606  0.6956 -0.3583
16963TIP3    H272305   0.209   5.093  15.101 -0.0259 -0.4147 -0.2120
16964TIP3   OH272306   4.513   5.222   3.245 -0.1996  0.1940 -0.3988
16964TIP3    H172307   4.472   5.188   3.324  0.8577 -1.0934 -0.3858
16964TIP3    H272308   4.474   5.309   3.233 -0.9083  0.1004  1.1139
16965TIP3   OH272309   0.217   3.988   0.134 -0.0129  0.0503 -0.0758
16965TIP3    H172310   0.288   3.943   0.087  0.7844  1.0769  0.1257
16965TIP3    H272311   0.194   4.062   0.077 -1.3710 -0.6159 -0.4427
16966TIP3   OH272312   4.928   4.781   1.280  0.4634  0.5583  0.2728
16966TIP3    H172313   4.947   4.873   1.263 -0.1698  0.6357 -0.0784
16966TIP3    H272314   4.989   4.756   1.349  0.9311  1.1217  0.0728
16967TIP3   OH272315   1.927   0.211  12.282  0.3906 -0.3429 -0.0473
16967TIP3    H172316   1.846   0.254  12.307  1.8123  2.9398 -0.5776
16967TIP3    H272317   1.996   0.266  12.318  2.4110 -1.2308 -2.2631
16968TIP3   OH272318   0.284   4.672   3.622 -0.8246 -0.0331  0.0391
16968TIP3    H172319   0.245   4.659   3.535 -0.7435 -0.7564  0.1031
16968TIP3    H272320   0.213   4.655   3.683 -0.7371 -0.0793  0.1276
16969TIP3   OH272321   2.175   0.143  12.568  0.0716 -0.0329 -0.4875
16969TIP3    H172322   2.238   0.080  12.533 -0.6692 -0.6362 -0.7746
16969TIP3    H272323   2.146   0.103  12.651  0.1545  0.3017 -0.2944
16970TIP3   OH272324   2.994   5.141   2.796  0.0317  0.0084 -0.7513
16970TIP3    H172325   2.952   5.191   2.867 -0.6178  0.3315 -1.3438
16970TIP3    H272326   2.977   5.050   2.818  0.5987  0.0710 -0.0354
16971TIP3   OH272327   1.660   4.071  13.533  0.5008 -0.6174 -0.6789
16971TIP3    H172328   1.694   4.101  13.617  0.0822 -1.2836 -0.2584
16971TIP3    H272329   1.640   4.151  13.485  0.9714 -0.2297 -0.2407
16972TIP3   OH272330   0.119   4.703  14.874 -0.1537 -0.5166  0.4593
16972TIP3    H172331   0.127   4.719  14.968 -1.3370 -0.4475  0.5696
16972TIP3    H272332   0.208   4.707  14.841  0.1871  0.3913  1.4336
16973TIP3   OH272333   3.724   0.106  12.683 -0.1924  0.4795 -0.4113
16973TIP3    H172334   3.791   0.046  12.652 -0.3043 -0.0213  0.2960
16973TIP3    H272335   3.769   0.161  12.748  0.0413  1.5214 -1.4193
16974TIP3   OH272336   1.573   2.469  15.687 -0.2010  0.1691  0.3472
16974TIP3    H172337   1.618   2.479  15.603  0.7059 -0.8927  0.6783
16974TIP3    H272338   1.553   2.559  15.714  1.7517  0.6975  0.1848
16975TIP3   OH272339   3.128   0.874  11.515 -0.3754  0.8050  0.7490
16975TIP3    H172340   3.141   0.780  11.509 -0.7827  0.7798  0.1308
16975TIP3    H272341   3.175   0.910  11.440  1.5234  1.3000  2.1182
16976TIP3   OH272342   4.723   3.147   4.293  0.3629  0.3556 -0.0468
16976TIP3    H172343   4.744   3.211   4.224  1.8766 -0.4282 -0.3580
16976TIP3    H272344   4.629   3.159   4.309  0.0179  0.7608 -2.0555
16977TIP3   OH272345   0.664   6.596  16.185  0.2263  0.3246  0.0190
16977TIP3    H172346   0.712   6.564  16.262  0.8140  0.7651 -0.1607
16977TIP3    H272347   0.709   6.556  16.110 -0.4210 -0.2016 -0.0954
16978TIP3   OH272348   3.387   5.159   2.488  0.7155 -0.2110 -0.0947
16978TIP3    H172349   3.406   5.065   2.488  0.1715 -0.3312 -0.4098
16978TIP3    H272350   3.380   5.182   2.395  0.6687  0.1014 -0.0157
16979TIP3   OH272351   0.196   3.504  11.450  0.1865 -0.0767  0.1501
16979TIP3    H172352   0.114   3.540  11.416 -0.2158  0.2967  1.4478
16979TIP3    H272353   0.176   3.412  11.468  0.6846 -0.5349 -1.4648
16980TIP3   OH272354   1.196   4.006   3.338  0.3154  0.4578  0.1671
16980TIP3    H172355   1.163   3.998   3.428 -1.9365  0.3247 -0.6016
16980TIP3    H272356   1.269   3.944   3.334  1.8682  1.9734  2.4476
16981TIP3   OH272357   2.728   0.102  15.990 -0.5872 -0.3034  0.3440
16981TIP3    H172358   2.756   0.011  16.003  0.0088  0.1217  2.3033
16981TIP3    H272359   2.807   0.147  15.961 -0.3891 -0.0439  1.2616
16982TIP3   OH272360   6.353   0.635   1.797  0.0832  0.0360 -0.1568
16982TIP3    H172361   6.331   0.714   1.747 -2.4904 -0.6006 -0.1333
16982TIP3    H272362   6.410   0.667   1.867 -0.6255  1.8235 -0.3359
16983TIP3   OH272363   5.104   2.949  11.008 -0.4466  0.2235  0.5674
16983TIP3    H172364   5.023   2.900  11.020 -1.0475  1.5686  2.5108
16983TIP3    H272365   5.078   3.029  10.964  0.2925 -0.4658 -1.2138
16984TIP3   OH272366   1.962   1.791   1.427 -0.3304 -0.1681  0.4344
16984TIP3    H172367   2.035   1.828   1.478 -0.2016  0.3912 -0.1370
16984TIP3    H272368   2.002   1.723   1.373 -0.0931  0.5555 -0.3371
16985TIP3   OH272369   4.736   4.144   2.012  0.3820  0.1474  0.1152
16985TIP3    H172370   4.669   4.126   1.947 -0.8799 -0.5394  1.5539
16985TIP3    H272371   4.704   4.221   2.059  1.5319  0.9554 -0.3607
16986TIP3   OH272372   1.323   5.538   0.202  0.3012  0.1352 -0.4705
16986TIP3    H172373   1.325   5.513   0.295  0.0319  0.2275 -0.4394
16986TIP3    H272374   1.233   5.521   0.175 -0.1716  1.9775 -0.1955
16987TIP3   OH272375   5.755   4.291  12.905  0.2699  0.4484 -0.3963
16987TIP3    H172376   5.707   4.297  12.987 -1.2042  1.5538 -1.2875
16987TIP3    H272377   5.708   4.225  12.854  0.3491  0.7382 -0.8569
16988TIP3   OH272378   5.441   0.152  12.128  0.2757 -0.7629  0.2869
16988TIP3    H172379   5.350   0.142  12.103 -0.2249  1.5524  0.9239
16988TIP3    H272380   5.480   0.207  12.060  0.2904  0.9944  1.6114
16989TIP3   OH272381   5.267   2.720   0.182 -0.4024  0.3075  0.0655
16989TIP3    H172382   5.227   2.761   0.105  0.1503 -0.1204 -0.4577
16989TIP3    H272383   5.241   2.628   0.176  0.0879  0.1680  0.0954
16990TIP3   OH272384   2.437   4.977   5.717 -0.2085 -0.3429  0.0755
16990TIP3    H172385   2.429   5.069   5.745  1.8898  0.0509 -0.4198
16990TIP3    H272386   2.348   4.943   5.719 -0.7946  1.1356  2.1913
16991TIP3   OH272387   3.489   3.980   4.065  0.5124 -0.2080  0.0718
16991TIP3    H172388   3.526   3.892   4.078 -1.2023 -0.6459  2.7068
16991TIP3    H272389   3.493   3.994   3.971  3.8506 -1.7167 -0.1462
16992TIP3   OH272390   1.817   3.381   5.512 -0.5997  0.0585 -0.2220
16992TIP3    H172391   1.805   3.402   5.419  0.4622 -0.0722 -0.3959
16992TIP3    H272392   1.730   3.393   5.550 -1.1436 -0.2625 -1.3059
16993TIP3   OH272393   2.170   3.668   0.195 -0.4339 -0.3507  0.1021
16993TIP3    H172394   2.242   3.726   0.221 -1.1375  0.6616 -0.1287
16993TIP3    H272395   2.166   3.603   0.265 -0.1416  0.3693  0.8135
16994TIP3   OH272396   6.639   2.563   2.065 -0.4707 -0.2453  0.0521
16994TIP3    H172397   6.692   2.642   2.057  0.5257 -0.9279 -0.2541
16994TIP3    H272398   6.563   2.591   2.116 -0.7489  1.1931 -1.0948
16995TIP3   OH272399   5.072   4.150  15.530  0.1464  0.2395  0.3507
16995TIP3    H172400   5.120   4.078  15.489  2.4578  1.1621  1.2157
16995TIP3    H272401   5.104   4.152  15.620 -1.5205  0.9838  0.9546
16996TIP3   OH272402   0.127   4.643   6.396 -0.3744 -0.3513 -0.7334
16996TIP3    H172403   0.196   4.695   6.439 -1.0444  0.8184 -1.0400
16996TIP3    H272404   0.175   4.584   6.338  0.3706  1.2890 -1.8817
16997TIP3   OH272405   3.048   2.464   5.481 -0.0762  0.0690 -0.2283
16997TIP3    H172406   3.024   2.542   5.531 -1.6846 -0.9221  0.6255
16997TIP3    H272407   2.966   2.437   5.438  0.1910 -1.7380  0.3327
16998TIP3   OH272408   5.660   4.061   0.871 -0.2169  0.1364  0.0633
16998TIP3    H172409   5.566   4.079   0.861  0.0693  1.5788 -0.3144
16998TIP3    H272410   5.686   4.022   0.787 -0.6782 -1.3818  0.5835
16999TIP3   OH272411   5.054   5.834  13.387 -0.1243  0.1535  0.2472
16999TIP3    H172412   4.982   5.894  13.363 -1.1771 -0.7254  1.0775
16999TIP3    H272413   5.010   5.763  13.434  1.1080 -1.2353 -0.6489
17000TIP3   OH272414   2.961   4.793  13.097  0.2218 -0.0904  0.1211
17000TIP3    H172415   2.922   4.820  13.180 -0.4910 -0.1075 -0.1971
17000TIP3    H272416   2.896   4.819  13.031 -0.2621 -2.0668 -0.2466
17001TIP3   OH272417   0.285   0.132  17.342 -0.1507 -0.1420  0.2974
17001TIP3    H172418   0.315   0.196  17.276 -1.0205  0.2870  0.3074
17001TIP3    H272419   0.351   0.063  17.339  0.5513  0.5240 -0.0620
17002TIP3   OH272420   0.538   1.753   0.173 -0.3058  0.8230  0.5309
17002TIP3    H172421   0.629   1.723   0.183 -0.3632  0.9100  1.3088
17002TIP3    H272422   0.497   1.684   0.121  0.4567  1.2826 -0.7593
17003TIP3   OH272423   6.419   4.121  12.007  0.0543 -0.3609  0.1167
17003TIP3    H172424   6.376   4.205  12.019  1.4757  0.2016  1.5430
17003TIP3    H272425   6.504   4.143  11.968  0.4020 -1.1287  0.4218
17004TIP3   OH272426   2.335   5.278   1.310 -0.4826  0.4480 -0.0928
17004TIP3    H172427   2.286   5.355   1.282  1.1367  1.6942  0.3936
17004TIP3    H272428   2.384   5.251   1.232 -0.0605  0.6964  0.0848
17005TIP3   OH272429   2.744   3.287   5.105 -0.1603 -0.1053 -0.5965
17005TIP3    H172430   2.756   3.321   5.194  1.4456  0.4547 -0.9761
17005TIP3    H272431   2.745   3.366   5.050 -1.1849 -0.4450 -1.1213
17006TIP3   OH272432   3.314   1.489  17.370 -0.0160  0.5664  0.9680
17006TIP3    H172433   3.241   1.549  17.360  0.8692  1.3598 -1.5545
17006TIP3    H272434   3.285   1.408  17.328  0.6670  1.0303 -0.4458
17007TIP3   OH272435   5.901   0.469  14.112 -0.4586 -0.4360 -0.3997
17007TIP3    H172436   5.896   0.390  14.058 -0.4248 -0.3116 -0.5875
17007TIP3    H272437   5.830   0.460  14.175  0.3532 -1.2283  0.4260
17008TIP3   OH272438   2.444   5.012   2.836 -0.1077  0.2553 -0.2704
17008TIP3    H172439   2.453   4.971   2.750  1.9184 -2.7383  1.1888
17008TIP3    H272440   2.493   5.093   2.830  1.9912 -1.0103 -1.3927
17009TIP3   OH272441   1.538   1.687  11.170 -0.3285  0.0826  0.2038
17009TIP3    H172442   1.476   1.649  11.108  0.3611  0.0342 -0.4703
17009TIP3    H272443   1.595   1.742  11.117 -0.1581  0.5932  0.8996
17010TIP3   OH272444   4.940   0.906   5.068 -0.3029  0.2328  0.4493
17010TIP3    H172445   4.900   0.830   5.025  1.6045  0.7310 -2.5551
17010TIP3    H272446   4.878   0.977   5.054 -0.4482  0.0105 -0.0556
17011TIP3   OH272447   2.218   4.329   2.346  0.6037 -1.0011 -0.3101
17011TIP3    H172448   2.182   4.267   2.283 -0.8977  0.1013 -0.6132
17011TIP3    H272449   2.147   4.344   2.409  0.7548  0.6683 -0.4714
17012TIP3   OH272450   3.999   3.777   4.267 -0.5569  0.4331  0.5943
17012TIP3    H172451   4.074   3.736   4.309  0.1345  0.5632 -0.4717
17012TIP3    H272452   4.029   3.866   4.247 -0.9809  0.4744  0.1329
17013TIP3   OH272453   5.795   3.310   5.889 -0.1305 -0.1943 -0.0431
17013TIP3    H172454   5.755   3.226   5.912 -0.9863 -0.9328 -3.5986
17013TIP3    H272455   5.888   3.290   5.876 -0.1749 -0.4189 -0.0177
17014TIP3   OH272456   3.245   4.022  10.966  0.0339 -0.2467 -0.0329
17014TIP3    H172457   3.185   4.092  10.994  0.5859  0.7490 -1.2609
17014TIP3    H272458   3.261   4.040  10.874  1.3961 -1.1210  0.0155
17015TIP3   OH272459   1.308   1.080   5.779  0.6911 -0.5993  0.3892
17015TIP3    H172460   1.352   1.120   5.854  2.8214  0.3848 -1.2988
17015TIP3    H272461   1.373   1.082   5.708 -1.4302 -0.8781 -1.6959
17016TIP3   OH272462   3.082   3.971  14.644 -0.6954 -0.1302  0.2409
17016TIP3    H172463   3.105   3.917  14.568  0.0513  0.0812  0.3128
17016TIP3    H272464   3.151   4.037  14.648 -0.8391 -0.0226  0.9900
17017TIP3   OH272465   2.619   5.887  11.479 -0.3683  0.7405  0.2947
17017TIP3    H172466   2.695   5.854  11.527 -0.0169  0.4834 -0.4274
17017TIP3    H272467   2.622   5.841  11.395 -1.3559  0.6832  0.2812
17018TIP3   OH272468   4.428   3.498   5.648  0.8900  0.1201 -0.4782
17018TIP3    H172469   4.465   3.425   5.698 -0.0210 -1.0743 -1.4736
17018TIP3    H272470   4.494   3.567   5.653  1.7406 -0.7399  0.5666
17019TIP3   OH272471   0.541   4.480   2.748  0.1793 -0.0150 -0.4529
17019TIP3    H172472   0.562   4.556   2.693  1.4173  0.2855  0.3846
17019TIP3    H272473   0.542   4.513   2.837  0.8741 -1.0214 -0.0576
17020TIP3   OH272474   2.776   3.175  12.485  0.5794  0.0540  0.0672
17020TIP3    H172475   2.807   3.208  12.400 -0.9051  0.3907 -0.3755
17020TIP3    H272476   2.689   3.215  12.496  0.5137 -0.4274  1.4946
17021TIP3   OH272477   6.303   4.811   5.270  0.1614  0.0959 -0.3435
17021TIP3    H172478   6.269   4.851   5.351 -2.3636  0.6413 -1.5539
17021TIP3    H272479   6.349   4.882   5.226 -2.3371  1.2043 -1.3997
17022TIP3   OH272480   0.826   5.951  15.096 -0.4426 -0.3376 -0.3138
17022TIP3    H172481   0.832   5.918  15.185 -1.7097 -0.9540 -0.4375
17022TIP3    H272482   0.804   6.044  15.105 -1.7176 -0.6579  0.0279
17023TIP3   OH272483   0.453   4.918   2.331 -0.5092  0.5315  0.1129
17023TIP3    H172484   0.448   4.974   2.253  0.3967  0.3753 -0.0607
17023TIP3    H272485   0.545   4.896   2.340 -0.3999  1.4832  1.9063
17024TIP3   OH272486   3.755   3.462   2.337  0.3375 -0.3171  0.3059
17024TIP3    H172487   3.827   3.484   2.279 -0.0449  0.1489 -0.0051
17024TIP3    H272488   3.681   3.445   2.278  0.0195 -0.1121  0.6402
17025TIP3   OH272489   1.573   4.087   5.315 -0.1706 -0.2993 -0.1325
17025TIP3    H172490   1.525   4.164   5.287  1.2387  0.9501  0.7725
17025TIP3    H272491   1.665   4.115   5.318  0.7462 -2.7010 -2.2016
17026TIP3   OH272492   3.639   1.825  10.709  0.1808 -0.5828  0.1090
17026TIP3    H172493   3.715   1.846  10.764  0.2211 -1.4513  0.4075
17026TIP3    H272494   3.674   1.816  10.621  0.1074  0.8846 -0.0954
17027TIP3   OH272495   3.861   4.488   2.046 -0.2603 -0.2288 -0.3620
17027TIP3    H172496   3.850   4.581   2.066  0.7382 -0.4100  1.2606
17027TIP3    H272497   3.932   4.460   2.104 -0.9198 -2.1285 -0.4067
17028TIP3   OH272498   5.042   5.212  15.808 -0.2312 -0.0331  0.4514
17028TIP3    H172499   5.086   5.139  15.764 -1.7573 -1.1479  0.7032
17028TIP3    H272500   4.950   5.204  15.782 -0.4402  1.8409  0.4588
17029TIP3   OH272501   5.078   0.094  10.814  0.6514  0.0345 -0.7717
17029TIP3    H172502   5.009   0.077  10.878 -0.9267 -2.2362 -2.8874
17029TIP3    H272503   5.054   0.178  10.775  0.4066  0.3828  0.1010
17030TIP3   OH272504   4.837   1.147  11.585 -0.0492  0.3270 -0.8238
17030TIP3    H172505   4.836   1.088  11.510  0.0781 -0.4042 -0.2598
17030TIP3    H272506   4.882   1.098  11.654 -0.1012  1.0115 -0.2877
17031TIP3   OH272507   1.063   3.636  13.834  0.3615  0.9648  0.0563
17031TIP3    H172508   0.974   3.614  13.808  1.0894 -0.2644 -1.5622
17031TIP3    H272509   1.087   3.710  13.779  1.2105 -0.3879 -1.4990
17032TIP3   OH272510   0.239   5.589   6.611 -0.0901  0.6949 -1.3254
17032TIP3    H172511   0.164   5.548   6.653  0.9014 -1.1975 -1.2883
17032TIP3    H272512   0.251   5.540   6.530  0.9875  1.0810 -1.4160
17033TIP3   OH272513   4.822   6.369  12.196  0.5594  0.4485 -0.0029
17033TIP3    H172514   4.910   6.407  12.195  0.6591  0.3304  1.8753
17033TIP3    H272515   4.818   6.321  12.278 -0.6406 -1.0837 -0.9087
17034TIP3   OH272516   1.311   1.560  13.229  0.4315 -0.1120  0.0216
17034TIP3    H172517   1.395   1.520  13.209  1.1919  1.4282 -0.0125
17034TIP3    H272518   1.321   1.596  13.317  0.7588  2.3667 -0.9607
17035TIP3   OH272519   2.783   4.133   5.884  0.0169 -0.4258 -0.2823
17035TIP3    H172520   2.727   4.076   5.832 -1.7779 -2.7095  3.6728
17035TIP3    H272521   2.872   4.113   5.856 -0.8223 -1.1983 -2.5994
17036TIP3   OH272522   1.904   5.424  14.713  0.3155  0.2443  0.4072
17036TIP3    H172523   1.988   5.379  14.700  0.5180  0.4215  1.0450
17036TIP3    H272524   1.866   5.429  14.626  0.2035 -1.3397  0.3367
17037TIP3   OH272525   4.853   1.652   4.897  0.0842 -0.0362  0.3399
17037TIP3    H172526   4.831   1.745   4.897  1.2073  0.2371 -0.2975
17037TIP3    H272527   4.935   1.646   4.848  0.0900 -1.3480  0.4762
17038TIP3   OH272528   6.606   0.915  16.544 -0.4799 -0.0495  0.0956
17038TIP3    H172529   6.605   1.000  16.587 -0.3500 -0.1318  0.2609
17038TIP3    H272530   6.687   0.874  16.572  0.5964  0.6810 -1.7760
17039TIP3   OH272531   3.554   0.053   0.634  0.2207 -0.4102  0.5480
17039TIP3    H172532   3.460   0.065   0.649 -0.0809 -1.7493 -0.0965
17039TIP3    H272533   3.596   0.120   0.688 -1.1803  2.1279 -1.2968
17040TIP3   OH272534   3.896   3.155  17.315 -0.3608 -0.7484 -0.3147
17040TIP3    H172535   3.860   3.076  17.356 -0.4488 -0.3610  0.3811
17040TIP3    H272536   3.941   3.200  17.387  0.7276 -0.7663 -0.9703
17041TIP3   OH272537   2.637   4.147   4.419  0.6279  0.1549  0.5669
17041TIP3    H172538   2.675   4.093   4.488 -0.8080  1.0816  2.1608
17041TIP3    H272539   2.667   4.236   4.439  1.1530  0.2944 -0.7283
17042TIP3   OH272540   0.142   3.637  13.929  0.4697 -0.2094 -0.4943
17042TIP3    H172541   0.172   3.550  13.957  1.4129  0.3340  0.2230
17042TIP3    H272542   0.218   3.677  13.888 -0.2684 -0.1141 -1.8204
17043TIP3   OH272543   5.153   5.977   6.518 -0.5178  0.6957  0.3136
17043TIP3    H172544   5.175   5.991   6.611 -0.6192  2.9819  0.0490
17043TIP3    H272545   5.082   6.039   6.501  1.2875  2.2874 -1.9355
17044TIP3   OH272546   0.103   1.210  11.110 -0.7177  0.1940 -0.5914
17044TIP3    H172547   0.147   1.134  11.149 -0.3459  1.5445  1.8751
17044TIP3    H272548   0.024   1.174  11.070 -0.0724 -1.6056 -0.3505
17045TIP3   OH272549   0.008   0.538   3.057 -0.8460 -0.0984  0.1735
17045TIP3    H172550  -0.012   0.585   2.976 -0.3318 -1.1815 -0.6064
17045TIP3    H272551   0.024   0.448   3.029  0.0940 -0.3316  1.3981
17046TIP3   OH272552   5.954   4.921   0.679 -0.9622 -0.4539  0.6965
17046TIP3    H172553   5.934   4.936   0.586  2.4793  0.3882 -0.0444
17046TIP3    H272554   5.919   4.998   0.724 -0.4493  0.4064 -0.3255
17047TIP3   OH272555   2.612   0.007   5.198  0.4275 -0.1457  0.0175
17047TIP3    H172556   2.636  -0.044   5.275  0.0102  1.0099  0.9556
17047TIP3    H272557   2.530  -0.032   5.167  1.3455 -1.5353 -0.7525
17048TIP3   OH272558   2.642   2.202   4.770  0.6621 -0.0828  0.0973
17048TIP3    H172559   2.593   2.214   4.688 -0.0220  1.9470  0.7320
17048TIP3    H272560   2.651   2.108   4.779 -0.3087 -0.4012 -1.7038
17049TIP3   OH272561   1.995   4.544  12.514 -0.0986  0.4926  0.5795
17049TIP3    H172562   1.963   4.634  12.520  1.7287  1.1640  0.6508
17049TIP3    H272563   1.917   4.491  12.529 -1.4139  2.0378 -0.4268
17050TIP3   OH272564   3.785   5.466   5.053 -0.5056  0.3049  0.5713
17050TIP3    H172565   3.834   5.541   5.084  1.6517 -0.1890 -1.3626
17050TIP3    H272566   3.697   5.500   5.036 -0.1542  1.8482  1.6817
17051TIP3   OH272567   5.282   1.331  10.961  0.2532 -0.7080  0.2687
17051TIP3    H172568   5.194   1.367  10.971  0.4707  0.5107 -1.7390
17051TIP3    H272569   5.274   1.268  10.889  1.0597 -0.3706 -0.1350
17052TIP3   OH272570   3.125   3.894  15.088 -0.1279 -0.6166  0.5479
17052TIP3    H172571   3.158   3.979  15.117  0.8359 -1.0766  0.8381
17052TIP3    H272572   3.030   3.904  15.089 -0.0271  0.9266 -0.8353
17053TIP3   OH272573   2.852   3.397   1.063 -0.1607 -0.0123  0.1021
17053TIP3    H172574   2.846   3.319   1.119  1.2334  0.0823  0.4130
17053TIP3    H272575   2.906   3.458   1.112  0.4289  0.3845 -1.0123
17054TIP3   OH272576   1.853   2.879   3.659 -0.1390  0.3328 -0.2382
17054TIP3    H172577   1.877   2.868   3.567  1.9134  2.4973 -0.0846
17054TIP3    H272578   1.900   2.959   3.686 -1.6841  0.4754  2.3492
17055TIP3   OH272579   3.874   0.029  16.532  0.3982  0.0305  0.1016
17055TIP3    H172580   3.818  -0.006  16.462  0.9244  0.4143 -0.5196
17055TIP3    H272581   3.825   0.105  16.565  0.2803  0.0218 -0.0491
17056TIP3   OH272582   4.054   1.210  11.711 -0.2645 -0.2346  0.2096
17056TIP3    H172583   4.074   1.138  11.771  0.0470  0.0419  0.4411
17056TIP3    H272584   3.967   1.240  11.738  0.4323  0.7813  1.4317
17057TIP3   OH272585   6.348   1.746  13.201 -0.5707 -0.8508 -0.4793
17057TIP3    H172586   6.263   1.702  13.202 -1.3690  0.6089 -1.2521
17057TIP3    H272587   6.409   1.679  13.173 -1.1742 -2.3648  1.5625
17058TIP3   OH272588   3.932   6.294   4.101  0.5872  0.1431  0.2469
17058TIP3    H172589   3.987   6.288   4.023 -1.4539  0.9245 -1.3443
17058TIP3    H272590   3.846   6.261   4.073 -0.5700  1.7130  1.7386
17059TIP3   OH272591   2.798   1.133   1.463  0.1576 -0.3786 -0.0513
17059TIP3    H172592   2.763   1.048   1.488  0.3327 -0.7386 -0.9955
17059TIP3    H272593   2.893   1.125   1.476  0.1622 -0.2882 -0.0258
17060TIP3   OH272594   5.217   2.058  13.652 -0.2194  0.1566  0.0261
17060TIP3    H172595   5.206   1.966  13.630  0.6270 -0.0650  0.4917
17060TIP3    H272596   5.293   2.060  13.710 -0.4994  1.0940  0.3824
17061TIP3   OH272597   2.125   3.974   2.888 -0.0382  0.4224  0.1475
17061TIP3    H172598   2.200   3.990   2.831 -0.2868 -0.2278 -0.3726
17061TIP3    H272599   2.157   3.908   2.950 -0.5925 -0.9727 -0.9828
17062TIP3   OH272600   5.287   6.739  14.193  0.5207 -0.2955  0.3107
17062TIP3    H172601   5.269   6.769  14.282 -1.4412 -0.2949 -0.0603
17062TIP3    H272602   5.303   6.819  14.143 -1.0515 -0.0747  0.1148
17063TIP3   OH272603   3.163   0.708  11.905  0.4412 -0.4504 -0.0633
17063TIP3    H172604   3.257   0.717  11.920  0.2825 -0.9845  1.4339
17063TIP3    H272605   3.137   0.789  11.861  1.6390 -0.4246 -0.7481
17064TIP3   OH272606   6.472   5.329  11.991  1.1643  0.3373  0.6929
17064TIP3    H172607   6.462   5.235  12.005 -0.2284 -0.3358 -3.3701
17064TIP3    H272608   6.412   5.370  12.054  0.6770 -1.5835  1.5324
17065TIP3   OH272609   2.302   4.020   0.121 -0.3397 -0.4298  0.7545
17065TIP3    H172610   2.247   4.087   0.078 -0.2721 -0.7470  0.1570
17065TIP3    H272611   2.379   4.068   0.150  2.2868 -0.9506 -4.2670
17066TIP3   OH272612   5.704   5.313  11.613  0.0808  0.6671  0.6235
17066TIP3    H172613   5.749   5.230  11.595 -1.2821  0.1012 -0.3095
17066TIP3    H272614   5.619   5.287  11.648 -1.0639  1.6055 -1.3205
17067TIP3   OH272615   5.070   1.963  14.888 -0.0763  0.0230  0.0051
17067TIP3    H172616   5.081   2.022  14.814  0.8329 -1.2509 -0.9163
17067TIP3    H272617   5.142   1.986  14.947 -0.0987  0.2507 -0.0546
17068TIP3   OH272618   4.608   5.995   3.200 -0.3681 -0.4723 -0.4306
17068TIP3    H172619   4.582   6.081   3.234 -2.1887 -1.2960  0.3898
17068TIP3    H272620   4.669   6.015   3.129  0.9507  1.4303  1.1215
17069TIP3   OH272621   3.326   0.869  15.752  0.5268  0.2508  0.4499
17069TIP3    H172622   3.249   0.918  15.724  1.4339  0.2252 -2.3967
17069TIP3    H272623   3.375   0.930  15.807 -0.7067  0.7992  0.9720
17070TIP3   OH272624   3.399   4.899  13.348 -0.4582  0.5213  0.0020
17070TIP3    H172625   3.469   4.951  13.308 -1.3499  0.8760 -1.1165
17070TIP3    H272626   3.318   4.933  13.310 -1.1062 -1.3491 -0.3813
17071TIP3   OH272627   3.657   0.907  15.211  0.7760  0.3024  0.5370
17071TIP3    H172628   3.625   0.992  15.241 -0.7988 -0.0885  0.0720
17071TIP3    H272629   3.683   0.862  15.291  0.1258  0.6422  0.9448
17072TIP3   OH272630   2.054   4.637   3.191 -0.1200  0.2037 -0.4166
17072TIP3    H172631   2.128   4.658   3.134 -1.7755  0.9439 -2.4080
17072TIP3    H272632   2.011   4.721   3.207 -2.0480 -0.5189 -1.5556
17073TIP3   OH272633   2.285   1.799   2.168 -0.3252  0.3241  0.0636
17073TIP3    H172634   2.350   1.735   2.198  0.6687  1.7300  1.0240
17073TIP3    H272635   2.242   1.830   2.247  0.1949  1.8481 -0.2079
17074TIP3   OH272636   4.205   1.768   5.018  0.5894 -0.3117 -0.4715
17074TIP3    H172637   4.137   1.795   5.079  1.6614  0.4174  0.4393
17074TIP3    H272638   4.163   1.771   4.932 -1.0273 -1.6147  0.2123
17075TIP3   OH272639   3.291   6.454   2.284 -0.2987  0.2729  0.1704
17075TIP3    H172640   3.197   6.473   2.281 -0.3997 -0.2079  0.1373
17075TIP3    H272641   3.324   6.484   2.200 -0.7192 -0.9850 -0.4846
17076TIP3   OH272642   2.704   3.326  12.987  0.3007 -0.2520 -0.8792
17076TIP3    H172643   2.610   3.332  13.003  0.1765  2.5187 -2.1469
17076TIP3    H272644   2.716   3.353  12.896  2.3742  0.1805 -0.5410
17077TIP3   OH272645   1.827   0.579   5.783 -0.2288  0.2928  0.3039
17077TIP3    H172646   1.732   0.586   5.788 -0.3876  0.5812 -1.9726
17077TIP3    H272647   1.857   0.582   5.874 -2.3519  0.5972  1.0354
17078TIP3   OH272648   1.654   3.160  16.875  0.5251  0.2048 -0.3834
17078TIP3    H172649   1.664   3.148  16.780  1.4099  0.4454 -0.3359
17078TIP3    H272650   1.663   3.072  16.912 -0.9364 -0.0534 -0.5885
17079TIP3   OH272651   3.066   4.764   2.374  0.1976  0.2447 -0.5748
17079TIP3    H172652   3.085   4.817   2.451  1.7756 -1.2160  0.0903
17079TIP3    H272653   3.131   4.791   2.309 -0.5294  0.7985 -1.0934
17080TIP3   OH272654   2.970   3.584   2.546 -0.2315  0.0553 -0.0072
17080TIP3    H172655   2.985   3.611   2.637 -1.5336 -0.2890  0.3323
17080TIP3    H272656   3.043   3.524   2.526 -0.6341 -0.9142  1.2720
17081TIP3   OH272657   2.949   1.390   0.930  0.4449 -0.3686 -0.3102
17081TIP3    H172658   2.908   1.315   0.974  1.2779 -0.5357  0.2032
17081TIP3    H272659   2.942   1.461   0.994  0.5177 -0.2629 -0.4194
17082TIP3   OH272660   6.351   2.586   4.486 -0.1368 -0.3439 -0.2212
17082TIP3    H172661   6.428   2.629   4.523 -0.5171 -0.2527  0.4892
17082TIP3    H272662   6.380   2.496   4.470  0.0711 -0.3513  0.1850
17083TIP3   OH272663   1.764   2.359   6.423 -0.1325  0.0829 -0.3243
17083TIP3    H172664   1.669   2.363   6.435  0.1307  0.0686  2.6561
17083TIP3    H272665   1.798   2.432   6.476  1.5953 -1.4339  0.7736
17084TIP3   OH272666   2.845   1.658  13.265  0.4225  0.2745  0.0529
17084TIP3    H172667   2.876   1.597  13.197 -0.9949  1.5420 -1.8404
17084TIP3    H272668   2.925   1.689  13.307  1.3552 -0.6971 -0.9097
17085TIP3   OH272669   1.896   5.075   0.776  0.0679  0.1052  0.1434
17085TIP3    H172670   1.856   5.017   0.840  0.6407  0.5343  0.9079
17085TIP3    H272671   1.835   5.149   0.768 -0.2948 -0.2311 -0.2689
17086TIP3   OH272672   4.576   2.534   1.423 -0.5911 -0.3591 -0.5201
17086TIP3    H172673   4.668   2.559   1.424 -0.5476 -0.4342  1.4272
17086TIP3    H272674   4.529   2.616   1.407 -0.2200 -0.3043 -1.4174
17087TIP3   OH272675   6.600   5.671   5.007 -0.4189  0.0372 -0.4461
17087TIP3    H172676   6.514   5.680   5.047 -0.9190  1.7890 -1.7716
17087TIP3    H272677   6.583   5.665   4.914  0.8454 -1.3322 -0.6277
17088TIP3   OH272678   6.133   2.408  17.425  0.9140  0.8732 -0.3199
17088TIP3    H172679   6.212   2.378  17.380  1.0983 -0.5543  0.8451
17088TIP3    H272680   6.062   2.391  17.364  1.1166 -1.3068 -0.0162
17089TIP3   OH272681   6.583   1.568  13.149  0.1011 -0.5987  0.5963
17089TIP3    H172682   6.649   1.540  13.212 -0.7489  0.7774  2.1896
17089TIP3    H272683   6.542   1.487  13.120  0.5147 -1.2866  1.8321
17090TIP3   OH272684   6.443   2.633   2.250 -0.7529 -0.3656  0.1161
17090TIP3    H172685   6.366   2.576   2.259 -0.0668 -1.2470  0.5630
17090TIP3    H272686   6.460   2.663   2.339  0.8269 -2.0909  0.4429
17091TIP3   OH272687   6.662   1.722  11.324 -0.9007  0.2227 -0.1345
17091TIP3    H172688   6.716   1.702  11.400 -1.0123 -0.9531 -0.3495
17091TIP3    H272689   6.695   1.664  11.255 -1.5156  0.4936 -0.6692
17092TIP3   OH272690   2.220   5.974   1.661 -0.4973  0.0996 -0.5116
17092TIP3    H172691   2.130   6.003   1.676 -0.9895 -1.9365  0.9399
17092TIP3    H272692   2.212   5.881   1.642  1.4329 -0.8798  2.6893
17093TIP3   OH272693   2.420   2.410   3.341 -0.2241 -0.0438  0.1570
17093TIP3    H172694   2.443   2.401   3.434  0.7682  1.5792  0.1115
17093TIP3    H272695   2.392   2.323   3.315  1.5454 -1.0775  1.4405
17094TIP3   OH272696   6.669   2.545  17.158 -0.1886 -0.3026 -0.0207
17094TIP3    H172697   6.719   2.579  17.084 -0.0247  0.4187  0.4127
17094TIP3    H272698   6.694   2.452  17.163  1.9861  0.2660  0.8422
17095TIP3   OH272699   1.012   1.241  15.755 -0.4408  0.3428  0.2117
17095TIP3    H172700   1.018   1.288  15.838  2.4980 -1.4896  1.1899
17095TIP3    H272701   1.099   1.248  15.717 -1.6083  0.7690 -2.5888
17096TIP3   OH272702   6.039   2.585   3.728 -0.5118  0.2947 -0.1762
17096TIP3    H172703   5.958   2.609   3.683  0.5943  1.9165 -1.4500
17096TIP3    H272704   6.093   2.546   3.659 -0.3517 -1.2050  0.7605
17097TIP3   OH272705   0.850   1.590   3.786 -0.0515 -0.5636 -0.0579
17097TIP3    H172706   0.773   1.597   3.729  0.7376  0.4831 -1.0507
17097TIP3    H272707   0.845   1.667   3.843  1.4747  0.8596 -1.7416
17098TIP3   OH272708   6.578   1.182   3.024  0.7931  0.0564  0.1583
17098TIP3    H172709   6.535   1.232   2.954 -0.5627  1.4077  1.8517
17098TIP3    H272710   6.515   1.115   3.048  1.7285 -1.1575 -0.6218
17099TIP3   OH272711   2.120   3.491  15.066 -0.3313  0.3258  0.6051
17099TIP3    H172712   2.188   3.531  15.012  0.6725 -0.4589  1.2523
17099TIP3    H272713   2.056   3.561  15.079  0.6008  1.2529  0.3998
17100TIP3   OH272714   5.179   2.976  14.899 -0.7239  0.0520  0.0794
17100TIP3    H172715   5.125   2.935  14.967  0.0933 -1.9305 -0.4158
17100TIP3    H272716   5.251   3.016  14.947 -1.7010  1.2850  0.5960
17101TIP3   OH272717   4.083   6.675  14.565 -0.6656  0.6065  0.3082
17101TIP3    H172718   4.160   6.655  14.619  0.6279  1.4919 -1.1168
17101TIP3    H272719   4.013   6.623  14.603  0.3365  0.6723  2.4011
17102TIP3   OH272720   0.556   4.817   3.321  0.1726 -0.3276 -0.4077
17102TIP3    H172721   0.642   4.776   3.311  1.9152  2.9298 -0.0525
17102TIP3    H272722   0.511   4.799   3.238  1.2561 -1.8491 -0.7122
17103TIP3   OH272723   0.414   0.060  14.269  0.6207 -0.1664 -0.1520
17103TIP3    H172724   0.460   0.134  14.228  0.6223 -0.6639 -1.0503
17103TIP3    H272725   0.328   0.096  14.292  0.8005  0.2562 -0.1246
17104TIP3   OH272726   2.541   0.720   3.613  0.5402 -0.1154  0.2193
17104TIP3    H172727   2.571   0.631   3.628  0.1834 -0.1832  0.5608
17104TIP3    H272728   2.604   0.757   3.551  0.4345 -0.7492 -0.2821
17105TIP3   OH272729   5.618   5.852  12.184 -0.2738  0.7816  0.0456
17105TIP3    H172730   5.584   5.877  12.098 -1.3387  0.5106  0.3678
17105TIP3    H272731   5.541   5.857  12.242  0.1479 -0.2534  0.7256
17106TIP3   OH272732   0.309   1.775  10.377 -0.3943  0.0794 -0.1471
17106TIP3    H172733   0.298   1.869  10.392 -0.3842  0.2721 -1.2612
17106TIP3    H272734   0.357   1.744  10.454 -0.1221  1.0501  0.0889
17107TIP3   OH272735   0.904   1.091   1.550 -0.2212 -0.9653  0.1306
17107TIP3    H172736   0.993   1.093   1.516 -0.4515 -2.8482 -0.7501
17107TIP3    H272737   0.873   1.181   1.543  1.2620 -0.4767 -0.5181
17108TIP3   OH272738   0.295   4.061   4.978  0.4749 -0.1747 -0.0947
17108TIP3    H172739   0.369   4.110   5.013  0.2859 -0.0014  0.0596
17108TIP3    H272740   0.313   3.970   5.002  0.5133 -0.0996  0.1612
17109TIP3   OH272741   3.651   6.250   6.887  0.3176 -0.2588  0.2830
17109TIP3    H172742   3.561   6.222   6.902  1.1721 -2.7265  1.5090
17109TIP3    H272743   3.698   6.169   6.865  2.1056  1.0619 -1.1592
17110TIP3   OH272744   6.072   3.315  16.938 -0.0344 -0.8056 -0.4772
17110TIP3    H172745   6.124   3.257  16.883  0.8277  0.4037 -0.9787
17110TIP3    H272746   6.080   3.401  16.897 -2.5205 -0.5795 -0.6223
17111TIP3   OH272747   3.472   6.235  11.278  0.1149  0.1572  0.0853
17111TIP3    H172748   3.565   6.215  11.263 -0.0454 -1.0880  0.5808
17111TIP3    H272749   3.430   6.221  11.194 -0.0668 -2.2649  0.5104
17112TIP3   OH272750   4.330   5.761   2.949 -0.2103  0.1279  0.4116
17112TIP3    H172751   4.239   5.789   2.961 -0.7985 -0.6927 -1.7234
17112TIP3    H272752   4.326   5.666   2.945  0.3068  0.1251 -2.0899
17113TIP3   OH272753   3.956   0.978   3.080 -0.1414 -0.1779  0.2756
17113TIP3    H172754   3.967   0.936   2.995  0.0043  0.3044  0.0530
17113TIP3    H272755   4.045   1.001   3.107 -0.2042 -0.1536  0.4669
17114TIP3   OH272756   1.379   3.079   2.103  0.4769 -0.8645 -0.6677
17114TIP3    H172757   1.395   3.070   2.009 -0.1435  0.9250 -0.9806
17114TIP3    H272758   1.465   3.067   2.143  0.7559 -1.5747 -1.4497
17115TIP3   OH272759   3.836   5.767  14.849  0.5946 -0.4599 -0.4209
17115TIP3    H172760   3.908   5.821  14.815  0.0951  0.1186 -0.5801
17115TIP3    H272761   3.880   5.694  14.892  1.2847 -0.0443 -0.3953
17116TIP3   OH272762   2.108   5.509  15.954 -0.9598 -0.1436  0.1325
17116TIP3    H172763   2.094   5.438  15.892 -0.4604  0.5042 -0.7539
17116TIP3    H272764   2.082   5.588  15.906 -0.0044  0.4261  0.5253
17117TIP3   OH272765   0.287   4.863  13.036  0.6904  0.3709  0.0726
17117TIP3    H172766   0.372   4.836  13.069  1.0047 -0.1408 -1.1130
17117TIP3    H272767   0.307   4.915  12.958 -0.0638  0.6555  0.0636
17118TIP3   OH272768   4.107   2.969   0.473  0.2265  0.3845  0.2279
17118TIP3    H172769   4.197   2.988   0.445 -0.1324  1.7139 -0.0733
17118TIP3    H272770   4.117   2.926   0.558  1.1295  0.9334  0.4154
17119TIP3   OH272771   0.627   2.788  16.107  0.3843  0.2636  0.4893
17119TIP3    H172772   0.613   2.739  16.188 -0.2465  0.7820  0.6976
17119TIP3    H272773   0.550   2.769  16.053  0.9244 -0.2967 -0.1144
17120TIP3   OH272774   3.941   4.369   0.379  0.5306 -0.2653 -0.2132
17120TIP3    H172775   3.935   4.398   0.470 -0.5068  0.0504 -0.3645
17120TIP3    H272776   3.959   4.449   0.330  0.3519 -0.3182 -0.3640
17121TIP3   OH272777   0.402   0.602   4.736 -0.1198  0.3697 -0.3781
17121TIP3    H172778   0.439   0.645   4.812  0.1327  1.2392 -0.9834
17121TIP3    H272779   0.469   0.609   4.668  0.6986 -2.5784 -0.0044
17122TIP3   OH272780   2.158   3.663   3.498 -0.2997  0.0518  0.0603
17122TIP3    H172781   2.143   3.756   3.485 -0.4295  0.3873  2.2629
17122TIP3    H272782   2.093   3.637   3.564  0.8644 -1.1966  0.7657
17123TIP3   OH272783   1.031   0.838   4.917 -0.2715  0.3906  0.2660
17123TIP3    H172784   0.948   0.876   4.947 -0.5130  0.6723 -0.7381
17123TIP3    H272785   1.068   0.798   4.996 -2.8830 -2.6362  0.1889
17124TIP3   OH272786   1.286   5.419   1.006  0.3510  0.0730  0.3462
17124TIP3    H172787   1.377   5.420   0.975  0.1917  0.3083 -0.1066
17124TIP3    H272788   1.241   5.483   0.952 -0.5963 -1.6466 -0.9937
17125TIP3   OH272789   5.787   1.381   1.601 -0.1294 -0.1051  0.0263
17125TIP3    H172790   5.792   1.476   1.607 -2.5939  0.1238 -0.4592
17125TIP3    H272791   5.877   1.353   1.583  0.5807  2.1395 -0.1835
17126TIP3   OH272792   1.813   1.637   4.102  0.0543  0.5641  0.1267
17126TIP3    H172793   1.795   1.715   4.048 -0.7747  0.3994  0.1579
17126TIP3    H272794   1.872   1.584   4.048  0.6655  1.2322  0.1253
17127TIP3   OH272795   4.386   5.460  16.129 -0.1296 -0.0109 -0.2650
17127TIP3    H172796   4.454   5.440  16.065  0.8670 -0.7311  0.9548
17127TIP3    H272797   4.387   5.555  16.138  0.5989 -0.0016 -0.4004
17128TIP3   OH272798   5.184   3.884  15.501  0.2435 -0.2455  0.3153
17128TIP3    H172799   5.158   3.887  15.409  1.2372 -0.0251  0.0308
17128TIP3    H272800   5.275   3.913  15.501 -0.1491  1.0935  1.5315
17129TIP3   OH272801   2.109   0.468  15.419 -0.3292  0.1150 -0.4378
17129TIP3    H172802   2.067   0.446  15.502 -0.4280 -1.2910 -0.8482
17129TIP3    H272803   2.068   0.550  15.393  0.0629  0.8610  1.1355
17130TIP3   OH272804   2.133   2.056   1.579 -0.6941 -0.3358  0.0421
17130TIP3    H172805   2.205   1.992   1.582 -1.2109 -0.9151  0.3903
17130TIP3    H272806   2.111   2.071   1.670 -0.0884  0.9326  0.0046
17131TIP3   OH272807   6.238   3.061   3.238 -0.1713 -0.7139 -0.5435
17131TIP3    H172808   6.248   3.093   3.328  0.9479  0.0124 -0.9145
17131TIP3    H272809   6.314   3.094   3.192 -0.9289 -0.7433 -1.8669
17132TIP3   OH272810   5.111   6.249  14.089  0.6414  0.4154 -0.5326
17132TIP3    H172811   5.085   6.340  14.075 -0.8562  0.3793  1.6092
17132TIP3    H272812   5.056   6.219  14.161  1.4109 -2.0757 -0.8930
17133TIP3   OH272813   1.489   4.833   5.557 -0.5238 -0.3967 -0.3771
17133TIP3    H172814   1.508   4.869   5.470  1.0246  0.4849  0.2638
17133TIP3    H272815   1.470   4.911   5.611 -2.6629 -1.0130 -0.1608
17134TIP3   OH272816   3.633   0.328  16.898 -0.2696 -0.5082 -0.3033
17134TIP3    H172817   3.553   0.382  16.904 -0.1402 -0.0583 -2.1187
17134TIP3    H272818   3.602   0.243  16.868 -0.2117 -0.8051  0.4464
17135TIP3   OH272819   1.301   2.132  16.966 -0.0222 -0.5012  0.2369
17135TIP3    H172820   1.347   2.171  16.891  0.5115 -2.6103 -0.5883
17135TIP3    H272821   1.231   2.195  16.986 -0.4525 -0.0607 -2.3175
17136TIP3   OH272822   2.081   4.610   0.908 -0.3800  0.1370 -0.3001
17136TIP3    H172823   2.063   4.543   0.973  0.4444  0.1171 -0.0818
17136TIP3    H272824   2.050   4.573   0.825 -0.1819 -0.3952 -0.1353
17137TIP3   OH272825   5.912   4.417  15.925 -1.1305 -0.9180  0.5900
17137TIP3    H172826   5.842   4.383  15.870 -1.4926 -2.0761  1.7105
17137TIP3    H272827   5.889   4.509  15.938  0.0848  0.0194 -2.8206
17138TIP3   OH272828   3.623   1.761  14.665  0.1944  0.1400  0.0444
17138TIP3    H172829   3.696   1.725  14.715 -0.2603 -0.5167  0.2563
17138TIP3    H272830   3.627   1.856  14.680  0.9682  0.1033  0.0844
17139TIP3   OH272831   2.541   5.619  12.020  0.3575 -0.9133 -0.1484
17139TIP3    H172832   2.497   5.540  12.052  1.6031 -1.1804  1.0267
17139TIP3    H272833   2.605   5.586  11.956  1.0707 -0.9278  0.5460
17140TIP3   OH272834   1.712   1.304  14.357  0.3828 -0.0464 -0.4316
17140TIP3    H172835   1.728   1.210  14.357 -1.9849 -0.5143 -0.3794
17140TIP3    H272836   1.653   1.319  14.431 -0.4745  1.2135 -1.3063
17141TIP3   OH272837   5.535   3.915   0.037 -0.4738  0.3795  0.0847
17141TIP3    H172838   5.595   3.974   0.082  2.7806  0.0470 -3.3247
17141TIP3    H272839   5.556   3.828   0.072  0.8664  0.3197 -0.7887
17142TIP3   OH272840   4.457   5.082   3.015 -0.3493 -0.5877 -0.1994
17142TIP3    H172841   4.540   5.043   2.987  0.8306  2.1302 -0.7162
17142TIP3    H272842   4.479   5.134   3.092 -1.1549  1.5957 -1.3658
17143TIP3   OH272843   3.295   1.847  17.104  0.2561  0.0299 -0.4529
17143TIP3    H172844   3.249   1.908  17.162  1.1747  0.6977 -0.4044
17143TIP3    H272845   3.352   1.902  17.051  0.2113 -0.6793 -1.2650
17144TIP3   OH272846   4.216   1.526   0.824 -0.3110 -0.1654 -0.2998
17144TIP3    H172847   4.219   1.455   0.760 -0.0186  0.5571 -1.1004
17144TIP3    H272848   4.200   1.482   0.908 -1.2066 -1.0810 -0.9291
17145TIP3   OH272849   2.653   5.363   4.830 -0.0137  0.1963 -0.1024
17145TIP3    H172850   2.574   5.336   4.877 -0.2540 -0.3955 -0.8445
17145TIP3    H272851   2.637   5.339   4.739  1.2194 -0.3527 -0.1873
17146TIP3   OH272852   2.770   3.038   1.496  0.1093  0.5594 -0.0596
17146TIP3    H172853   2.690   3.031   1.547 -0.6167  2.5880 -0.8076
17146TIP3    H272854   2.834   2.985   1.543 -1.3664 -0.1922  1.1731
17147TIP3   OH272855   0.584   4.652   6.018  0.6800 -0.0227 -0.2344
17147TIP3    H172856   0.650   4.714   5.989 -0.4057  0.8644 -0.9142
17147TIP3    H272857   0.572   4.672   6.111  2.3127 -1.1236  0.2556
17148TIP3   OH272858   5.491   5.827   4.843 -0.1809 -0.1278 -0.3247
17148TIP3    H172859   5.476   5.739   4.808 -1.0369 -0.2796  0.3924
17148TIP3    H272860   5.584   5.828   4.865 -0.3838 -1.2377  0.6621
17149TIP3   OH272861   2.122   5.768   6.452 -0.5331  0.6185 -0.0995
17149TIP3    H172862   2.148   5.857   6.474 -0.0487  0.5387 -0.3383
17149TIP3    H272863   2.144   5.717   6.530 -0.2533  0.6032 -0.1893
17150TIP3   OH272864   3.673   6.604   3.911  0.1261  0.7195  0.3840
17150TIP3    H172865   3.664   6.696   3.887 -1.1395  0.7030  0.7416
17150TIP3    H272866   3.593   6.584   3.959 -0.1093 -0.8679 -0.6295
17151TIP3   OH272867   6.285   5.921   2.102  0.6838 -0.0525 -0.0036
17151TIP3    H172868   6.307   5.997   2.049  0.4232 -0.2624 -0.4223
17151TIP3    H272869   6.298   5.846   2.043  0.7001 -0.3128  0.3268
17152TIP3   OH272870   0.524   3.051   5.481  0.3334 -0.7182 -0.2780
17152TIP3    H172871   0.510   2.998   5.560 -0.1743  1.4996  1.2084
17152TIP3    H272872   0.592   3.114   5.506  1.3584 -0.9909 -2.1830
17153TIP3   OH272873   5.149   3.942   5.301 -0.4417  0.1764 -0.1347
17153TIP3    H172874   5.221   3.912   5.357 -0.0274  0.2868 -0.5940
17153TIP3    H272875   5.153   3.885   5.224 -2.6482 -1.7340  1.0433
17154TIP3   OH272876   2.427   0.752  11.275  0.0374  0.8981 -0.0905
17154TIP3    H172877   2.451   0.666  11.241  0.0165  0.7906  0.1638
17154TIP3    H272878   2.437   0.743  11.370 -0.4077  1.0375 -0.0309
17155TIP3   OH272879   1.862   4.253  14.161  0.0463 -0.3856 -0.2296
17155TIP3    H172880   1.936   4.289  14.111 -0.5892  0.6901 -0.4249
17155TIP3    H272881   1.838   4.323  14.221 -1.2391 -0.4584 -0.6300
17156TIP3   OH272882   5.771   0.608  14.851 -0.0300 -0.3242 -0.7243
17156TIP3    H172883   5.729   0.592  14.767  1.3820  1.1149 -1.7409
17156TIP3    H272884   5.712   0.668  14.896  0.8035  1.5882 -2.0946
17157TIP3   OH272885   0.273   5.076   4.904 -0.1474  0.3074 -0.0429
17157TIP3    H172886   0.268   4.991   4.860  0.4188 -0.7824  1.9085
17157TIP3    H272887   0.203   5.128   4.864 -1.1801 -1.4037 -0.5521
17158TIP3   OH272888   5.336   2.364  11.187  0.1183 -0.3468  0.0471
17158TIP3    H172889   5.384   2.308  11.248  0.6727 -0.6556 -0.6543
17158TIP3    H272890   5.304   2.304  11.120 -0.0440  0.0553 -0.2380
17159TIP3   OH272891   1.962   6.323  10.877  0.2527  0.4157 -0.0051
17159TIP3    H172892   1.878   6.325  10.830  0.4998 -1.6233 -0.6209
17159TIP3    H272893   1.955   6.247  10.935  0.9659  1.3704  1.3903
17160TIP3   OH272894   0.168   5.644   4.410  0.5255  0.2951  0.2833
17160TIP3    H172895   0.225   5.686   4.474 -0.7802  3.6983 -0.5918
17160TIP3    H272896   0.115   5.582   4.461  0.7146  1.6282  2.1992
17161TIP3   OH272897   1.755   5.604  14.395  0.3131  0.6477  0.0961
17161TIP3    H172898   1.687   5.590  14.329  2.7156  1.5734 -2.8041
17161TIP3    H272899   1.787   5.516  14.414 -1.0722  0.2775  0.9032
17162TIP3   OH272900   0.878   1.043  14.461  0.1490 -0.4428  0.6075
17162TIP3    H172901   0.947   1.090  14.414 -1.7298 -1.4282 -3.6258
17162TIP3    H272902   0.809   1.108  14.473 -0.4943 -0.8305 -0.7559
17163TIP3   OH272903   2.861   3.113  16.336 -0.0070  0.0367  0.0236
17163TIP3    H172904   2.852   3.158  16.420  1.0889 -1.1662  0.8282
17163TIP3    H272905   2.864   3.020  16.359  0.3627 -0.3121 -1.3547
17164TIP3   OH272906   1.280   0.807   5.928 -0.1797  0.0222 -0.4457
17164TIP3    H172907   1.267   0.723   5.971 -2.8798 -0.6463 -2.2870
17164TIP3    H272908   1.301   0.784   5.837 -0.6540  1.3169 -0.9088
17165TIP3   OH272909   3.538   2.967   0.156 -0.7856  0.4488 -0.1798
17165TIP3    H172910   3.494   2.946   0.074  0.5088  0.3531 -0.8832
17165TIP3    H272911   3.580   3.051   0.141  3.2934 -1.5274 -1.3554
17166TIP3   OH272912   0.086   5.238  16.441  0.4504  0.1132 -0.0474
17166TIP3    H172913   0.002   5.201  16.416 -0.3711  2.4069 -0.9900
17166TIP3    H272914   0.103   5.306  16.375  3.3945 -0.6941 -0.2938
17167TIP3   OH272915   6.130   6.061   5.959 -0.2722 -0.2405 -0.5659
17167TIP3    H172916   6.066   5.991   5.943 -1.9637  1.0518  0.1878
17167TIP3    H272917   6.144   6.059   6.054 -0.9102  0.8687 -0.4291
17168TIP3   OH272918   2.241   2.778  13.467 -0.7553  0.4995 -0.3902
17168TIP3    H172919   2.222   2.748  13.378 -0.0482  0.2304 -0.4592
17168TIP3    H272920   2.165   2.750  13.519 -0.6563 -0.3397 -0.6902
17169TIP3   OH272921   4.493   0.849   2.251  0.3783 -0.2002  0.6116
17169TIP3    H172922   4.510   0.763   2.289  0.3114  0.1428  1.4341
17169TIP3    H272923   4.581   0.882   2.228  0.4341 -0.3332  0.6332
17170TIP3   OH272924   4.224   6.256  13.655  0.0039  0.4566  0.1637
17170TIP3    H172925   4.159   6.281  13.721 -0.5238 -1.5951  0.5202
17170TIP3    H272926   4.246   6.165  13.677  2.5695  0.8954 -0.3252
17171TIP3   OH272927   5.070   0.099   2.320 -0.1667  0.1494 -0.5715
17171TIP3    H172928   5.082   0.156   2.396 -0.4155 -0.3761 -0.1325
17171TIP3    H272929   4.989   0.051   2.339 -0.4019  0.2438 -1.3148
17172TIP3   OH272930   1.765   5.356  16.943 -0.1611 -0.0495  0.4625
17172TIP3    H172931   1.813   5.273  16.952 -1.3531 -0.6346  1.7666
17172TIP3    H272932   1.682   5.340  16.988 -1.1784  1.2630 -0.8936
17173TIP3   OH272933   2.525   5.890   0.897 -0.2244  0.3539  0.7581
17173TIP3    H172934   2.442   5.881   0.850 -0.1102  1.0827  0.3999
17173TIP3    H272935   2.515   5.971   0.947  0.7711  1.1836 -0.3436
17174TIP3   OH272936   6.671   6.594  16.408  0.1529 -0.0902  0.2723
17174TIP3    H172937   6.618   6.665  16.444  1.3200  0.9210  0.0915
17174TIP3    H272938   6.733   6.639  16.350  0.8913 -1.2708  0.1254
17175TIP3   OH272939   3.342   5.891   5.542 -0.2395  0.0053  0.0497
17175TIP3    H172940   3.375   5.816   5.591  1.2353 -0.8155 -2.0579
17175TIP3    H272941   3.326   5.959   5.608 -1.3793 -2.0284  1.9835
17176TIP3   OH272942   4.036   2.698   4.451  0.8334  0.4525 -1.1103
17176TIP3    H172943   4.130   2.680   4.449  1.3097  2.7238 -1.0974
17176TIP3    H272944   4.008   2.667   4.538  1.6407  0.0980 -0.9681
17177TIP3   OH272945   0.897   0.052  15.958 -0.1854  0.1702  0.0788
17177TIP3    H172946   0.955   0.037  15.884 -0.0650 -1.0335  0.3942
17177TIP3    H272947   0.866   0.142  15.946  1.2005  0.6087 -0.4585
17178TIP3   OH272948   6.463   5.090   0.226  0.5589  0.3733 -0.2815
17178TIP3    H172949   6.434   5.001   0.246  1.1872  0.1643 -0.2694
17178TIP3    H272950   6.423   5.145   0.293  0.0201  0.1245 -0.3960
17179TIP3   OH272951   3.977   6.068  13.414 -0.1627 -0.7895 -0.2001
17179TIP3    H172952   4.071   6.049  13.414  0.0887  0.0560  2.4147
17179TIP3    H272953   3.936   5.992  13.454 -0.3088 -0.2503  0.7129
17180TIP3   OH272954   6.389   0.655   4.729  0.0892  0.8147  0.1485
17180TIP3    H172955   6.473   0.624   4.762 -1.1515 -1.9137  1.0126
17180TIP3    H272956   6.324   0.625   4.793 -1.7036  1.6697 -1.1512
17181TIP3   OH272957   0.980   1.115   1.887  0.0128 -0.2826 -0.0029
17181TIP3    H172958   1.049   1.119   1.821  1.6036 -1.1090  1.5164
17181TIP3    H272959   0.965   1.022   1.902  0.9646 -0.1810  1.9815
17182TIP3   OH272960   4.010   5.152  13.119 -0.3670 -0.1147 -0.5436
17182TIP3    H172961   4.018   5.228  13.060  0.3235 -0.1708 -0.5289
17182TIP3    H272962   3.936   5.174  13.176 -0.4321  0.3691 -0.8051
17183TIP3   OH272963   5.920   5.660  12.541 -0.1535 -0.0155 -0.1069
17183TIP3    H172964   5.916   5.573  12.581 -0.0392 -0.5182 -1.1425
17183TIP3    H272965   5.865   5.715  12.597 -0.6540 -0.8752  0.2672
17184TIP3   OH272966   4.566   6.389   0.307  0.3748 -0.4067  0.1928
17184TIP3    H172967   4.609   6.463   0.348  0.6120 -0.7410  0.5539
17184TIP3    H272968   4.541   6.420   0.220 -0.2440  0.3476  0.6289
17185TIP3   OH272969   2.496   1.010   1.252 -0.1163 -0.5354 -0.7542
17185TIP3    H172970   2.505   0.962   1.334 -3.1131  0.0929  0.0621
17185TIP3    H272971   2.500   0.943   1.184  0.1323 -1.3618  0.0604
17186TIP3   OH272972   0.300   5.267   3.596 -0.5725  0.5097 -0.1937
17186TIP3    H172973   0.281   5.324   3.521 -0.2765  0.8461 -0.0153
17186TIP3    H272974   0.375   5.214   3.567  0.2487  1.3978  0.2476
17187TIP3   OH272975   5.107   1.540  15.558  1.0798 -0.1445  0.2782
17187TIP3    H172976   5.109   1.584  15.473  1.7432  0.0682  0.3989
17187TIP3    H272977   5.174   1.585  15.610  1.5395 -1.0814  0.5135
17188TIP3   OH272978   0.372   5.119   5.531 -0.3358  0.3109 -0.3358
17188TIP3    H172979   0.460   5.088   5.554 -0.9608 -0.6208  0.9050
17188TIP3    H272980   0.339   5.054   5.470 -0.5620  0.1031  0.0106
17189TIP3   OH272981   5.885   2.696   4.015  0.4949 -0.1195 -0.3358
17189TIP3    H172982   5.831   2.755   4.067  0.9622 -0.7168  0.8526
17189TIP3    H272983   5.824   2.654   3.955 -0.6563 -1.8304  1.9181
17190TIP3   OH272984   6.607   4.974  11.398  0.1749  0.5530  0.4048
17190TIP3    H172985   6.611   4.993  11.305 -0.2780 -0.7317  0.1009
17190TIP3    H272986   6.643   4.885  11.406  2.0928  1.3593  1.7198
17191TIP3   OH272987   5.896   3.182  11.714  0.2805  0.3494 -0.1112
17191TIP3    H172988   5.956   3.144  11.649 -1.0799  1.0657 -1.8674
17191TIP3    H272989   5.864   3.262  11.672 -1.1530  0.4893  1.1891
17192TIP3   OH272990   4.119   2.999   2.578 -0.1611  0.5115 -1.1537
17192TIP3    H172991   4.054   3.069   2.585 -1.3855 -0.7427  1.4024
17192TIP3    H272992   4.195   3.032   2.627  0.0891  0.8769 -1.7780
17193TIP3   OH272993   0.383   5.099  17.415  0.1191 -0.7309 -0.2676
17193TIP3    H172994   0.393   5.065  17.504 -0.7782  1.6475  0.8335
17193TIP3    H272995   0.450   5.167  17.407 -0.3802 -0.3093 -1.0518
17194TIP3   OH272996   5.927   4.636  14.493 -0.1622 -0.3849 -0.6189
17194TIP3    H172997   5.918   4.705  14.427 -0.2707  0.9805  0.7418
17194TIP3    H272998   5.847   4.645  14.546  0.1204 -1.1546 -0.0578
17195TIP3   OH272999   6.747   2.808   0.331  0.3129 -0.3070 -0.2742
17195TIP3    H173000   6.815   2.785   0.393  0.3383 -0.1941 -0.2602
17195TIP3    H273001   6.712   2.724   0.301  0.3273 -0.3619 -0.1376
17196TIP3   OH273002   5.100   5.946   4.441 -0.8124  0.6486  0.0421
17196TIP3    H173003   5.004   5.948   4.445 -0.8540  2.9051 -0.6955
17196TIP3    H273004   5.123   6.018   4.381  1.3292 -0.1512 -0.1789
17197TIP3   OH273005   4.234   4.019   4.250 -0.0533 -0.4052  0.0723
17197TIP3    H173006   4.262   3.937   4.210 -0.4614 -0.9051  0.7877
17197TIP3    H273007   4.194   4.069   4.179 -0.4659 -1.1331 -0.2055
17198TIP3   OH273008   3.355   4.464  16.863 -0.1800  0.4575  0.5397
17198TIP3    H173009   3.447   4.468  16.838 -0.0668  0.7105  0.9788
17198TIP3    H273010   3.355   4.415  16.945 -0.4745  0.1655  0.3682
17199TIP3   OH273011   2.975   0.161   3.656 -0.0332 -0.1735 -0.1507
17199TIP3    H173012   3.018   0.167   3.742  0.4127  0.8814 -0.4430
17199TIP3    H273013   2.891   0.119   3.675 -0.4654  1.1424  1.0025
17200TIP3   OH273014   4.227   2.122  12.672 -0.2215  0.3286 -0.1050
17200TIP3    H173015   4.284   2.047  12.656  1.3308  0.7433  2.7162
17200TIP3    H273016   4.238   2.177  12.595  1.9910 -0.3953 -0.3871
17201TIP3   OH273017   6.212   6.002  16.934 -1.0017  0.0305 -0.1265
17201TIP3    H173018   6.119   5.994  16.955 -0.6555 -0.8088  1.1482
17201TIP3    H273019   6.248   6.060  17.001  0.0186 -2.3083  1.4810
17202TIP3   OH273020   5.806   0.760  16.053 -0.3357  0.1512  0.6890
17202TIP3    H173021   5.760   0.827  16.103 -1.5074 -0.0558 -0.0470
17202TIP3    H273022   5.740   0.692  16.039 -0.5182  0.8050 -2.2741
17203TIP3   OH273023   4.324   3.597   4.745 -0.1256  0.6640  0.2682
17203TIP3    H173024   4.415   3.621   4.727 -0.0146  1.8217  2.1086
17203TIP3    H273025   4.319   3.593   4.841 -1.6285 -1.0316  0.1811
17204TIP3   OH273026   3.184   0.666   4.909 -0.8388  0.0428  0.4715
17204TIP3    H173027   3.237   0.591   4.936  0.6533  1.0504  0.4719
17204TIP3    H273028   3.095   0.643   4.935 -0.9969 -2.9955 -2.0755
17205TIP3   OH273029   6.134   6.656  16.348 -0.2101  0.2972 -0.1862
17205TIP3    H173030   6.101   6.568  16.326  0.0840  0.3443 -0.8327
17205TIP3    H273031   6.155   6.695  16.263  0.0053  0.8606  0.1266
17206TIP3   OH273032   0.891   4.578   4.462 -0.2731 -0.0564 -0.2861
17206TIP3    H173033   0.861   4.658   4.506  2.1214 -0.2375  1.9560
17206TIP3    H273034   0.813   4.523   4.456 -1.4216  1.4023  0.5880
17207TIP3   OH273035   3.779   4.681  12.832  0.0076  0.0921 -0.6491
17207TIP3    H173036   3.817   4.747  12.890 -0.2355  0.0558 -0.4450
17207TIP3    H273037   3.722   4.731  12.774  0.0257  0.0928 -0.6660
17208TIP3   OH273038   6.627   5.723   4.327  0.0879  0.4416  0.1860
17208TIP3    H173039   6.566   5.673   4.273  0.3740  0.6145 -0.3084
17208TIP3    H273040   6.706   5.669   4.329 -0.0680  0.2315  0.7990
17209TIP3   OH273041   5.283   6.074  11.915  0.5176  0.1073 -0.1619
17209TIP3    H173042   5.329   6.130  11.851  0.1082  0.8098  0.1426
17209TIP3    H273043   5.203   6.123  11.935  0.6638 -0.0882  0.9248
17210TIP3   OH273044   5.981   3.695   4.272 -0.3419 -0.3147  0.0679
17210TIP3    H173045   6.025   3.674   4.190 -1.4061 -2.6827  0.0437
17210TIP3    H273046   6.009   3.627   4.333 -0.8560  0.4509  1.1993
17211TIP3   OH273047   0.729   3.665   5.236 -0.6161  0.4982  0.2678
17211TIP3    H173048   0.759   3.575   5.222  3.1058  1.1443  2.6433
17211TIP3    H273049   0.784   3.718   5.179  0.1883  1.4722  1.8508
17212TIP3   OH273050   5.632   1.323   3.663 -0.0224 -0.5557 -0.7265
17212TIP3    H173051   5.652   1.245   3.611 -0.3602 -1.3709  0.3418
17212TIP3    H273052   5.539   1.339   3.647  0.3250  0.4219 -1.9556
17213TIP3   OH273053   0.908   4.716  14.417 -0.0269  0.1491 -0.6173
17213TIP3    H173054   0.828   4.761  14.444 -0.1440 -0.3097 -0.1730
17213TIP3    H273055   0.972   4.786  14.407 -0.0098  0.3701  0.7474
17214TIP3   OH273056   1.169   2.072   2.548 -0.0835 -0.1905  0.1201
17214TIP3    H173057   1.154   2.138   2.615 -0.9599  1.1989 -1.3656
17214TIP3    H273058   1.184   2.122   2.468 -1.1335 -1.7614 -1.1374
17215TIP3   OH273059   6.530   0.948  16.941  0.7800 -0.1011  0.3740
17215TIP3    H173060   6.506   0.897  17.018  1.5526  0.4438  0.9953
17215TIP3    H273061   6.542   0.883  16.872  0.9490 -0.6902  0.9412
17216TIP3   OH273062   3.332   3.276   1.506 -0.6268 -0.2038 -0.2871
17216TIP3    H173063   3.338   3.184   1.479 -0.3825  0.1031 -1.3532
17216TIP3    H273064   3.241   3.300   1.488 -0.2990  0.1928 -1.5941
17217TIP3   OH273065   6.741   2.337  14.374 -0.3897  0.1868 -0.1594
17217TIP3    H173066   6.655   2.304  14.400  0.2954 -0.9492  0.7453
17217TIP3    H273067   6.786   2.261  14.336  0.4753  0.5875  0.0479
17218TIP3   OH273068   6.599   3.345  17.107 -0.0313 -0.1455  0.1254
17218TIP3    H173069   6.642   3.260  17.101 -0.3667 -0.2997 -0.1795
17218TIP3    H273070   6.667   3.408  17.083  0.0449 -0.3820 -0.2961
17219TIP3   OH273071   2.075   1.273  17.314  0.3262 -0.4057 -0.2029
17219TIP3    H173072   2.129   1.202  17.281 -0.1434  0.0584 -2.0915
17219TIP3    H273073   2.035   1.312  17.236  2.3620  3.4070  0.4039
17220TIP3   OH273074   4.113   3.647  17.441 -0.4115  0.1813 -0.0633
17220TIP3    H173075   4.167   3.716  17.403 -1.1117  1.0769  0.5453
17220TIP3    H273076   4.082   3.682  17.524 -2.8300  0.1693 -0.8720
17221TIP3   OH273077   4.645   2.954   2.124 -0.0205  0.0636 -0.3869
17221TIP3    H173078   4.568   2.950   2.181 -1.0107  0.2903 -1.6620
17221TIP3    H273079   4.648   2.867   2.083  2.4935 -1.2267  2.1882
17222TIP3   OH273080   3.496   4.036   5.589  0.0920 -0.0394 -0.2785
17222TIP3    H173081   3.464   3.946   5.575  1.3077 -0.8138  1.5074
17222TIP3    H273082   3.429   4.092   5.550 -1.5549 -1.6772  0.0816
17223TIP3   OH273083   0.547   0.576  16.002 -0.0098  0.1761 -0.8415
17223TIP3    H173084   0.578   0.505  16.059 -1.9996  1.7555  2.5450
17223TIP3    H273085   0.585   0.656  16.040  0.2996  1.2035 -3.1250
17224TIP3   OH273086   3.149   6.425  11.029  0.4585 -0.0885 -0.5168
17224TIP3    H173087   3.062   6.444  10.995 -0.3348 -0.5968  1.0881
17224TIP3    H273088   3.140   6.339  11.071  1.6270  0.0095 -0.0079
17225TIP3   OH273089   5.953   5.646   3.951  0.2363 -0.0259  0.1652
17225TIP3    H173090   5.918   5.709   4.014 -0.9865 -0.2085 -0.3092
17225TIP3    H273091   5.887   5.578   3.945  0.3506 -0.0384 -1.2749
17226TIP3   OH273092   3.164   3.640  15.602 -0.0739 -0.2098 -0.0294
17226TIP3    H173093   3.145   3.723  15.558 -0.0449 -0.7914 -1.1791
17226TIP3    H273094   3.134   3.573  15.541 -1.5324 -1.0532  1.5410
17227TIP3   OH273095   2.412   6.734  12.570 -0.4732 -0.0125  0.2466
17227TIP3    H173096   2.425   6.682  12.650 -0.1669 -0.3959 -0.0515
17227TIP3    H273097   2.500   6.768  12.550 -0.4691 -0.2624 -0.1623
17228TIP3   OH273098   2.738   2.139  13.911 -0.2878 -0.3493 -0.0000
17228TIP3    H173099   2.790   2.173  13.984 -0.3092  1.2899 -0.6978
17228TIP3    H273100   2.769   2.188  13.835 -1.1887 -1.0699 -0.8561
17229TIP3   OH273101   2.325   2.383  15.034  0.1116  0.4807 -0.0866
17229TIP3    H173102   2.291   2.316  15.094  2.5924  0.4589  1.4466
17229TIP3    H273103   2.326   2.463  15.086  0.6894  0.8594 -0.6651
17230TIP3   OH273104   0.172   5.911   6.511  0.0761 -0.1023 -0.2140
17230TIP3    H173105   0.174   5.939   6.602  2.3661 -0.8074  0.0074
17230TIP3    H273106   0.171   5.815   6.516  0.8530 -0.1547 -0.9198
17231TIP3   OH273107   6.137   4.873   3.662  0.3320  0.3862 -0.1603
17231TIP3    H173108   6.153   4.865   3.756  0.3520 -0.2640 -0.2153
17231TIP3    H273109   6.054   4.920   3.656 -0.5894 -1.1532  0.2219
17232TIP3   OH273110   3.336   5.936  13.547  0.2517 -0.2471 -0.1894
17232TIP3    H173111   3.279   5.867  13.582 -1.9537  0.6659 -1.7462
17232TIP3    H273112   3.282   6.015  13.550  2.8683  1.6502  2.0528
17233TIP3   OH273113   2.305   6.225  17.385  0.5535 -1.0504  0.7835
17233TIP3    H173114   2.246   6.152  17.403  1.1403 -1.3880  1.3812
17233TIP3    H273115   2.336   6.253  17.472  0.7215 -0.4190  0.5281
17234TIP3   OH273116   3.969   4.564  13.718 -0.9216  0.9163  0.2836
17234TIP3    H173117   4.000   4.571  13.808  0.7091  0.6781 -0.2208
17234TIP3    H273118   3.998   4.645  13.676 -1.2741  0.8264 -0.1500
17235TIP3   OH273119   6.451   0.372  11.274  0.6892  0.4096 -0.0467
17235TIP3    H173120   6.543   0.349  11.285  0.7665 -0.5295 -2.1648
17235TIP3    H273121   6.439   0.377  11.179 -0.9186  2.7686  0.1944
17236TIP3   OH273122   5.919   0.276  13.193 -0.1939 -0.4161 -0.0516
17236TIP3    H173123   5.929   0.272  13.288 -1.9209 -1.9817  0.1201
17236TIP3    H273124   5.925   0.185  13.164  0.5387  0.0621 -1.4968
17237TIP3   OH273125   3.018   5.953   2.557 -0.0750  0.4380 -0.4024
17237TIP3    H173126   2.997   5.881   2.616  0.4233 -0.3386 -1.1546
17237TIP3    H273127   3.113   5.954   2.552 -0.0844  1.0161 -0.5619
17238TIP3   OH273128   0.319   4.679  15.301 -0.3523 -0.1737  0.3646
17238TIP3    H173129   0.367   4.602  15.271  0.3685  0.6448 -0.6486
17238TIP3    H273130   0.382   4.751  15.293 -1.2091  0.6309  0.6861
17239TIP3   OH273131   1.920   2.211  17.086 -0.1070 -0.3745  0.0856
17239TIP3    H173132   1.948   2.203  16.995 -1.9492  1.3890 -0.7173
17239TIP3    H273133   1.825   2.201  17.082 -0.2619  0.2320  1.7491
17240TIP3   OH273134   1.756   1.445   0.199 -0.3469  0.0934  0.2601
17240TIP3    H173135   1.849   1.429   0.181 -0.0760  0.5599  1.1876
17240TIP3    H273136   1.737   1.391   0.276 -0.8316  0.0494  0.1137
17241TIP3   OH273137   0.306   0.670  15.940  0.1916  0.8219  0.5457
17241TIP3    H173138   0.341   0.759  15.930  1.6532  0.0050 -2.6761
17241TIP3    H273139   0.380   0.620  15.977  0.4789  0.3163 -0.6820
17242TIP3   OH273140   3.931   1.601  11.800  0.6386  0.1270  0.2111
17242TIP3    H173141   3.851   1.572  11.844 -0.7359  1.5666 -1.1951
17242TIP3    H273142   3.906   1.608  11.708  2.6828 -0.2896 -0.4056
17243TIP3   OH273143   1.219   5.572   6.444 -0.2456 -0.1408  0.3276
17243TIP3    H173144   1.282   5.605   6.508 -1.5840  0.6021  1.3195
17243TIP3    H273145   1.268   5.509   6.392  1.3922  0.6422  0.8502
17244TIP3   OH273146   2.857   1.476  15.347 -0.2757 -0.2670 -0.3402
17244TIP3    H173147   2.885   1.521  15.427 -0.8168 -2.1942  1.0169
17244TIP3    H273148   2.899   1.524  15.276  3.4394 -0.7389  1.2954
17245TIP3   OH273149   3.367   4.606  12.746 -0.2039 -0.4260  0.1505
17245TIP3    H173150   3.454   4.642  12.731 -0.5513  0.2447 -0.2897
17245TIP3    H273151   3.309   4.682  12.749 -0.9427 -0.9365 -0.7068
17246TIP3   OH273152   5.952   2.785  13.760  0.4418 -0.0287 -1.0151
17246TIP3    H173153   5.879   2.840  13.788  0.8168 -1.0191  2.3446
17246TIP3    H273154   5.913   2.724  13.697 -1.7269 -0.5008  0.6362
17247TIP3   OH273155   3.637   3.090   2.612  0.0713 -0.1809 -0.6416
17247TIP3    H173156   3.547   3.058   2.620 -0.2457  0.7081 -0.6224
17247TIP3    H273157   3.691   3.018   2.646 -0.6004 -0.8579 -0.9729
17248TIP3   OH273158   1.634   0.440   3.403  0.2662 -0.3163 -0.3482
17248TIP3    H173159   1.562   0.382   3.376 -0.5542  0.1468  0.7739
17248TIP3    H273160   1.665   0.478   3.321 -1.6036  0.4152 -0.7636
17249TIP3   OH273161   3.749   3.168  17.098 -0.4741  0.6673  0.2222
17249TIP3    H173162   3.687   3.233  17.131  2.2956  3.8680 -0.4142
17249TIP3    H273163   3.809   3.152  17.171  0.2109  0.6054 -0.3410
17250TIP3   OH273164   5.354   0.240  12.411 -0.0620  0.2897  0.1182
17250TIP3    H173165   5.338   0.191  12.331 -0.2335 -1.1851  1.0312
17250TIP3    H273166   5.396   0.321  12.381  0.4059 -0.4780 -1.4142
17251TIP3   OH273167   4.757   0.929  13.233 -0.1647  0.1193  0.5753
17251TIP3    H173168   4.770   0.857  13.171  0.6429 -0.1926  1.0954
17251TIP3    H273169   4.810   1.001  13.197 -1.7962  0.8439 -0.5172
17252TIP3   OH273170   2.582   4.137  15.873  0.2861 -0.3669  0.3594
17252TIP3    H173171   2.505   4.145  15.816  0.9173 -1.1436 -0.6432
17252TIP3    H273172   2.616   4.049  15.855  2.4821  0.6162 -0.6143
17253TIP3   OH273173   1.384   6.354   3.093 -0.2932  0.2569  0.5531
17253TIP3    H173174   1.412   6.340   3.184 -2.2025 -0.3374  1.1018
17253TIP3    H273175   1.386   6.449   3.082  1.1679  0.2726  0.7863
17254TIP3   OH273176   5.793   5.819   4.137 -0.0252 -0.3707 -0.8004
17254TIP3    H173177   5.861   5.886   4.134 -1.8847  1.6354 -1.4770
17254TIP3    H273178   5.810   5.770   4.217  0.1179  2.4733  1.0612
17255TIP3   OH273179   5.085   0.479   5.234  0.2602 -0.1600 -0.0483
17255TIP3    H173180   5.021   0.511   5.170  1.6452  3.8923  0.3209
17255TIP3    H273181   5.162   0.458   5.182  0.7733  1.3997  0.0191
17256TIP3   OH273182   1.442   3.042   3.345 -0.4977 -0.3290  0.2259
17256TIP3    H173183   1.475   3.124   3.381 -1.7474 -0.2162  1.2177
17256TIP3    H273184   1.416   2.991   3.422  1.0054 -2.0279 -0.3129
17257TIP3   OH273185   1.423   2.254  15.707  0.0709  0.0165 -0.2135
17257TIP3    H173186   1.474   2.178  15.678 -0.0925 -0.6110  1.0571
17257TIP3    H273187   1.484   2.327  15.702  0.4453 -0.3260 -0.7753
17258TIP3   OH273188   0.365   0.613  12.046  0.3262  0.5354  0.1501
17258TIP3    H173189   0.460   0.623  12.041  0.4708 -0.7609  0.0036
17258TIP3    H273190   0.349   0.523  12.020 -0.8265  0.2812  1.6063
17259TIP3   OH273191   0.825   4.023  14.178  0.8722 -0.4005 -0.3498
17259TIP3    H173192   0.895   3.973  14.138  0.9618  1.3499 -2.6359
17259TIP3    H273193   0.751   3.963  14.181  1.7740 -1.5293 -0.2279
17260TIP3   OH273194   2.610   5.446   6.526  0.2901  0.0428  0.5660
17260TIP3    H173195   2.535   5.386   6.520  0.9261 -0.6896 -0.4644
17260TIP3    H273196   2.686   5.389   6.534  0.9325  0.6825 -0.6449
17261TIP3   OH273197   0.013   0.241  15.917 -0.1962 -0.5770 -0.5199
17261TIP3    H173198   0.038   0.325  15.881  0.3939 -0.2992  0.4992
17261TIP3    H273199   0.081   0.180  15.887  1.9730  0.2017  2.3588
17262TIP3   OH273200   1.812   2.820   0.670  0.1795  0.0146  0.0235
17262TIP3    H173201   1.744   2.753   0.680  0.1389  0.2686  1.8733
17262TIP3    H273202   1.765   2.899   0.643 -0.4112  0.3360  1.8137
17263TIP3   OH273203   0.195   2.337  13.494 -0.0130  0.0833  0.4779
17263TIP3    H173204   0.123   2.275  13.487  0.2667 -0.1869 -0.1629
17263TIP3    H273205   0.251   2.316  13.419 -0.3853  1.7178 -0.2899
17264TIP3   OH273206   4.420   5.913   0.517  0.7216  0.0916 -0.3105
17264TIP3    H173207   4.377   5.966   0.583 -0.4567 -0.1763 -0.8312
17264TIP3    H273208   4.386   5.946   0.434  0.8481 -0.7170 -0.6956
17265TIP3   OH273209   2.341   2.737   2.353  0.2741  0.0809  0.0252
17265TIP3    H173210   2.264   2.691   2.384  2.0978 -4.6875 -1.5849
17265TIP3    H273211   2.404   2.730   2.425  0.3869  0.6183 -0.0169
17266TIP3   OH273212   5.902   4.753   4.818 -0.2373 -0.3001 -0.1619
17266TIP3    H173213   5.951   4.685   4.864 -0.2561 -0.5377 -0.4930
17266TIP3    H273214   5.896   4.824   4.881  0.6869 -0.1945 -0.1735
17267TIP3   OH273215   2.225   6.543   5.680 -0.3047 -0.5403 -0.4912
17267TIP3    H173216   2.237   6.524   5.587  0.0558 -1.4430 -0.2708
17267TIP3    H273217   2.294   6.493   5.724 -1.5210 -1.5053  0.3875
17268TIP3   OH273218   1.361   0.833  14.002  0.6341 -0.0135  0.2044
17268TIP3    H173219   1.436   0.788  13.963  0.4987 -0.7473  0.7775
17268TIP3    H273220   1.377   0.831  14.096 -1.2005 -2.2837  0.5593
17269TIP3   OH273221   1.170   2.539  15.542 -0.5983 -0.2138 -0.6354
17269TIP3    H173222   1.096   2.569  15.489 -0.7830 -1.2806 -1.0109
17269TIP3    H273223   1.243   2.596  15.518 -0.5869 -0.8960 -2.2958
17270TIP3   OH273224   1.338   5.557  15.078  0.5539  0.0804  1.1297
17270TIP3    H173225   1.273   5.605  15.026 -0.6637 -2.2095  0.4186
17270TIP3    H273226   1.308   5.568  15.168  0.4285  0.8517  1.0001
17271TIP3   OH273227   4.296   0.199  11.362  0.0161  0.4188  0.1979
17271TIP3    H173228   4.238   0.138  11.316  1.8472 -1.6791  0.5252
17271TIP3    H273229   4.380   0.191  11.317  0.5510  2.0281  0.8511
17272TIP3   OH273230   1.610   6.341  13.179 -0.0895  0.1805 -0.0479
17272TIP3    H173231   1.577   6.293  13.103 -0.7787 -0.4302  0.6178
17272TIP3    H273232   1.700   6.309  13.190 -0.1781 -0.1558 -0.2717
17273TIP3   OH273233   1.790   2.803   5.838 -0.0305 -0.0132 -0.2126
17273TIP3    H173234   1.870   2.850   5.815  0.2563 -0.5458 -0.3324
17273TIP3    H273235   1.797   2.788   5.932 -1.6986  3.0936  0.5481
17274TIP3   OH273236   3.782   4.060   0.981 -0.0048  0.1260  0.0506
17274TIP3    H173237   3.691   4.036   0.960 -0.1662  0.3109  0.5243
17274TIP3    H273238   3.819   4.088   0.897 -0.3943  0.0865 -0.1396
17275TIP3   OH273239   2.403   1.032  15.539 -0.0112  0.0896 -0.3012
17275TIP3    H173240   2.327   0.975  15.524 -0.5716  0.9778 -0.9281
17275TIP3    H273241   2.476   0.984  15.500 -0.7797  0.5460 -2.4390
17276TIP3   OH273242   0.640   6.273   1.143  0.2644 -0.0678 -0.2618
17276TIP3    H173243   0.732   6.258   1.124  0.3475 -0.1229  0.1826
17276TIP3    H273244   0.597   6.272   1.057  0.9370  1.8314 -0.6745
17277TIP3   OH273245   2.857   4.866  13.353  0.3366  0.0376 -0.3813
17277TIP3    H173246   2.790   4.929  13.382  0.2408 -0.0372 -0.4375
17277TIP3    H273247   2.940   4.906  13.377  0.2377 -0.3744  0.7394
17278TIP3   OH273248   2.077   0.979   3.428  0.5462  0.1473 -0.4134
17278TIP3    H173249   2.054   0.916   3.496  0.8219  2.9325  2.5196
17278TIP3    H273250   1.992   1.015   3.400  0.5446  1.9873  1.6987
17279TIP3   OH273251   0.944   5.810   5.919 -0.0798 -0.5520  0.0706
17279TIP3    H173252   0.869   5.773   5.873 -1.2965  1.7648  0.0740
17279TIP3    H273253   0.994   5.855   5.851 -0.6961  1.0113  0.6161
17280TIP3   OH273254   0.433   0.728  17.387  0.3078  0.6743  0.6788
17280TIP3    H173255   0.449   0.773  17.470 -0.9807  2.1689  0.1675
17280TIP3    H273256   0.344   0.695  17.395 -0.1071  1.4971 -0.3747
17281TIP3   OH273257   5.443   6.461   5.982  0.1019  0.6165  0.0585
17281TIP3    H173258   5.374   6.480   6.046 -1.1801 -0.7606 -0.8472
17281TIP3    H273259   5.524   6.470   6.031 -0.8439 -0.5475  1.9472
17282TIP3   OH273260   4.852   5.585  16.624 -0.1015  0.0250 -0.2111
17282TIP3    H173261   4.818   5.674  16.620  3.1325  1.6473  2.9487
17282TIP3    H273262   4.943   5.592  16.592  0.8996 -1.6087  1.9873
17283TIP3   OH273263   1.412   6.606   5.080 -0.1192  1.0490  0.5748
17283TIP3    H173264   1.402   6.619   4.986 -0.4352  2.5707  0.7894
17283TIP3    H273265   1.333   6.558   5.106 -1.2244  2.6860  0.4013
17284TIP3   OH273266   6.529   2.267   4.709  0.1521 -0.3153  0.9279
17284TIP3    H173267   6.571   2.342   4.751  1.2626  0.3190 -1.1883
17284TIP3    H273268   6.525   2.290   4.616 -0.3476 -2.4875  0.3487
17285TIP3   OH273269   5.325   6.156   0.337  0.9263  0.4375  0.2392
17285TIP3    H173270   5.322   6.203   0.254 -0.6385 -0.6173 -0.3450
17285TIP3    H273271   5.255   6.195   0.389 -0.0132 -0.8179 -0.0445
17286TIP3   OH273272   3.372   4.404   6.138  0.6272  0.2067 -0.5939
17286TIP3    H173273   3.319   4.411   6.059  0.8484  1.2716 -0.6627
17286TIP3    H273274   3.311   4.376   6.206  0.5539 -1.3370 -1.2463
17287TIP3   OH273275   2.244   6.036  12.781  0.0440 -0.1637 -0.1881
17287TIP3    H173276   2.224   5.950  12.817  0.2343  0.2116  0.8651
17287TIP3    H273277   2.330   6.058  12.818  0.5600 -0.0266 -1.4111
17288TIP3   OH273278   3.904   5.681   5.202 -0.2766  0.5475 -0.2115
17288TIP3    H173279   3.951   5.755   5.241  1.6628 -0.7786  0.1520
17288TIP3    H273280   3.873   5.714   5.118 -0.0674  1.9727  0.2425
17289TIP3   OH273281   3.017   1.418  14.521 -0.0259  0.9583  0.4600
17289TIP3    H173282   2.990   1.501  14.480 -0.2230  0.8549  0.3807
17289TIP3    H273283   2.935   1.373  14.540  0.0868 -0.3623 -1.8307
17290TIP3   OH273284   3.345   2.750   1.631 -0.4041 -0.3668  0.0709
17290TIP3    H173285   3.276   2.719   1.572 -0.7612 -1.2631  0.9202
17290TIP3    H273286   3.304   2.822   1.678 -0.8840 -1.0672  0.7625
17291TIP3   OH273287   5.996   1.039  14.611  0.2606  0.2948 -0.6375
17291TIP3    H173288   6.076   1.050  14.662 -0.2545 -1.2433  0.5661
17291TIP3    H273289   5.932   1.004  14.673 -0.4168 -1.5845 -2.2906
17292TIP3   OH273290   3.608   5.272  16.792 -0.4324  0.1485 -0.1069
17292TIP3    H173291   3.564   5.202  16.840  0.1943 -0.5568 -0.5434
17292TIP3    H273292   3.602   5.348  16.850 -2.3852  0.1416 -0.2320
17293TIP3   OH273293   0.600   4.096   5.613 -0.3587  0.0149  0.6455
17293TIP3    H173294   0.628   4.042   5.540  1.2089 -2.9843  3.1852
17293TIP3    H273295   0.674   4.154   5.631  0.1554 -0.7529  1.0894
17294TIP3   OH273296   2.352   5.998  16.838  0.1940 -0.0604 -0.2526
17294TIP3    H173297   2.393   6.081  16.859 -0.0123 -0.1379  0.4930
17294TIP3    H273298   2.301   6.016  16.759  0.4547  0.4156 -0.3168
17295TIP3   OH273299   5.409   1.210  12.798 -0.1049 -0.4535 -0.0399
17295TIP3    H173300   5.340   1.189  12.860 -1.2542 -0.5798 -1.3203
17295TIP3    H273301   5.369   1.272  12.737  1.4497  0.8546  0.2102
17296TIP3   OH273302   3.023   3.529   6.673 -0.5933 -0.0426  0.0934
17296TIP3    H173303   3.097   3.581   6.640 -0.6382 -0.8363 -1.3568
17296TIP3    H273304   3.006   3.564   6.760  2.6112 -0.9615  1.2211
17297TIP3   OH273305   1.581   4.667   4.324  0.3371 -0.0953  0.7281
17297TIP3    H173306   1.676   4.657   4.310  0.2576 -0.8106  0.6950
17297TIP3    H273307   1.550   4.579   4.341 -0.5674 -0.0891 -0.7508
17298TIP3   OH273308   6.726   2.373   4.214  0.2000  0.5467  0.3959
17298TIP3    H173309   6.767   2.387   4.128 -0.4634  0.9669  0.1384
17298TIP3    H273310   6.784   2.310   4.258 -0.0355 -0.5459 -0.7833
17299TIP3   OH273311   1.951   3.713   0.802 -0.3522  0.7279 -0.4610
17299TIP3    H173312   1.975   3.623   0.825 -1.7899  0.1383 -1.1444
17299TIP3    H273313   1.855   3.713   0.801 -0.3723  2.2137 -0.7085
17300TIP3   OH273314   5.360   2.575  13.780 -0.1800 -0.4895  0.0894
17300TIP3    H173315   5.417   2.637  13.736 -0.2597 -1.4782 -1.4824
17300TIP3    H273316   5.314   2.530  13.710  0.5827 -3.0021  1.0855
17301TIP3   OH273317   2.127   4.395   5.082 -0.0518  0.8281 -0.2463
17301TIP3    H173318   2.085   4.378   4.998 -1.7136  0.6795  0.5616
17301TIP3    H273319   2.221   4.388   5.065 -0.3101  1.6825 -2.2592
17302TIP3   OH273320   3.738   6.329  12.153 -0.3886  0.2130  0.1668
17302TIP3    H173321   3.792   6.408  12.148  2.5417 -1.3930  2.6756
17302TIP3    H273322   3.665   6.354  12.211 -0.5570  1.5313 -0.5693
17303TIP3   OH273323   5.490   1.117   4.521  0.2628 -0.2585 -0.2458
17303TIP3    H173324   5.459   1.031   4.492 -0.4179 -0.4946  1.0990
17303TIP3    H273325   5.423   1.179   4.492  0.6072 -0.2097 -0.9556
17304TIP3   OH273326   4.164   2.405  16.019  0.6350 -0.5207 -0.3051
17304TIP3    H173327   4.252   2.390  16.053 -0.3906 -3.2832  1.6077
17304TIP3    H273328   4.147   2.329  15.962  0.4701  1.4968 -3.1513
17305TIP3   OH273329   4.360   4.316   5.468 -0.0785  0.7119 -0.2486
17305TIP3    H173330   4.366   4.230   5.426 -0.7242  1.0902 -1.1504
17305TIP3    H273331   4.394   4.377   5.402  1.9759  1.0179  0.9846
17306TIP3   OH273332   0.457   1.794   6.402 -0.1441 -0.9067  0.4670
17306TIP3    H173333   0.383   1.816   6.458 -1.6559  4.7891 -2.8966
17306TIP3    H273334   0.525   1.856   6.428  0.5052 -0.7768 -1.3952
17307TIP3   OH273335   5.358   0.732   5.334 -0.6395 -0.2481 -0.2503
17307TIP3    H173336   5.384   0.824   5.323  2.5231 -0.8585  0.9879
17307TIP3    H273337   5.438   0.683   5.314 -1.3825 -2.5526  2.0274
17308TIP3   OH273338   1.371   0.854   0.059 -0.1003 -0.1501  0.3730
17308TIP3    H173339   1.300   0.918   0.049  0.8036  0.5516 -2.8765
17308TIP3    H273340   1.328   0.769   0.050 -0.6523  0.2491 -1.2065
17309TIP3   OH273341   2.354   2.824   3.795 -0.6860 -0.1163  0.1078
17309TIP3    H173342   2.276   2.842   3.847 -1.0704 -1.2335 -0.0582
17309TIP3    H273343   2.380   2.735   3.820  1.9613  1.0239  1.9740
17310TIP3   OH273344   3.989   0.150  16.197  0.6854 -0.1910  0.4502
17310TIP3    H173345   4.082   0.135  16.213  1.2974  0.6945 -1.8455
17310TIP3    H273346   3.986   0.196  16.113 -1.7830  0.6628  0.9071
17311TIP3   OH273347   2.762   1.855  15.405  0.3427  0.0550 -0.6479
17311TIP3    H173348   2.790   1.935  15.361  0.5605  0.5462  0.3528
17311TIP3    H273349   2.770   1.875  15.498  1.6259 -1.5693 -0.3672
17312TIP3   OH273350   0.747   5.307   2.731 -0.2773  0.3229  0.4294
17312TIP3    H173351   0.712   5.301   2.642 -1.5732  1.4797  0.8325
17312TIP3    H273352   0.841   5.322   2.719 -0.4890  0.7838 -0.7414
17313TIP3   OH273353   5.527   2.097   3.973  0.2884 -0.3694 -0.8937
17313TIP3    H173354   5.588   2.050   4.030  0.6926 -1.9001 -2.5013
17313TIP3    H273355   5.508   2.178   4.021  2.5248 -0.4366  0.2840
17314TIP3   OH273356   4.967   0.820  13.400  0.1744 -0.2039  0.0982
17314TIP3    H173357   5.053   0.778  13.395 -0.3345 -1.1462 -1.8853
17314TIP3    H273358   4.969   0.886  13.331 -0.9529 -0.7746 -0.4900
17315TIP3   OH273359   1.576   4.329  13.437 -0.7645 -0.1668  0.3770
17315TIP3    H173360   1.544   4.360  13.522 -0.3258 -0.5206  0.6828
17315TIP3    H273361   1.568   4.404  13.379  1.4471  0.9699  1.4125
17316TIP3   OH273362   6.734   5.568   5.232  0.2797  0.9942 -0.5504
17316TIP3    H173363   6.824   5.551   5.204  0.5082  0.0239  0.7058
17316TIP3    H273364   6.693   5.607   5.155  0.8099 -1.7559 -2.3488
17317TIP3   OH273365   0.132   0.714   1.647  0.4645  0.0367  0.5488
17317TIP3    H173366   0.042   0.731   1.619  1.1773  0.4739 -1.6811
17317TIP3    H273367   0.167   0.654   1.581  2.0762  0.5991  0.8461
17318TIP3   OH273368   3.144   2.811  13.523  0.0057  0.2946 -0.1570
17318TIP3    H173369   3.103   2.846  13.602  1.5033 -0.9923  1.2838
17318TIP3    H273370   3.237   2.832  13.534  0.6811 -2.3785 -0.1176
17319TIP3   OH273371   5.837   5.097   5.751  0.5137  0.5639 -0.5255
17319TIP3    H173372   5.843   5.073   5.658 -1.7561  1.4825 -0.9619
17319TIP3    H273373   5.748   5.128   5.762  0.4303 -0.3985  2.2128
17320TIP3   OH273374   2.332   6.310   2.591 -0.9771 -0.5035 -0.2081
17320TIP3    H173375   2.368   6.399   2.585  0.0278 -0.7318  1.5211
17320TIP3    H273376   2.340   6.275   2.503  0.5818  0.4205 -0.4785
17321TIP3   OH273377   2.572   5.926   3.430  0.3556  0.2052 -0.8372
17321TIP3    H173378   2.562   5.897   3.521 -2.1384  0.6535 -0.8944
17321TIP3    H273379   2.616   5.853   3.386  0.0982 -0.7252  0.3836
17322TIP3   OH273380   3.694   0.037   4.517  0.1943 -0.0288 -0.1626
17322TIP3    H173381   3.704   0.106   4.583  0.2371 -0.0557 -0.1408
17322TIP3    H273382   3.606   0.050   4.482 -0.1345 -0.4961  0.4527
17323TIP3   OH273383   2.714   4.626  15.334  0.5625  0.2874  0.5216
17323TIP3    H173384   2.745   4.713  15.309  0.1258  0.3716  0.2607
17323TIP3    H273385   2.712   4.577  15.252  1.6186 -0.2375  0.7851
17324TIP3   OH273386   4.476   2.493  11.841 -0.1266 -0.2505  0.1260
17324TIP3    H173387   4.532   2.431  11.794 -1.4840 -1.8329  0.4794
17324TIP3    H273388   4.486   2.576  11.794  0.2438 -1.2240 -1.6072
17325TIP3   OH273389   3.822   5.882   0.953  0.1413 -0.1740 -0.8616
17325TIP3    H173390   3.901   5.900   1.003 -0.9234 -0.4231  0.9723
17325TIP3    H273391   3.769   5.826   1.009 -1.8803  0.9848 -1.5044
17326TIP3   OH273392   2.259   2.154  11.862  0.5806  1.0455 -0.2374
17326TIP3    H173393   2.324   2.099  11.905 -0.0485  2.0590  2.1912
17326TIP3    H273394   2.301   2.239  11.852 -0.3593  1.7718  1.5494
17327TIP3   OH273395   4.416   2.571  16.872  0.4068  0.8265  0.1319
17327TIP3    H173396   4.445   2.654  16.909 -0.2937  1.7432 -1.2637
17327TIP3    H273397   4.323   2.565  16.893  0.6013  0.0288  0.8331
17328TIP3   OH273398   2.359   5.601  17.015  0.0157 -0.1587  0.4362
17328TIP3    H173399   2.425   5.539  16.984 -0.3602 -0.9931  1.2620
17328TIP3    H273400   2.406   5.685  17.021  0.2824 -0.0951 -1.6417
17329TIP3   OH273401   3.990   2.055  11.171 -0.3457  0.1649  0.4228
17329TIP3    H173402   3.965   1.970  11.134 -1.8641  0.5749  0.4375
17329TIP3    H273403   4.011   2.109  11.094 -2.1289  0.5934  0.1940
17330TIP3   OH273404   0.304   4.585   4.288 -0.4301  0.3972  0.0635
17330TIP3    H173405   0.240   4.655   4.303  1.0495  1.5310  1.3862
17330TIP3    H273406   0.334   4.600   4.198 -1.2537  0.4826 -0.2079
17331TIP3   OH273407   2.884   6.197  13.282 -0.3658  0.0460  0.6040
17331TIP3    H173408   2.853   6.287  13.291  0.9377  0.5917 -0.1419
17331TIP3    H273409   2.976   6.205  13.258 -0.2876 -1.4873  0.2776
17332TIP3   OH273410   4.743   3.301  15.588 -0.0460  0.1684 -0.5843
17332TIP3    H173411   4.705   3.215  15.607  0.1276  0.3703  0.7246
17332TIP3    H273412   4.815   3.282  15.528  0.0074 -0.6008 -0.2938
17333TIP3   OH273413   5.585   4.109  14.599 -0.2222 -0.3898  0.4108
17333TIP3    H173414   5.651   4.123  14.667  0.1661 -1.5345  0.2954
17333TIP3    H273415   5.622   4.151  14.521 -0.3511  0.3172  0.7233
17334TIP3   OH273416   2.169   5.976  15.062  0.2221 -0.0258 -0.4755
17334TIP3    H173417   2.081   5.976  15.101  0.7774 -2.4285  0.9654
17334TIP3    H273418   2.153   5.964  14.968 -1.0570  3.5723 -0.8921
17335TIP3   OH273419   1.623   4.796  12.526  0.1144 -0.8780  0.7572
17335TIP3    H173420   1.573   4.717  12.547 -0.6278 -0.2647  1.3794
17335TIP3    H273421   1.627   4.845  12.608  1.2670 -0.6386  0.5732
17336TIP3   OH273422   6.401   6.181   6.179  0.8030 -0.3074 -0.1116
17336TIP3    H173423   6.474   6.237   6.205  0.0476  0.3523  0.6341
17336TIP3    H273424   6.364   6.150   6.262  1.4046 -2.2216 -0.4905
17337TIP3   OH273425   1.334   6.587  15.097  0.5090 -0.0750 -0.2888
17337TIP3    H173426   1.385   6.514  15.062  0.3509 -1.0214  1.3615
17337TIP3    H273427   1.397   6.640  15.144  0.3984  0.1563 -0.3992
17338TIP3   OH273428   6.467   6.234  10.659  0.7321 -0.1136 -0.1773
17338TIP3    H173429   6.439   6.213  10.748  0.0607 -1.4444 -0.6695
17338TIP3    H273430   6.551   6.279  10.670  0.6836 -0.3112  1.1218
17339TIP3   OH273431   2.474   4.176   4.770  0.2758 -0.0210  0.0759
17339TIP3    H173432   2.449   4.233   4.842  0.6642  0.1245  0.0975
17339TIP3    H273433   2.466   4.087   4.805 -1.6339 -0.0609 -0.3575
17340TIP3   OH273434   0.395   2.392   5.475  0.5150 -0.1183  0.5532
17340TIP3    H173435   0.368   2.380   5.566  0.5244  1.5917  0.8143
17340TIP3    H273436   0.372   2.309   5.432  2.7222 -1.9392  2.5749
17341TIP3   OH273437   1.964   1.487  13.124  0.1435  0.7609  0.1035
17341TIP3    H173438   1.973   1.536  13.042 -0.3290 -0.6148 -0.8018
17341TIP3    H273439   1.929   1.402  13.098  0.3661  0.1410  1.7000
17342TIP3   OH273440   4.884   4.612   1.074  0.5670 -0.0583 -0.0622
17342TIP3    H173441   4.973   4.584   1.093 -0.3435 -1.3478  2.8927
17342TIP3    H273442   4.866   4.682   1.137 -0.3640  0.5351 -0.9504
17343TIP3   OH273443   0.093   2.289  14.124 -0.5273  0.7798  0.2732
17343TIP3    H173444   0.055   2.271  14.038  0.9567 -0.0210 -0.2652
17343TIP3    H273445   0.091   2.384  14.133 -0.6095  0.8753 -0.7063
17344TIP3   OH273446   6.650   3.697  16.175 -0.5786 -0.5319 -0.0088
17344TIP3    H173447   6.554   3.699  16.178 -0.5534  1.2581  0.3729
17344TIP3    H273448   6.673   3.757  16.104  0.2988  1.3470  1.7877
17345TIP3   OH273449   2.070   3.587   2.821 -0.7031 -0.0443  0.0531
17345TIP3    H173450   2.087   3.501   2.860 -0.9590 -0.0347  0.1896
17345TIP3    H273451   2.156   3.627   2.813 -0.2770 -1.2008 -2.1175
17346TIP3   OH273452   6.301   2.361   6.051 -0.2092 -0.0885 -0.3870
17346TIP3    H173453   6.278   2.299   5.982 -1.7635  1.2368 -1.1599
17346TIP3    H273454   6.382   2.402   6.020 -0.8830  0.4837 -1.4682
17347TIP3   OH273455   5.530   2.640  13.027  0.6451  0.1908 -0.5641
17347TIP3    H173456   5.478   2.715  13.053  0.4278  0.6828 -2.2988
17347TIP3    H273457   5.490   2.610  12.945  1.7907 -0.7299 -0.8132
17348TIP3   OH273458   1.990   0.248   1.180  0.8796 -0.3916  0.5292
17348TIP3    H173459   1.972   0.166   1.133  1.1093  0.5254 -1.2371
17348TIP3    H273460   2.072   0.231   1.226 -0.5080 -2.0941  2.5838
17349TIP3   OH273461   2.890   1.997  11.976 -0.1983 -0.6150  0.0792
17349TIP3    H173462   2.815   2.056  11.978 -0.3708 -0.8060 -0.4824
17349TIP3    H273463   2.966   2.054  11.979 -0.3676 -0.4360  1.0166
17350TIP3   OH273464   1.531   1.834   4.950  0.2386  0.5839  0.3462
17350TIP3    H173465   1.475   1.864   5.021 -0.3939  1.7589 -0.6038
17350TIP3    H273466   1.551   1.743   4.972 -1.3717  0.3878  1.1427
17351TIP3   OH273467   0.182   6.545  16.671  0.1631 -0.2426 -0.1523
17351TIP3    H173468   0.198   6.607  16.742 -1.1180  0.3871 -0.3763
17351TIP3    H273469   0.192   6.596  16.591 -2.9831  0.3477 -0.3249
17352TIP3   OH273470   6.399   4.390  13.771  0.3486  0.3924 -0.2548
17352TIP3    H173471   6.314   4.348  13.782 -0.4690  2.0242  0.0351
17352TIP3    H273472   6.444   4.375  13.854 -0.6067  1.4869  0.4937
17353TIP3   OH273473   4.107   2.800   3.548  0.2067  0.6146  0.5055
17353TIP3    H173474   4.084   2.767   3.461 -1.0826 -0.1841  1.1071
17353TIP3    H273475   4.051   2.877   3.561  1.0672  1.2943  0.2776
17354TIP3   OH273476   1.357   5.235  13.415 -0.5584  0.6631 -0.0033
17354TIP3    H173477   1.434   5.178  13.416 -0.0119  1.3394 -1.3159
17354TIP3    H273478   1.301   5.201  13.485 -0.2160 -1.4109 -0.6732
17355TIP3   OH273479   0.146   2.684   1.868 -0.7435 -0.5325  0.0957
17355TIP3    H173480   0.222   2.705   1.814 -0.7629 -0.2075  0.1898
17355TIP3    H273481   0.093   2.764   1.866 -0.0220  0.0190  1.8188
17356TIP3   OH273482   6.529   1.963   1.461  0.0736  0.1359  0.1944
17356TIP3    H173483   6.614   2.006   1.464 -0.1187  0.6491 -1.0348
17356TIP3    H273484   6.490   1.981   1.546  0.2626  1.8728 -0.0575
17357TIP3   OH273485   4.003   5.971  12.228 -0.4404 -0.1187  0.1544
17357TIP3    H173486   3.936   6.040  12.234  1.2834  1.6823 -0.1723
17357TIP3    H273487   4.056   5.983  12.307 -1.5142 -2.7873  1.4397
17358TIP3   OH273488   0.794   0.730  12.317  0.4178  0.2754 -0.3308
17358TIP3    H173489   0.724   0.782  12.357  0.4078 -0.1573  0.2248
17358TIP3    H273490   0.787   0.644  12.359 -0.1351 -0.4633 -1.8419
17359TIP3   OH273491   3.207   4.116   0.734 -0.0872  0.2079  0.0946
17359TIP3    H173492   3.136   4.137   0.794  0.0142  0.6726  0.0515
17359TIP3    H273493   3.224   4.023   0.748 -0.8435  0.0442 -0.0377
17360TIP3   OH273494   4.335   3.456   1.750 -0.1175 -0.0003  0.4917
17360TIP3    H173495   4.278   3.379   1.738  0.3549 -0.1532 -1.0389
17360TIP3    H273496   4.385   3.437   1.829 -1.1843 -0.4992  1.0800
17361TIP3   OH273497   6.543   5.457   0.405  0.2340  0.0687  0.0455
17361TIP3    H173498   6.474   5.495   0.351  0.7057  0.8539 -0.0122
17361TIP3    H273499   6.613   5.435   0.344  0.0106 -0.8039  0.0925
17362TIP3   OH273500   3.648   1.829  11.854  0.1237 -0.5038  0.1664
17362TIP3    H173501   3.660   1.734  11.857 -1.3162 -0.8891 -3.0007
17362TIP3    H273502   3.565   1.842  11.809 -1.2572  2.2990  3.0826
17363TIP3   OH273503   1.874   5.995  16.083 -0.5438 -0.4278  0.6559
17363TIP3    H173504   1.969   6.002  16.093 -0.5302  1.3161 -0.3198
17363TIP3    H273505   1.851   5.914  16.129  1.5588 -1.5399 -0.1000
17364TIP3   OH273506   5.901   1.792   0.230 -0.3311  0.3253 -0.5499
17364TIP3    H173507   5.828   1.853   0.245 -0.5842  0.3232 -1.6702
17364TIP3    H273508   5.915   1.750   0.315 -2.8099 -0.9740 -0.7000
17365TIP3   OH273509   1.909   3.763   0.086 -0.2444  0.1446  0.2695
17365TIP3    H173510   1.991   3.738   0.130 -0.8938 -0.2057  1.3159
17365TIP3    H273511   1.914   3.719   0.001  1.0441  0.8527 -0.0572
17366TIP3   OH273512   4.957   2.197  14.253  0.8675  0.2903  0.2702
17366TIP3    H173513   4.916   2.282  14.240 -1.6495 -0.8488  0.3466
17366TIP3    H273514   4.953   2.182  14.347  0.6689 -0.2191  0.1832
17367TIP3   OH273515   5.707   2.232   0.019  0.4552  0.1279 -0.5751
17367TIP3    H173516   5.721   2.157  -0.040  2.4058  0.2941 -0.4116
17367TIP3    H273517   5.617   2.223   0.050  0.7090 -2.2909 -0.3711
17368TIP3   OH273518   5.375   3.978  13.636 -0.4591 -0.4113  0.0139
17368TIP3    H173519   5.401   4.036  13.564  2.1622 -2.0685 -0.5067
17368TIP3    H273520   5.388   4.031  13.715  0.6769  0.1530 -0.5241
17369TIP3   OH273521   6.151   0.010  16.814  0.3022  0.2977  0.2816
17369TIP3    H173522   6.074  -0.013  16.762 -0.9978  1.7292  1.4874
17369TIP3    H273523   6.221   0.021  16.749 -0.4273 -1.2133 -0.8271
17370TIP3   OH273524   4.935   4.590   3.755  0.1180  0.3674 -0.5805
17370TIP3    H173525   4.991   4.666   3.768  1.2207 -0.7721  2.3477
17370TIP3    H273526   4.972   4.545   3.679  1.5739  1.0376 -0.3047
17371TIP3   OH273527   5.913   0.640   5.144  0.3630  0.3461  0.5302
17371TIP3    H173528   5.831   0.620   5.190 -0.9645  1.1967 -1.3471
17371TIP3    H273529   5.920   0.573   5.076  0.3904  1.1800 -0.3072
17372TIP3   OH273530   5.841   3.882   3.710 -0.3593  0.7124 -0.4143
17372TIP3    H173531   5.909   3.874   3.777 -0.8023 -0.7130 -0.1153
17372TIP3    H273532   5.889   3.887   3.628  0.1220 -0.1746 -0.1997
17373TIP3   OH273533   2.074   5.938  15.647  0.3964  0.0424  0.0685
17373TIP3    H173534   2.049   5.889  15.568 -0.6103  0.8017 -0.0986
17373TIP3    H273535   2.134   6.005  15.615 -1.2182  1.3463 -0.3334
17374TIP3   OH273536   0.177   2.595  12.305 -0.4317  0.1862  0.2147
17374TIP3    H173537   0.167   2.624  12.395 -1.3698  0.2848  0.0877
17374TIP3    H273538   0.267   2.617  12.282  0.3788 -1.3748  1.6628
17375TIP3   OH273539   2.021   0.798   0.118 -0.3880 -0.1620 -0.1748
17375TIP3    H173540   2.083   0.780   0.047 -1.0955 -1.0834 -0.5800
17375TIP3    H273541   1.944   0.836   0.075  0.0285  1.3918  0.3767
17376TIP3   OH273542   6.614   5.461   2.475 -0.1939 -0.3529 -0.5289
17376TIP3    H173543   6.661   5.382   2.500 -0.7584  0.1177  2.3511
17376TIP3    H273544   6.681   5.516   2.432  0.6563 -1.5997 -0.8586
17377TIP3   OH273545   3.036   6.314  11.585  0.2384 -0.4660 -0.5879
17377TIP3    H173546   3.092   6.309  11.663 -1.3061 -3.0381  0.5105
17377TIP3    H273547   3.091   6.282  11.514  0.8476 -0.8125  0.0241
17378TIP3   OH273548   3.118   4.117  11.665 -0.0586 -0.6851 -0.3784
17378TIP3    H173549   3.122   4.061  11.742  0.6323 -0.6478 -0.3856
17378TIP3    H273550   3.114   4.206  11.699  1.8362 -0.5685 -0.3790
17379TIP3   OH273551   2.657   6.332  15.720 -0.3129  0.8471 -0.0552
17379TIP3    H173552   2.704   6.415  15.721  0.3750  0.4630  0.1167
17379TIP3    H273553   2.608   6.331  15.802  0.9254  0.4053  0.7216
17380TIP3   OH273554   4.775   0.168  13.671  0.4782 -0.2498 -0.6684
17380TIP3    H173555   4.739   0.145  13.585 -0.4470  0.5077 -0.5013
17380TIP3    H273556   4.796   0.261  13.663 -1.1551  0.2568  0.4136
17381TIP3   OH273557   5.793   2.792  16.940  0.4214 -0.3996  0.0901
17381TIP3    H173558   5.883   2.767  16.919  1.6259  3.4724 -0.1286
17381TIP3    H273559   5.759   2.829  16.858  0.5829  2.9591  1.3953
17382TIP3   OH273560   4.549   6.549   0.040  0.3196 -0.1657 -0.0678
17382TIP3    H173561   4.599   6.615   0.088 -0.0750  0.0609  0.0302
17382TIP3    H273562   4.536   6.587  -0.047  0.6089 -0.3680 -0.1996
17383TIP3   OH273563   0.748   0.142   3.570  0.1497  0.3906 -0.2469
17383TIP3    H173564   0.822   0.091   3.537  0.2924  0.9023 -0.7362
17383TIP3    H273565   0.735   0.211   3.505 -2.4967 -1.2429 -1.6723
17384TIP3   OH273566   6.163   6.533   4.833 -0.1936 -0.5908  0.0747
17384TIP3    H173567   6.232   6.539   4.898 -0.4400 -3.6981  0.7524
17384TIP3    H273568   6.204   6.564   4.752  1.5823 -1.1230  0.7255
17385TIP3   OH273569   5.367   3.098  14.488  0.0908  0.2155 -0.3551
17385TIP3    H173570   5.359   3.190  14.512 -2.4785  0.8445 -2.9841
17385TIP3    H273571   5.326   3.051  14.560 -1.0513  1.3919 -0.2000
17386TIP3   OH273572   6.378   0.824  15.555  0.0577 -0.0902  0.3448
17386TIP3    H173573   6.451   0.806  15.615  0.5388  0.1586 -0.1528
17386TIP3    H273574   6.315   0.873  15.608  0.6234  0.4134  0.5620
17387TIP3   OH273575   2.218   0.490   3.826 -0.1081  0.3434  0.0084
17387TIP3    H173576   2.129   0.489   3.791  0.3155  1.9643 -1.2527
17387TIP3    H273577   2.229   0.405   3.868 -2.6706  0.5542  1.2915
17388TIP3   OH273578   5.829   5.799  11.018 -0.0763 -0.1398 -0.0769
17388TIP3    H173579   5.764   5.794  10.948  1.1969 -0.6185 -1.2842
17388TIP3    H273580   5.901   5.744  10.987  1.3136  1.1419  0.7621
17389TIP3   OH273581   2.389   0.397  13.656  0.4359  0.5635  0.0529
17389TIP3    H173582   2.333   0.466  13.621 -1.5642 -1.5170 -1.0808
17389TIP3    H273583   2.465   0.444  13.691 -0.5831  3.2767 -1.0809
17390TIP3   OH273584   2.413   4.530   5.420  0.3467 -0.3930  0.1139
17390TIP3    H173585   2.382   4.447   5.385 -3.3918  1.0760 -0.4714
17390TIP3    H273586   2.464   4.569   5.348 -0.1705 -0.9976 -0.5884
17391TIP3   OH273587   1.484   5.762  16.208  0.5424 -0.1788 -0.9812
17391TIP3    H173588   1.442   5.682  16.178 -0.8284  0.4472 -0.7910
17391TIP3    H273589   1.435   5.833  16.167  0.7706  0.6046  0.0484
17392TIP3   OH273590   4.143   3.425   0.378 -0.3197  0.4509 -0.2098
17392TIP3    H173591   4.110   3.348   0.331 -0.4020  1.5506 -2.0555
17392TIP3    H273592   4.236   3.427   0.356  0.1095 -0.1764  1.4223
17393TIP3   OH273593   0.182   5.966  12.693  0.1370 -0.7683  0.0361
17393TIP3    H173594   0.114   5.981  12.759  0.9122 -3.1785  1.5064
17393TIP3    H273595   0.148   5.895  12.639  0.3720 -0.1409 -0.9673
17394TIP3   OH273596   5.921   5.489   5.060 -0.2266 -0.3662  0.2686
17394TIP3    H173597   5.953   5.403   5.086 -0.8497 -0.8614 -0.5318
17394TIP3    H273598   5.851   5.470   4.997  1.6337  0.7181 -2.3298
17395TIP3   OH273599   1.078   5.064  15.540 -0.7180 -0.2980 -0.1286
17395TIP3    H173600   1.020   4.988  15.541 -2.9367  1.2951  1.0010
17395TIP3    H273601   1.099   5.079  15.633  0.7449 -0.2437 -0.4349
17396TIP3   OH273602   2.322   6.125   5.839 -0.1245  0.4240 -0.0540
17396TIP3    H173603   2.302   6.175   5.918 -0.2351  0.8584 -0.3521
17396TIP3    H273604   2.378   6.053   5.869 -0.5341  0.3286  0.4845
17397TIP3   OH273605   3.823   0.853  16.788 -0.2402  0.1850 -0.4289
17397TIP3    H173606   3.878   0.931  16.799 -0.5396  0.5428 -1.3679
17397TIP3    H273607   3.768   0.851  16.867 -1.7013  2.1362 -1.3221
17398TIP3   OH273608   0.942   6.311   4.431 -0.5880 -0.5366  0.2869
17398TIP3    H173609   1.026   6.355   4.441 -2.0323  2.6464 -0.0760
17398TIP3    H273610   0.913   6.292   4.520 -0.8295  1.3067  0.6404
17399TIP3   OH273611   0.724   5.669   5.846 -0.9414 -0.1874  0.4202
17399TIP3    H173612   0.728   5.574   5.855  1.1267 -0.5202 -2.5190
17399TIP3    H273613   0.638   5.686   5.808 -0.6218 -1.1665 -0.8241
17400TIP3   OH273614   1.111   0.180  17.182 -0.3044 -0.2403  0.5982
17400TIP3    H173615   1.067   0.209  17.262  1.7516 -0.8357  2.0324
17400TIP3    H273616   1.126   0.260  17.132 -1.5489  0.1503  0.8068
17401TIP3   OH273617   1.990   1.468   3.545 -0.3472 -0.7046 -0.3102
17401TIP3    H173618   1.970   1.434   3.458  1.2042  0.5733 -1.2257
17401TIP3    H273619   1.934   1.545   3.554 -0.3440 -0.7078 -0.2634
17402TIP3   OH273620   1.260   4.978  17.436  0.0884  0.0371  0.3728
17402TIP3    H173621   1.267   4.987  17.531 -1.4566  1.6237  0.3888
17402TIP3    H273622   1.350   4.964  17.407  0.6065 -0.3227  2.0428
17403TIP3   OH273623   4.952   4.126   2.729 -0.0729  0.1094 -0.2270
17403TIP3    H173624   4.960   4.221   2.718  0.5727  0.3736  2.1138
17403TIP3    H273625   4.860   4.107   2.710 -0.1396  1.1387 -1.0257
17404TIP3   OH273626   2.799   4.310  11.700  0.5087  0.1813  0.1216
17404TIP3    H173627   2.843   4.392  11.680 -0.0634  0.6550  0.7637
17404TIP3    H273628   2.745   4.330  11.776  0.1981 -0.7352  0.1510
17405TIP3   OH273629   1.330   1.295   3.181 -0.1045 -0.6718 -0.8358
17405TIP3    H173630   1.413   1.314   3.224 -0.4448 -0.6271 -0.1847
17405TIP3    H273631   1.313   1.203   3.200 -0.2795 -0.6407 -0.8385
17406TIP3   OH273632   2.185   3.193   3.599  0.1150 -0.5841 -0.6120
17406TIP3    H173633   2.237   3.273   3.598  0.5375 -0.8456 -0.0675
17406TIP3    H273634   2.182   3.164   3.508 -2.4666  1.5872 -1.3489
17407TIP3   OH273635   6.120   6.288  10.690 -0.4992 -0.5188 -0.1682
17407TIP3    H173636   6.188   6.257  10.750 -1.3706 -0.7429  0.7250
17407TIP3    H273637   6.169   6.330  10.619  0.5611 -0.1770  0.7275
17408TIP3   OH273638   3.650   6.130  16.743  0.2476 -0.0814  0.1531
17408TIP3    H173639   3.634   6.071  16.817  0.2675  1.4234  1.4043
17408TIP3    H273640   3.744   6.143  16.741  0.1529  0.8051  0.6451
17409TIP3   OH273641   4.292   0.997   2.107  0.0535  0.8143 -0.0881
17409TIP3    H173642   4.349   0.942   2.160 -1.2258  0.2353  0.7443
17409TIP3    H273643   4.311   1.087   2.136  0.4140  0.6142  0.3024
17410TIP3   OH273644   0.687   1.424  15.847 -0.4263 -0.2166  0.6951
17410TIP3    H173645   0.677   1.464  15.934 -1.0179  1.4670 -0.0992
17410TIP3    H273646   0.774   1.452  15.818 -1.0045  0.8821 -0.0332
17411TIP3   OH273647   1.212   2.699  10.822 -0.2446  0.8842 -0.2208
17411TIP3    H173648   1.148   2.754  10.868 -1.9714  0.2803 -1.7511
17411TIP3    H273649   1.200   2.722  10.730 -0.1293 -1.1296 -0.7862
17412TIP3   OH273650   3.555   3.978  10.754  0.1539  0.0197 -0.0847
17412TIP3    H173651   3.626   4.001  10.693  1.1188  0.2952  1.1154
17412TIP3    H273652   3.480   4.030  10.724  0.4308 -0.3004 -1.3923
17413TIP3   OH273653   5.953   4.781   2.295 -0.4894  0.2144 -0.1714
17413TIP3    H173654   5.919   4.865   2.325 -0.8717 -0.5528  1.6925
17413TIP3    H273655   6.025   4.804   2.236 -1.8811  1.8317 -1.3467
17414TIP3   OH273656   2.955   3.465   3.705  0.4424 -0.1531 -0.4407
17414TIP3    H173657   2.905   3.536   3.663 -0.6438 -2.1708 -2.8451
17414TIP3    H273658   2.925   3.465   3.796 -3.1338 -0.3935 -1.4467
17415TIP3   OH273659   3.976   3.032   3.537  0.1709  0.3713 -0.8244
17415TIP3    H173660   3.972   3.042   3.442 -0.5653 -1.1068 -0.9651
17415TIP3    H273661   3.967   3.121   3.571  1.9728  1.1240 -2.1553
17416TIP3   OH273662   0.303   0.272  16.467  0.2541 -0.0822  0.0516
17416TIP3    H173663   0.266   0.297  16.383  0.2306  1.2779  0.4444
17416TIP3    H273664   0.229   0.274  16.528  0.7525  1.8705  0.6760
17417TIP3   OH273665   2.293   4.595   5.667 -0.3825 -0.0851 -0.0734
17417TIP3    H173666   2.359   4.576   5.734 -0.7674  0.8445  0.5944
17417TIP3    H273667   2.343   4.603   5.586  0.2159 -0.3073  0.2655
17418TIP3   OH273668   5.139   6.667   3.926  0.2016  0.4133  0.2632
17418TIP3    H173669   5.194   6.661   4.003  1.7035 -0.7520 -0.8578
17418TIP3    H273670   5.200   6.678   3.853 -0.9740 -1.5152 -1.0901
17419TIP3   OH273671   1.074   3.138   2.906 -0.6426  0.5212  0.9752
17419TIP3    H173672   1.033   3.162   2.823 -2.0540  1.4162  1.8883
17419TIP3    H273673   1.112   3.052   2.890 -0.3780  0.9148 -0.7544
17420TIP3   OH273674   0.898   5.796   3.207  0.4441 -0.0858  0.3414
17420TIP3    H173675   0.844   5.789   3.128  0.6854  4.0530 -0.3883
17420TIP3    H273676   0.966   5.859   3.185  1.5590 -0.0652  3.3563
17421TIP3   OH273677   0.834   1.127  15.068 -0.3954  0.1907  0.3339
17421TIP3    H173678   0.827   1.123  14.973  0.3273  0.3458  0.2673
17421TIP3    H273679   0.789   1.208  15.092  2.5226  2.1149 -0.2349
17422TIP3   OH273680   4.804   0.975   2.670  0.3334  0.3703  0.5211
17422TIP3    H173681   4.790   1.056   2.719  1.2035  1.4871 -0.9903
17422TIP3    H273682   4.890   0.986   2.629 -0.4217 -0.4089 -1.4130
17423TIP3   OH273683   6.116   1.518   0.116 -0.6470 -0.2832  0.0580
17423TIP3    H173684   6.034   1.518   0.067 -1.3937  1.5758  1.1891
17423TIP3    H273685   6.090   1.532   0.207  0.8565 -0.9652  0.6267
17424TIP3   OH273686   2.987   2.947  14.523 -0.0566  0.1991 -0.3307
17424TIP3    H173687   2.935   2.960  14.443  0.3408 -1.4035 -0.8794
17424TIP3    H273688   3.066   2.902  14.494  1.3399  1.8907  0.6113
17425TIP3   OH273689   2.530   6.268  14.202  0.3020  0.4686 -0.8718
17425TIP3    H173690   2.454   6.322  14.222  1.1166  1.0520  0.9328
17425TIP3    H273691   2.603   6.314  14.243  1.2550 -1.2607 -0.5022
17426TIP3   OH273692   3.919   0.939   3.996  0.2471 -0.4342  0.4145
17426TIP3    H173693   3.929   0.918   4.088  1.8982 -0.6117  0.2324
17426TIP3    H273694   3.826   0.924   3.977 -0.1089 -0.3919  2.0250
17427TIP3   OH273695   2.931   1.502  16.880 -0.2545  0.5019  0.6235
17427TIP3    H173696   2.889   1.585  16.854 -1.0659 -0.1411 -0.1852
17427TIP3    H273697   2.993   1.484  16.810 -2.9854 -1.6277 -1.4912
17428TIP3   OH273698   5.799   5.298   2.439 -0.2363  0.1579  0.0436
17428TIP3    H173699   5.894   5.289   2.444 -0.2405  0.8678  1.9267
17428TIP3    H273700   5.780   5.289   2.345  1.3738 -2.7302 -0.1366
17429TIP3   OH273701   1.013   3.860   2.642 -0.2067  0.5686 -0.0126
17429TIP3    H173702   0.980   3.839   2.730  0.6359 -0.7351  0.0063
17429TIP3    H273703   1.108   3.857   2.651 -0.1195  0.0256 -1.0680
17430TIP3   OH273704   1.083   4.027  15.999  0.3448  0.2666  0.1156
17430TIP3    H173705   1.122   4.089  15.936 -0.0962  0.8539  0.4129
17430TIP3    H273706   1.049   4.083  16.069  0.7999 -0.3808  0.8696
17431TIP3   OH273707   1.495   5.936  13.278 -0.2314  0.3051  0.5873
17431TIP3    H173708   1.424   5.986  13.317 -0.4065 -0.4900  1.3313
17431TIP3    H273709   1.575   5.981  13.306 -0.4026  0.5195  0.7289
17432TIP3   OH273710   3.874   3.173   5.124  0.3379 -0.3429 -1.1570
17432TIP3    H173711   3.938   3.157   5.193 -1.4896 -0.3616  0.6379
17432TIP3    H273712   3.864   3.268   5.121 -0.0862 -0.3731 -0.8756
17433TIP3   OH273713   0.761   2.505   0.915 -0.0612 -0.0311  0.7044
17433TIP3    H173714   0.741   2.538   1.003 -1.1657  1.0741  0.0757
17433TIP3    H273715   0.798   2.418   0.930 -0.3491  0.0821  2.2591
17434TIP3   OH273716   3.499   5.405  15.916  0.1996  0.7894 -0.5681
17434TIP3    H173717   3.511   5.324  15.867  1.3399  0.5473  0.0677
17434TIP3    H273718   3.490   5.377  16.007 -0.5415  1.3066 -0.4775
17435TIP3   OH273719   2.095   2.194  16.801 -0.2239 -0.1953  0.5107
17435TIP3    H173720   2.033   2.251  16.756 -0.7760 -1.0972  0.0979
17435TIP3    H273721   2.136   2.143  16.732 -0.6439 -1.1674  0.9531
17436TIP3   OH273722   6.114   6.704  11.928 -0.9170  0.2350 -0.0774
17436TIP3    H173723   6.112   6.727  11.835  0.3004 -1.9906 -0.7207
17436TIP3    H273724   6.028   6.730  11.961 -1.2268  1.4519 -1.7115
17437TIP3   OH273725   3.770   5.084   3.494 -0.4334  0.4183  0.0041
17437TIP3    H173726   3.714   5.019   3.536  1.6841 -0.3336  1.8545
17437TIP3    H273727   3.788   5.047   3.407  0.5681 -1.4874  0.9427
17438TIP3   OH273728   5.157   6.603   0.064 -0.3700 -0.1367 -0.5330
17438TIP3    H173729   5.175   6.661  -0.010  1.9201 -2.1462 -1.6823
17438TIP3    H273730   5.063   6.585   0.057 -0.6452  1.4664 -1.5790
17439TIP3   OH273731   5.434   3.464  13.858  0.0645  0.1215  0.5357
17439TIP3    H173732   5.435   3.539  13.917 -1.6201  0.3094  0.3723
17439TIP3    H273733   5.341   3.446  13.843  0.4406 -1.4797 -0.0933
17440TIP3   OH273734   3.631   2.460   6.901 -0.0731 -0.2751  0.1249
17440TIP3    H173735   3.719   2.441   6.935  0.1668  1.6836  0.7547
17440TIP3    H273736   3.579   2.383   6.923  1.4397 -1.4050 -0.1050
17441TIP3   OH273737   6.665   2.634   5.412 -0.6031  0.1592 -0.3551
17441TIP3    H173738   6.691   2.723   5.436 -0.9570  0.1396  0.1156
17441TIP3    H273739   6.650   2.590   5.495 -0.2779 -0.3949 -0.5807
17442TIP3   OH273740   4.462   4.754  11.662  0.4821 -0.2569 -0.0870
17442TIP3    H173741   4.431   4.841  11.687  1.1601  0.2779 -1.0221
17442TIP3    H273742   4.522   4.770  11.589  0.5928 -1.5176 -0.3010
17443TIP3   OH273743   4.313   0.155  12.835 -0.0708  0.0198  0.6084
17443TIP3    H173744   4.269   0.215  12.896 -2.8946 -1.1316 -0.1317
17443TIP3    H273745   4.246   0.091  12.812  0.8845  0.2916 -3.5890
17444TIP3   OH273746   4.241   0.372  16.463  0.1698  0.3398 -0.3187
17444TIP3    H173747   4.307   0.361  16.531 -0.8220  0.5085  0.6902
17444TIP3    H273748   4.237   0.467  16.449 -0.8662  0.4629  0.6679
17445TIP3   OH273749   3.563   6.176  17.372 -0.7467 -0.5073  0.4092
17445TIP3    H173750   3.641   6.188  17.318 -0.2704  1.4756  1.4500
17445TIP3    H273751   3.494   6.153  17.310  0.0611  0.4376 -0.8816
17446TIP3   OH273752   0.743   0.905   0.385 -0.2080  0.6537 -0.2044
17446TIP3    H173753   0.697   0.821   0.391 -0.3134  0.7813  0.9481
17446TIP3    H273754   0.792   0.899   0.303 -0.8433 -0.2131 -0.5384
17447TIP3   OH273755   3.558   3.194   0.516 -0.2912  0.3076 -0.5453
17447TIP3    H173756   3.481   3.142   0.541  0.0538 -0.3541 -0.8183
17447TIP3    H273757   3.630   3.154   0.566 -0.1329  0.9671 -0.2366
17448TIP3   OH273758   1.461   0.897  11.980  0.2813  0.2898  0.2690
17448TIP3    H173759   1.393   0.834  11.958  2.4442 -1.2301 -3.0392
17448TIP3    H273760   1.527   0.845  12.027 -0.2823  1.4745  2.4674
17449TIP3   OH273761   6.440   1.597   1.101  0.1852 -0.2827 -0.0218
17449TIP3    H173762   6.464   1.675   1.050  0.4074 -0.0148  0.4897
17449TIP3    H273763   6.344   1.594   1.096  0.2000 -0.1892 -0.3571
17450TIP3   OH273764   6.380   1.273   2.806 -0.5535 -0.4003  0.3663
17450TIP3    H173765   6.322   1.348   2.794 -0.4451 -0.3412  0.2153
17450TIP3    H273766   6.450   1.286   2.742 -0.0781 -0.1788  0.9213
17451TIP3   OH273767   4.549   0.764  12.954  0.0963 -0.4163  0.6807
17451TIP3    H173768   4.595   0.700  13.008 -1.5726 -2.8124 -0.5577
17451TIP3    H273769   4.503   0.711  12.889  1.1693  2.2437 -2.5023
17452TIP3   OH273770   4.159   1.501   4.698 -0.6629  0.2345 -0.1837
17452TIP3    H173771   4.212   1.433   4.740  0.3071 -0.4388 -2.3771
17452TIP3    H273772   4.222   1.563   4.661 -1.2770 -0.6078 -2.9012
17453TIP3   OH273773   4.183   5.842   5.380 -0.7505 -1.2687  0.0241
17453TIP3    H173774   4.257   5.868   5.435 -2.1970  1.7162  0.7589
17453TIP3    H273775   4.117   5.811   5.442 -1.0868 -1.3986 -0.3948
17454TIP3   OH273776   1.704   1.831   3.916 -0.1713 -0.1292 -0.5045
17454TIP3    H173777   1.682   1.804   3.827  2.5884  0.7208 -1.5788
17454TIP3    H273778   1.735   1.922   3.906  1.6661 -0.5190  1.0061
17455TIP3   OH273779   0.514   5.388  13.451  0.3613  0.1393 -0.3661
17455TIP3    H173780   0.608   5.401  13.442  0.4195 -0.0806 -0.0537
17455TIP3    H273781   0.491   5.428  13.535  0.3656 -0.8087  0.1013
17456TIP3   OH273782   2.320   5.636  16.649 -0.6531  0.4896 -0.4316
17456TIP3    H173783   2.393   5.662  16.704 -0.0609 -0.8398 -0.5534
17456TIP3    H273784   2.251   5.700  16.668 -0.3736  0.2265  1.6496
17457TIP3   OH273785   2.759   4.546   4.694 -0.3401 -0.5644 -0.3589
17457TIP3    H173786   2.699   4.484   4.652 -1.7028  2.0349 -2.5479
17457TIP3    H273787   2.828   4.491   4.732 -2.4235 -3.4978 -0.4522
17458TIP3   OH273788   2.075   5.731  12.504 -0.3490  0.2008  0.3361
17458TIP3    H173789   2.073   5.635  12.500 -0.2254  0.2179 -0.1669
17458TIP3    H273790   2.010   5.759  12.440 -1.5855  0.4495  1.6412
17459TIP3   OH273791   5.965   0.747  12.745  0.2369  0.3193  0.2421
17459TIP3    H173792   5.931   0.659  12.728 -1.1935  0.8250  0.3832
17459TIP3    H273793   6.054   0.732  12.778 -0.3656 -1.1415  1.3056
17460TIP3   OH273794   4.750   6.066   6.311 -0.2899 -0.6159  0.5061
17460TIP3    H173795   4.721   6.157   6.307 -0.9062 -0.8487 -0.6900
17460TIP3    H273796   4.784   6.056   6.400 -0.0982  0.8094  0.6151
17461TIP3   OH273797   4.860   0.668  13.108 -0.2138  0.4497  0.1008
17461TIP3    H173798   4.920   0.645  13.037 -0.7659 -1.1558  0.0966
17461TIP3    H273799   4.861   0.591  13.166 -0.9412  1.1012  1.0143
17462TIP3   OH273800   6.516   4.642  16.853  0.0025 -0.4853 -0.2882
17462TIP3    H173801   6.593   4.609  16.806  0.9420  0.0373  0.8233
17462TIP3    H273802   6.544   4.725  16.889 -1.7649  0.7410 -1.5644
17463TIP3   OH273803   1.252   0.851  16.805  0.4226  0.4122  0.0711
17463TIP3    H173804   1.279   0.886  16.721 -2.1475 -0.3424 -1.1949
17463TIP3    H273805   1.281   0.760  16.804  0.5020  0.4375  0.0664
17464TIP3   OH273806   3.965   4.657  17.270  0.2268 -0.1410 -0.7078
17464TIP3    H173807   3.940   4.630  17.182 -0.3169 -1.1255 -0.2678
17464TIP3    H273808   3.886   4.696  17.307  0.4022  0.1092 -0.5924
17465TIP3   OH273809   2.592   5.273   3.687 -0.1384 -0.0797 -0.4606
17465TIP3    H173810   2.498   5.257   3.693 -0.0293 -0.2100  1.0789
17465TIP3    H273811   2.629   5.231   3.764  0.9005  2.1180  0.3127
17466TIP3   OH273812   1.379   0.287   0.945 -0.2924 -0.3917  0.4309
17466TIP3    H173813   1.365   0.203   0.900  0.3729 -0.5611  0.5212
17466TIP3    H273814   1.303   0.296   1.002 -1.8158  0.4356 -1.5963
17467TIP3   OH273815   4.795   3.878   1.934  0.4074 -0.6100 -0.6316
17467TIP3    H173816   4.792   3.971   1.958 -0.3053 -0.6806 -0.4188
17467TIP3    H273817   4.836   3.835   2.009 -0.2801 -0.6064 -0.2418
17468TIP3   OH273818   5.487   3.036  15.447 -0.0794  0.5458  0.4849
17468TIP3    H173819   5.456   2.969  15.507 -1.0996  0.4465 -0.1306
17468TIP3    H273820   5.555   3.082  15.495  1.1769 -1.3894  0.6427
17469TIP3   OH273821   5.300   3.801  13.436  0.4322 -0.0154  0.1046
17469TIP3    H173822   5.310   3.881  13.488 -0.9712  0.1390  0.1741
17469TIP3    H273823   5.282   3.732  13.501 -1.2777  0.1685 -0.1315
17470TIP3   OH273824   1.025   0.343  15.783 -0.1532 -0.3468 -0.1146
17470TIP3    H173825   0.943   0.339  15.833 -0.3309  2.0731 -0.0840
17470TIP3    H273826   1.006   0.401  15.709  0.7752 -1.9942 -1.7242
17471TIP3   OH273827   4.688   2.761   1.932  0.4370  0.5081  0.0431
17471TIP3    H173828   4.640   2.793   1.856  0.7108  1.6806  0.3495
17471TIP3    H273829   4.658   2.671   1.943  0.0150  0.4886 -1.1390
17472TIP3   OH273830   0.838   2.073  10.657  0.4633  0.0813 -0.0043
17472TIP3    H173831   0.749   2.038  10.647 -0.0354  1.2863  0.0297
17472TIP3    H273832   0.872   2.028  10.734  0.7290 -2.0266 -1.2651
17473TIP3   OH273833   4.197   2.617   1.390 -0.2647  0.0396 -0.5478
17473TIP3    H173834   4.135   2.685   1.365 -0.5090 -0.0630 -0.2274
17473TIP3    H273835   4.142   2.545   1.420 -0.0223 -0.4371 -1.2123
17474TIP3   OH273836   6.305   5.156   2.541  0.3544  0.3883  0.2484
17474TIP3    H173837   6.284   5.076   2.494 -0.3949  0.6877  0.0716
17474TIP3    H273838   6.396   5.144   2.568 -0.5099 -1.6770  2.5575
17475TIP3   OH273839   1.401   1.002   6.576  0.5113 -0.3223 -0.2714
17475TIP3    H173840   1.463   0.940   6.538 -0.3518 -1.3611 -0.0233
17475TIP3    H273841   1.393   1.071   6.509 -0.9979 -2.1186 -2.1050
17476TIP3   OH273842   2.555   1.613  14.362 -0.2525  0.0143  0.1148
17476TIP3    H173843   2.463   1.594  14.382 -0.4214  0.6757 -0.0176
17476TIP3    H273844   2.556   1.634  14.269  0.2702 -1.3714 -0.2256
17477TIP3   OH273845   0.177   4.552  12.075  0.4826  0.0576 -0.2776
17477TIP3    H173846   0.091   4.511  12.063  0.5535  0.2246 -1.5733
17477TIP3    H273847   0.240   4.482  12.057  0.6384 -0.2301  1.3021
17478TIP3   OH273848   0.441   3.243  11.211 -0.6140  0.3422 -0.5602
17478TIP3    H173849   0.382   3.176  11.245 -1.0246  1.0043  0.0634
17478TIP3    H273850   0.459   3.215  11.121  2.8839 -3.1109  0.8992
17479TIP3   OH273851   4.697   1.709  17.161 -0.0668  0.6996 -0.2557
17479TIP3    H173852   4.665   1.657  17.087 -1.4088  1.3373 -0.1477
17479TIP3    H273853   4.662   1.665  17.238 -0.1280  1.0350 -0.0914
17480TIP3   OH273854   4.733   5.172  16.652 -0.3929  0.2234  0.2246
17480TIP3    H173855   4.813   5.196  16.698  0.5549 -1.6459 -0.3640
17480TIP3    H273856   4.722   5.238  16.584 -0.0992  1.2376  1.1530
17481TIP3   OH273857   1.936   5.769   3.482 -0.0700 -0.1390  0.4852
17481TIP3    H173858   1.910   5.684   3.445 -0.3159 -0.0738  0.5069
17481TIP3    H273859   1.888   5.774   3.565  0.1333 -0.0852  0.6012
17482TIP3   OH273860   0.466   1.389   4.877 -0.1801  0.4301 -0.4217
17482TIP3    H173861   0.553   1.355   4.855 -1.2512 -2.4177 -0.7077
17482TIP3    H273862   0.468   1.398   4.972  0.4671  0.5021 -0.4355
17483TIP3   OH273863   2.223   0.088  10.937  0.0100 -0.0854  0.2327
17483TIP3    H173864   2.264   0.173  10.928  1.4219 -0.6420  1.1329
17483TIP3    H273865   2.274   0.030  10.880 -0.7960 -0.3970 -0.1977
17484TIP3   OH273866   3.739   2.010   4.165 -0.0365  0.1840 -0.6825
17484TIP3    H173867   3.688   1.972   4.236 -1.1027  0.7828 -1.1117
17484TIP3    H273868   3.826   1.971   4.174  0.0302  0.7015  1.3206
17485TIP3   OH273869   4.794   1.520  14.502 -0.5223 -0.1616  0.3754
17485TIP3    H173870   4.879   1.563  14.513 -0.5283  0.0901 -0.5243
17485TIP3    H273871   4.784   1.467  14.582  1.0965 -1.2781 -0.1008
17486TIP3   OH273872   3.033   5.050  16.176 -0.1466 -0.1058  0.1627
17486TIP3    H173873   3.091   4.978  16.151  0.6655  0.2304  1.0030
17486TIP3    H273874   3.018   5.098  16.095  1.8197  0.5437  0.1290
17487TIP3   OH273875   3.722   5.584   0.132  0.0927  0.1480  0.1556
17487TIP3    H173876   3.749   5.536   0.054  0.6832 -0.1764  0.5524
17487TIP3    H273877   3.804   5.613   0.172 -0.1656 -0.3353  1.0594
17488TIP3   OH273878   4.875   1.587  15.708  0.6358  0.5225 -0.1828
17488TIP3    H173879   4.872   1.538  15.790  2.0400  1.0338  0.2008
17488TIP3    H273880   4.962   1.571  15.673  0.0051  0.1751 -1.6836
17489TIP3   OH273881   3.900   1.646   5.593 -0.0297 -0.1981  0.0496
17489TIP3    H173882   3.890   1.728   5.642 -1.4220 -0.3754  0.1090
17489TIP3    H273883   3.949   1.670   5.514 -1.7748  1.0310 -0.7096
17490TIP3   OH273884   3.127   6.399  14.241 -0.2912  0.1702 -0.1162
17490TIP3    H173885   3.088   6.363  14.161 -2.4899  1.0321  0.5048
17490TIP3    H273886   3.175   6.325  14.279 -2.1333 -1.2836 -0.4503
17491TIP3   OH273887   5.524   6.724   0.319 -0.3411 -0.4032 -0.2325
17491TIP3    H173888   5.591   6.755   0.380 -0.3527  0.5548 -0.6803
17491TIP3    H273889   5.542   6.772   0.238 -1.5558 -0.1385 -0.3663
17492TIP3   OH273890   2.946   0.949   4.572  0.1269 -0.3119  0.8602
17492TIP3    H173891   3.000   0.894   4.628  0.9046  0.1804  0.6135
17492TIP3    H273892   2.858   0.942   4.609  0.6664  0.2402  2.3475
17493TIP3   OH273893   0.319   4.893   2.923 -0.2902  0.1035 -0.0421
17493TIP3    H173894   0.360   4.977   2.905  0.3218 -0.2210 -0.1676
17493TIP3    H273895   0.314   4.850   2.838  0.3632 -0.4192  0.1767
17494TIP3   OH273896   5.065   5.475  15.886  0.1142  0.2634  0.3965
17494TIP3    H173897   4.982   5.502  15.926  0.2003  1.0882  0.0436
17494TIP3    H273898   5.045   5.391  15.843 -0.3155  0.0452  1.0208
17495TIP3   OH273899   0.487   5.844   2.461 -0.6900 -0.3962  0.5410
17495TIP3    H173900   0.413   5.814   2.515  0.0748 -1.6859  0.9319
17495TIP3    H273901   0.524   5.763   2.426 -0.7225  0.3682 -1.3756
17496TIP3   OH273902   0.710   1.316  11.219  0.3044  0.2243 -0.4022
17496TIP3    H173903   0.686   1.258  11.148 -1.0719  0.9294 -0.5432
17496TIP3    H273904   0.647   1.295  11.289  0.3912  0.8865 -0.1214
17497TIP3   OH273905   0.388   5.030  12.372 -0.2943  0.2882 -0.1694
17497TIP3    H173906   0.458   5.087  12.338 -1.5407  3.1157  1.5967
17497TIP3    H273907   0.392   4.952  12.317  3.8051  0.5344 -0.5677
17498TIP3   OH273908   0.345   4.975   1.019  0.0218 -0.4513 -0.3169
17498TIP3    H173909   0.285   4.903   0.998 -0.7170  0.3243 -0.9426
17498TIP3    H273910   0.429   4.948   0.981 -0.2563 -0.9615 -0.5778
17499TIP3   OH273911   5.228   3.948   3.156  0.3981  0.6945  0.2946
17499TIP3    H173912   5.187   3.948   3.070  0.7645 -0.7697  0.0855
17499TIP3    H273913   5.313   3.990   3.142  0.9444 -0.5446 -0.3546
17500TIP3   OH273914   4.011   0.966   5.636 -0.3004 -0.2395 -0.0332
17500TIP3    H173915   4.082   0.903   5.626 -0.0521 -0.0616  0.5599
17500TIP3    H273916   4.055   1.050   5.645 -0.6615  0.2137 -2.0735
17501TIP3   OH273917   5.051   1.981  15.258  0.3727 -0.2892 -0.4817
17501TIP3    H173918   4.974   1.981  15.202 -0.1662  2.9372  0.0476
17501TIP3    H273919   5.116   2.031  15.209  0.7692  0.3431  0.6537
17502TIP3   OH273920   1.945   2.829   2.741 -0.0431 -0.0493 -0.3943
17502TIP3    H173921   1.994   2.906   2.766 -0.1828 -0.0112 -0.2350
17502TIP3    H273922   1.975   2.760   2.801  0.3314 -0.2072 -0.7595
17503TIP3   OH273923   2.294   6.354   6.075 -0.1388 -0.0904  0.3214
17503TIP3    H173924   2.230   6.425   6.076 -0.3741 -0.2902 -0.0619
17503TIP3    H273925   2.312   6.337   6.168 -2.0509 -1.2525  0.5377
17504TIP3   OH273926   0.425   4.080   4.553 -0.2494  0.2655 -0.4310
17504TIP3    H173927   0.505   4.067   4.503  1.9274  2.0288  2.2849
17504TIP3    H273928   0.405   4.173   4.543  0.1316  0.6189  1.6736
17505TIP3   OH273929   4.680   1.922  11.169 -0.1050 -0.3580  0.0610
17505TIP3    H173930   4.655   2.006  11.208 -1.1541  0.3338 -1.9550
17505TIP3    H273931   4.693   1.942  11.076  1.1567 -2.1399 -0.1933
17506TIP3   OH273932   6.092   6.585   1.466  0.0548 -0.5476  0.1765
17506TIP3    H173933   6.147   6.653   1.428 -0.1801 -1.2704 -1.5389
17506TIP3    H273934   6.007   6.627   1.478  0.2362 -0.2031  0.2667
17507TIP3   OH273935   4.668   5.703   1.234  0.2528 -0.0219  0.3795
17507TIP3    H173936   4.659   5.787   1.189 -0.0409 -0.4306 -0.3444
17507TIP3    H273937   4.628   5.640   1.174  0.7793 -0.7280  0.7637
17508TIP3   OH273938   2.590   1.247   5.073  0.2240  0.1856  0.7879
17508TIP3    H173939   2.537   1.233   5.151 -1.5791 -0.3589 -0.4742
17508TIP3    H273940   2.577   1.169   5.020  0.7886  0.8688 -0.4151
17509TIP3   OH273941   3.657   2.853  13.456  0.3263  0.7779  0.5344
17509TIP3    H173942   3.694   2.941  13.451  0.1866  0.8301  0.4242
17509TIP3    H273943   3.730   2.796  13.433 -0.0493  0.9603 -1.2243
17510TIP3   OH273944   0.343   0.767  11.338  0.2990  0.1212  0.5899
17510TIP3    H173945   0.321   0.681  11.375  0.2938  0.0775  0.4855
17510TIP3    H273946   0.430   0.756  11.301 -0.6373 -0.5430 -1.5816
17511TIP3   OH273947   0.923   3.248   1.599 -0.3563  0.7427 -0.1887
17511TIP3    H173948   0.959   3.266   1.512  1.3411 -1.3822 -0.0223
17511TIP3    H273949   0.962   3.315   1.655  0.6264  0.5688 -0.6433
17512TIP3   OH273950   6.289   6.472  10.575 -0.7950  0.5897  0.5198
17512TIP3    H173951   6.369   6.433  10.611  0.5233  1.4201 -1.3827
17512TIP3    H273952   6.263   6.537  10.641  1.4925  2.0062  0.1510
17513TIP3   OH273953   1.049   5.110   1.221  0.0336  0.8098  0.3924
17513TIP3    H173954   1.076   5.027   1.182 -0.5341  0.0727  1.5165
17513TIP3    H273955   0.959   5.122   1.191  0.3348  1.3903 -0.3265
17514TIP3   OH273956   0.734   6.216   4.282  0.5208  0.2652 -0.4820
17514TIP3    H173957   0.681   6.286   4.244  0.7662 -0.3270 -1.9862
17514TIP3    H273958   0.804   6.260   4.330 -0.5050  1.0413  0.3486
17515TIP3   OH273959   3.496   3.316   3.324  0.1822 -0.7026  0.4655
17515TIP3    H173960   3.455   3.243   3.371 -3.8549  1.0024 -0.0643
17515TIP3    H273961   3.463   3.309   3.235  0.4720  1.2394  0.1636
17516TIP3   OH273962   4.826   2.043   2.443  0.4934  0.0592 -0.0531
17516TIP3    H173963   4.879   2.115   2.477 -0.5633  0.7728  0.1598
17516TIP3    H273964   4.856   1.966   2.490 -0.1571  0.8301  1.7064
17517TIP3   OH273965   4.886   4.568  12.104 -0.2023  0.5206  0.3411
17517TIP3    H173966   4.969   4.611  12.085  0.7180 -1.2420  0.1499
17517TIP3    H273967   4.891   4.546  12.197 -0.2028 -0.0649  0.2076
17518TIP3   OH273968   5.137   0.917   4.099 -0.0127 -0.0664  0.4110
17518TIP3    H173969   5.067   0.923   4.034  0.8835  0.4348 -0.5595
17518TIP3    H273970   5.175   0.830   4.086  0.1174  0.0050  0.3048
17519TIP3   OH273971   0.575   3.638   3.505  0.2890  0.6425 -0.0478
17519TIP3    H173972   0.545   3.692   3.578  0.2050 -1.6034  1.6733
17519TIP3    H273973   0.570   3.696   3.429 -3.1941  2.0319  1.0401
17520TIP3   OH273974   1.139   0.695  13.851 -0.2264 -0.4465  0.2138
17520TIP3    H173975   1.187   0.770  13.886  0.6562  0.0456 -1.8718
17520TIP3    H273976   1.129   0.715  13.758 -0.3626 -2.7195 -0.3181
17521TIP3   OH273977   0.003   3.733  14.810  0.6752 -0.3897 -0.2597
17521TIP3    H173978  -0.079   3.711  14.766  0.1923  0.7617  0.0179
17521TIP3    H273979   0.008   3.673  14.884 -1.6766  1.6337  1.7393
17522TIP3   OH273980   1.601   5.579   0.136 -0.1379  0.0028  0.1961
17522TIP3    H173981   1.651   5.499   0.123 -0.2050 -0.3180  1.6719
17522TIP3    H273982   1.512   5.549   0.157 -0.1181  0.4389  0.9389
17523TIP3   OH273983   1.681   3.093  17.310  0.3115  0.8992  0.1065
17523TIP3    H173984   1.623   3.066  17.382  0.4064  0.9718  0.2113
17523TIP3    H273985   1.758   3.129  17.355  1.2394 -0.8233 -0.0109
17524TIP3   OH273986   1.845   5.857   5.805  0.0813 -0.1871  0.0297
17524TIP3    H173987   1.843   5.798   5.730  0.5363 -0.9467  0.5989
17524TIP3    H273988   1.938   5.870   5.823  0.0036  1.1746 -0.4297
17525TIP3   OH273989   1.033   2.210   6.239  0.5852 -0.3177  0.1856
17525TIP3    H173990   1.111   2.170   6.277  2.1778 -0.5690 -3.0211
17525TIP3    H273991   0.974   2.137   6.222  0.0836 -0.2621  1.5679
17526TIP3   OH273992   1.869   1.425  14.871 -0.5521 -0.2360  0.1319
17526TIP3    H173993   1.894   1.377  14.792  0.0411  1.2047 -0.5835
17526TIP3    H273994   1.923   1.386  14.940  0.0469 -0.4770 -0.4654
17527TIP3   OH273995   4.056   6.282  14.107 -0.3372  0.2567  0.0560
17527TIP3    H173996   4.068   6.305  14.015 -0.4276  1.7078  0.3800
17527TIP3    H273997   3.962   6.284  14.121 -0.3327 -0.1064  0.1457
17528TIP3   OH273998   6.479   3.713  10.845  0.2919 -0.0659 -0.5062
17528TIP3    H173999   6.466   3.659  10.767  0.8487 -0.6206 -0.2260
17528TIP3    H274000   6.563   3.684  10.881  0.3308  0.6040 -0.0361
17529TIP3   OH274001   5.793   6.516   3.901  0.1984  0.5919  0.0542
17529TIP3    H174002   5.793   6.593   3.844 -1.4789  0.8717  0.3712
17529TIP3    H274003   5.701   6.505   3.927  0.7721 -0.0743  1.9673
17530TIP3   OH274004   1.768   5.216  12.078  0.3194 -0.0683  0.3373
17530TIP3    H174005   1.722   5.207  12.161  1.9170 -1.8736  1.0953
17530TIP3    H274006   1.733   5.146  12.023  0.3509  0.1569  0.0275
17531TIP3   OH274007   6.662   6.661  14.955 -0.0365  0.2295  0.5943
17531TIP3    H174008   6.743   6.692  14.915 -0.2540  0.2862  0.1894
17531TIP3    H274009   6.604   6.643  14.881 -0.6216  0.8245  0.8941
17532TIP3   OH274010   5.081   1.101  14.567 -0.2807  0.2411  0.2788
17532TIP3    H174011   5.063   1.014  14.601 -1.0089 -1.4283 -3.7951
17532TIP3    H274012   5.175   1.101  14.550 -0.4773 -0.3133 -0.9168
17533TIP3   OH274013   1.534   0.971  12.850 -0.4324  0.2820 -0.7658
17533TIP3    H174014   1.460   0.920  12.818  0.5459 -0.5856 -1.7476
17533TIP3    H274015   1.514   1.061  12.824 -2.2716  0.5126  1.1550
17534TIP3   OH274016   0.814   3.148   5.626  0.6050  0.0130  0.5465
17534TIP3    H174017   0.839   3.113   5.711 -0.5348  0.2717  1.0091
17534TIP3    H274018   0.739   3.205   5.645  1.3358  1.3303 -0.4167
17535TIP3   OH274019   6.257   5.292  16.189 -1.0594 -0.0692 -0.6964
17535TIP3    H174020   6.288   5.312  16.101  0.1638 -0.7620 -0.4547
17535TIP3    H274021   6.198   5.364  16.212  1.0976  1.8476 -0.8383
17536TIP3   OH274022   1.991   3.205  12.590 -0.0170 -0.6358 -0.8822
17536TIP3    H174023   2.045   3.129  12.614 -0.6990 -0.7671  0.2972
17536TIP3    H274024   1.987   3.257  12.670  0.5487  0.7374 -1.7144
17537TIP3   OH274025   5.282   1.732   5.535  0.0652 -0.2202  0.0581
17537TIP3    H174026   5.235   1.811   5.563  1.1952  0.1200  1.0669
17537TIP3    H274027   5.374   1.755   5.543  0.4147 -1.2476 -0.8226
17538TIP3   OH274028   4.439   3.268  12.634 -0.3112  0.3083 -0.7821
17538TIP3    H174029   4.407   3.263  12.544 -1.1704 -0.2250 -0.4624
17538TIP3    H274030   4.477   3.182  12.650 -2.0207 -0.3504  0.0111
17539TIP3   OH274031   6.221   3.018   2.121  0.0785  0.3860  0.3379
17539TIP3    H174032   6.167   2.948   2.158 -1.2805 -0.2642 -2.5548
17539TIP3    H274033   6.310   2.996   2.146 -0.4937 -1.4037  0.9789
17540TIP3   OH274034   2.688   4.861   4.310  0.0486  0.2774 -0.0156
17540TIP3    H174035   2.747   4.931   4.336  2.3799 -1.2011 -1.0031
17540TIP3    H274036   2.648   4.831   4.392 -1.4721  3.0081  0.3780
17541TIP3   OH274037   6.528   6.660   0.297  0.3669 -0.4342 -0.3767
17541TIP3    H174038   6.540   6.620   0.211  0.1274  0.7237 -0.9713
17541TIP3    H274039   6.502   6.587   0.354  0.0151 -1.1338 -1.4022
17542TIP3   OH274040   0.889   4.102   2.601  0.4840  0.0899 -0.1273
17542TIP3    H174041   0.801   4.083   2.568  0.0654  1.7072 -0.0291
17542TIP3    H274042   0.931   4.017   2.610 -0.6041 -0.6209 -1.4875
17543TIP3   OH274043   1.475   1.766  16.267  0.6659 -0.1851 -0.0716
17543TIP3    H174044   1.467   1.834  16.334  0.1224 -0.5540  0.2406
17543TIP3    H274045   1.501   1.813  16.188 -3.4510  0.9983 -0.9382
17544TIP3   OH274046   2.838   3.173  16.077 -0.5494  0.0451  0.1639
17544TIP3    H174047   2.845   3.187  16.171 -1.5528  0.5354  0.1736
17544TIP3    H274048   2.905   3.107  16.058  0.4141  0.7288  1.0360
17545TIP3   OH274049   3.804   0.562  10.944 -0.0770 -0.0273 -0.3539
17545TIP3    H174050   3.734   0.606  10.896 -1.1868 -1.5295 -0.1722
17545TIP3    H274051   3.811   0.476  10.903  1.9824  0.2385 -0.6493
17546TIP3   OH274052   1.497   3.739  16.899 -0.0952 -0.1881 -0.6343
17546TIP3    H174053   1.470   3.653  16.865 -0.1072 -0.0561 -0.9589
17546TIP3    H274054   1.579   3.722  16.944 -0.9491 -0.6950  0.8011
17547TIP3   OH274055   4.051   0.959  15.271 -0.5681  0.3382  0.4229
17547TIP3    H174056   4.138   0.998  15.259 -1.1557  1.0878 -2.0051
17547TIP3    H274057   4.007   0.974  15.187 -2.6324 -1.0894  1.1879
17548TIP3   OH274058   4.938   3.175   4.847 -0.1946 -0.3805  0.0270
17548TIP3    H174059   4.997   3.107   4.815 -0.9752 -0.0206 -2.4641
17548TIP3    H274060   4.861   3.168   4.789 -0.5448  2.2048  0.0750
17549TIP3   OH274061   1.538   0.646   0.228 -0.4100 -0.1776 -0.1164
17549TIP3    H174062   1.567   0.722   0.279 -0.8943 -0.9460  1.3644
17549TIP3    H274063   1.487   0.683   0.156 -1.1032  0.8866  0.8932
17550TIP3   OH274064   1.776   6.003   4.744  0.1077 -0.2093 -0.2436
17550TIP3    H174065   1.810   5.971   4.660  1.3943  0.5007 -0.0277
17550TIP3    H274066   1.813   5.943   4.809 -0.2786 -0.3156 -0.1215
17551TIP3   OH274067   3.958   6.295   4.945  0.0403 -0.1563  0.4099
17551TIP3    H174068   3.875   6.260   4.913  0.0337  0.5102 -0.3262
17551TIP3    H274069   3.947   6.300   5.040  0.1870 -2.5196  0.6117
17552TIP3   OH274070   6.261   5.314   5.182 -0.2613  0.4716  0.7857
17552TIP3    H174071   6.280   5.245   5.246  0.7305  0.1071  0.1107
17552TIP3    H274072   6.342   5.363   5.175  0.1293 -0.3585 -1.2479
17553TIP3   OH274073   4.345   3.922   3.396 -0.3301 -0.2362  0.3045
17553TIP3    H174074   4.421   3.879   3.434  1.0746  0.8666 -1.1225
17553TIP3    H274075   4.371   4.014   3.389 -0.5416 -0.3048 -3.0185
17554TIP3   OH274076   5.203   0.160  15.397  0.0346 -0.2343  0.3093
17554TIP3    H174077   5.147   0.237  15.390  1.0298  0.3828 -1.5477
17554TIP3    H274078   5.195   0.117  15.312  1.1497 -1.0118  0.5811
17555TIP3   OH274079   1.718   3.391  14.265  0.0744  0.5269 -0.0385
17555TIP3    H174080   1.639   3.397  14.319  0.8297  1.3281  1.0176
17555TIP3    H274081   1.786   3.434  14.317  1.4753 -1.1014 -0.4520
17556TIP3   OH274082   1.460   3.564  11.720  0.1829 -0.3087 -0.1861
17556TIP3    H174083   1.407   3.547  11.642 -1.5171  0.3895  0.7521
17556TIP3    H274084   1.411   3.523  11.792  0.3230  1.2996  0.8815
17557TIP3   OH274085   5.925   5.194   1.173 -0.1419 -0.0673 -0.2907
17557TIP3    H174086   5.968   5.207   1.257  2.0117 -2.7910 -0.8089
17557TIP3    H274087   5.947   5.272   1.122 -0.7860  1.2366  1.3209
17558TIP3   OH274088   6.235   5.131   5.374  0.4985  0.6793 -0.2709
17558TIP3    H174089   6.302   5.077   5.415  0.6645 -1.0669 -2.6825
17558TIP3    H274090   6.178   5.157   5.447  1.5608 -1.0536  1.2662
17559TIP3   OH274091   1.269   4.724   4.971 -0.3990 -0.2453 -0.3358
17559TIP3    H174092   1.239   4.657   5.032 -0.6141  0.4348  0.3220
17559TIP3    H274093   1.231   4.698   4.887 -0.6831 -0.8058 -0.0421
17560TIP3   OH274094   4.376   0.398  16.700 -0.4901 -0.0507 -0.3902
17560TIP3    H174095   4.332   0.469  16.746 -1.1696  0.2072 -1.4016
17560TIP3    H274096   4.446   0.371  16.759 -1.6421 -0.0881  1.0029
17561TIP3   OH274097   5.589   2.992  14.340 -0.0651 -0.3781 -0.1621
17561TIP3    H174098   5.504   3.027  14.367  0.3957  0.6595 -0.0064
17561TIP3    H274099   5.629   3.062  14.289  0.4239 -1.1127 -0.8136
17562TIP3   OH274100   4.237   5.312  12.099 -0.0779  0.0259  0.0258
17562TIP3    H174101   4.205   5.387  12.150  0.2556 -0.0906  0.4117
17562TIP3    H274102   4.196   5.323  12.013  2.2870  2.3859 -0.9609
17563TIP3   OH274103   3.370   4.754  14.645 -0.4983 -0.0331 -0.1387
17563TIP3    H174104   3.281   4.726  14.664 -0.9409 -1.3160 -3.5291
17563TIP3    H274105   3.423   4.712  14.713 -2.0977 -2.1770 -0.1202
17564TIP3   OH274106   3.055   6.062   0.939 -0.3897 -0.0402 -0.0493
17564TIP3    H174107   2.965   6.029   0.950 -0.0118 -1.0825  0.0174
17564TIP3    H274108   3.046   6.157   0.942 -1.3511 -0.1416  1.1617
17565TIP3   OH274109   6.295   5.012  14.818 -0.4256 -0.2018 -0.2412
17565TIP3    H174110   6.360   5.065  14.772 -0.5353  0.0621 -0.0899
17565TIP3    H274111   6.338   4.987  14.900 -0.9850  1.0911  0.4810
17566TIP3   OH274112   0.049   5.195  11.957  0.2499 -0.1919 -0.3800
17566TIP3    H174113   0.102   5.140  11.899  0.5403 -0.3216  0.0013
17566TIP3    H274114  -0.008   5.134  12.004  1.2001 -0.2896  0.7043
17567TIP3   OH274115   5.885   1.954   2.069  0.0483 -0.6688  0.1840
17567TIP3    H174116   5.832   1.887   2.113  0.7565 -1.0776  0.4191
17567TIP3    H274117   5.853   2.037   2.106  0.6093 -1.0021  1.4708
17568TIP3   OH274118   2.897   4.090  13.347  0.3978 -0.2252 -0.0648
17568TIP3    H174119   2.969   4.123  13.401  1.8645 -0.2793 -1.8831
17568TIP3    H274120   2.869   4.010  13.391 -0.6951  1.3587  2.3608
17569TIP3   OH274121   3.415   5.889  15.744  0.0028  0.0356 -0.2019
17569TIP3    H174122   3.376   5.892  15.831  1.1682  0.3626  0.3256
17569TIP3    H274123   3.448   5.799  15.736 -1.2913 -0.4079 -0.8643
17570TIP3   OH274124   6.248   6.140   5.177  0.0252  0.0400 -0.0688
17570TIP3    H174125   6.174   6.081   5.159 -0.5937 -0.1323  2.6483
17570TIP3    H274126   6.324   6.082   5.177  0.0685  0.0437 -1.8418
17571TIP3   OH274127   4.230   3.760  10.774  0.6580  0.0291  0.0998
17571TIP3    H174128   4.217   3.855  10.776  0.5535  0.0979 -1.8828
17571TIP3    H274129   4.323   3.748  10.794  0.7476  0.5892  0.0306
17572TIP3   OH274130   0.852   3.312  16.458 -0.4395  0.0223  0.4706
17572TIP3    H174131   0.795   3.273  16.391  1.3790 -0.1416 -1.0780
17572TIP3    H274132   0.940   3.304  16.422  0.7421 -0.7088  3.2245
17573TIP3   OH274133   0.033   2.887   1.368  0.2151 -0.0751 -0.3235
17573TIP3    H174134   0.029   2.815   1.431 -0.1685  1.5436  1.5840
17573TIP3    H274135   0.124   2.887   1.338  0.0520 -1.7886 -0.9638
17574TIP3   OH274136   4.567   2.351   4.781 -0.2957  0.1304 -0.1099
17574TIP3    H174137   4.559   2.278   4.719 -0.3878  1.3283 -1.5728
17574TIP3    H274138   4.486   2.401   4.771  1.2189  2.4728 -1.9366
17575TIP3   OH274139   0.986   4.556   4.065  0.2954 -0.2470 -0.9058
17575TIP3    H174140   1.049   4.627   4.063  1.4147 -1.1987 -0.4816
17575TIP3    H274141   0.930   4.571   3.988 -0.3483  1.8130 -0.0873
17576TIP3   OH274142   1.848   3.224  15.690  0.3195 -0.0429  0.0113
17576TIP3    H174143   1.790   3.295  15.719  0.7542  0.3973 -0.1868
17576TIP3    H274144   1.888   3.257  15.610  1.5889  0.0640  0.6673
17577TIP3   OH274145   5.457   6.343  13.267 -0.0834 -0.6176  0.1296
17577TIP3    H174146   5.509   6.348  13.348  0.7910  2.3115 -0.4859
17577TIP3    H274147   5.516   6.304  13.203 -0.9628 -3.4843  0.9204
17578TIP3   OH274148   0.532   1.767  16.465 -0.5694  0.3050 -0.1803
17578TIP3    H174149   0.564   1.774  16.554  0.0728  0.8926 -0.4474
17578TIP3    H274150   0.438   1.784  16.471 -0.3410  1.5285  0.2430
17579TIP3   OH274151   3.218   0.198  16.781 -0.1556 -0.5480 -0.8005
17579TIP3    H174152   3.162   0.122  16.798  0.0777 -1.2346 -2.7911
17579TIP3    H274153   3.171   0.247  16.713  0.4632  0.2264 -0.6766
17580TIP3   OH274154   2.349   4.324   4.382 -0.1963 -0.0322 -0.4463
17580TIP3    H174155   2.318   4.235   4.403 -2.5148  0.3163 -2.0540
17580TIP3    H274156   2.344   4.329   4.287 -1.6390  2.2839 -0.3157
17581TIP3   OH274157   5.970   1.644  17.017  0.2253  0.2979  0.2855
17581TIP3    H174158   5.951   1.679  17.104 -2.2506  1.6083 -0.6715
17581TIP3    H274159   6.047   1.693  16.988 -0.0830  1.2240  0.9863
17582TIP3   OH274160   0.522   2.152  15.248 -0.6094 -0.4904 -0.2586
17582TIP3    H174161   0.560   2.152  15.336  0.0212  0.9056 -0.5052
17582TIP3    H274162   0.517   2.059  15.224 -0.9315 -0.8984  1.2977
17583TIP3   OH274163   5.904   0.455   3.117  0.4388  0.0065 -0.5720
17583TIP3    H174164   5.931   0.492   3.033  0.9763  1.0963  0.0586
17583TIP3    H274165   5.863   0.372   3.094  3.7859 -1.5409 -1.6661
17584TIP3   OH274166   2.173   4.684  15.465 -0.3138 -0.4381 -0.1315
17584TIP3    H174167   2.267   4.668  15.456 -0.4102 -1.4549  0.5316
17584TIP3    H274168   2.132   4.619  15.408 -0.6225  0.1522 -0.6012
17585TIP3   OH274169   2.605   0.379   6.404  0.5697 -0.9590  0.0722
17585TIP3    H174170   2.690   0.409   6.438 -0.0634  2.3116 -0.8928
17585TIP3    H274171   2.557   0.350   6.482  0.7054  2.3163  1.5628
17586TIP3   OH274172   0.703   2.349  15.146 -0.5990 -0.0178  0.1327
17586TIP3    H174173   0.643   2.287  15.188  0.5255 -0.1123  1.6654
17586TIP3    H274174   0.789   2.327  15.181 -0.0469  1.8745  0.0692
17587TIP3   OH274175   5.605   4.383  16.695  0.0052  0.2742  0.3178
17587TIP3    H174176   5.623   4.353  16.606  0.7420  0.0909  0.5235
17587TIP3    H274177   5.511   4.399  16.696  0.0657  0.7885 -0.6552
17588TIP3   OH274178   0.979   2.041   3.576  0.0690 -0.6860 -0.5252
17588TIP3    H174179   1.032   2.063   3.652  1.2135  1.8987 -1.9415
17588TIP3    H274180   1.006   1.953   3.552  2.2353 -0.2163  0.0322
17589TIP3   OH274181   5.001   3.100  12.487 -0.2041 -0.3195 -0.5022
17589TIP3    H174182   5.050   3.133  12.562 -1.3420 -0.8584  0.5170
17589TIP3    H274183   5.044   3.017  12.465  0.9938  0.4969 -1.3660
17590TIP3   OH274184   2.760   2.583   4.678 -0.2743  0.5833 -0.6906
17590TIP3    H174185   2.776   2.566   4.771  3.0010 -1.4502 -1.4618
17590TIP3    H274186   2.691   2.521   4.654 -0.2982  0.2758  0.1264
17591TIP3   OH274187   2.196   4.058  16.294  0.6445 -0.2426 -0.3632
17591TIP3    H174188   2.262   4.114  16.253  0.1390  0.3525 -0.3697
17591TIP3    H274189   2.224   3.969  16.272  1.4347 -0.0019 -0.3781
17592TIP3   OH274190   2.575   0.455  16.591  0.2176  0.0825  0.1206
17592TIP3    H174191   2.620   0.446  16.507 -0.8846 -0.5577 -0.4172
17592TIP3    H274192   2.501   0.394  16.586  0.2299 -0.0886  1.6233
17593TIP3   OH274193   4.393   5.367  15.434  0.3470  0.2226  0.0542
17593TIP3    H174194   4.302   5.398  15.431  0.9197  1.9932  0.0369
17593TIP3    H274195   4.438   5.430  15.490  1.9273  0.3905 -1.3120
17594TIP3   OH274196   4.159   1.403   0.181  0.8397 -0.0162  0.4094
17594TIP3    H174197   4.180   1.350   0.104 -0.1539 -1.3341  1.0079
17594TIP3    H274198   4.245   1.422   0.220  1.4284  1.3854 -1.4197
17595TIP3   OH274199   6.533   2.236  14.892 -0.2291 -0.4766  0.7375
17595TIP3    H174200   6.505   2.194  14.811  0.7507 -1.2680  0.7883
17595TIP3    H274201   6.473   2.309  14.904  0.4338  0.5067 -1.4431
17596TIP3   OH274202   4.893   5.191   4.810 -0.4437  0.4132  0.2510
17596TIP3    H174203   4.966   5.245   4.781 -0.3373 -0.2512 -0.7740
17596TIP3    H274204   4.851   5.161   4.730 -0.5242 -0.9679  0.7653
17597TIP3   OH274205   0.849   0.052   5.502  0.1745  1.1462 -0.5120
17597TIP3    H174206   0.830  -0.040   5.487  0.2686  0.8469  1.0176
17597TIP3    H274207   0.924   0.071   5.446 -0.6390  0.6485 -1.7916
17598TIP3   OH274208   0.547   1.624  14.979  0.8170  0.3288  0.4533
17598TIP3    H174209   0.505   1.705  14.950  0.3319 -0.0827 -0.0127
17598TIP3    H274210   0.622   1.615  14.921 -0.4014 -0.7262 -1.0323
17599TIP3   OH274211   5.526   0.385   1.426 -0.3041  0.0522  0.1491
17599TIP3    H174212   5.441   0.344   1.410 -0.9216 -0.6194  4.1317
17599TIP3    H274213   5.507   0.459   1.483  1.7485 -0.2084  1.2776
17600TIP3   OH274214   1.207   2.976  13.548  0.2695  0.0729  0.3552
17600TIP3    H174215   1.292   3.018  13.553  0.3712 -0.2449  2.0423
17600TIP3    H274216   1.211   2.905  13.612 -1.6776  0.8680  1.4673
17601TIP3   OH274217   5.733   3.068   3.831 -0.0844 -0.7245  0.5735
17601TIP3    H174218   5.685   3.006   3.776 -0.0320 -1.1630  1.0109
17601TIP3    H274219   5.818   3.076   3.788 -0.3176 -0.4359  0.1490
17602TIP3   OH274220   5.177   3.555   2.485 -0.5563  0.0527  0.8204
17602TIP3    H174221   5.207   3.646   2.486  0.4135 -0.2491  1.9899
17602TIP3    H274222   5.090   3.557   2.523 -0.5919  0.5144  0.7175
17603TIP3   OH274223   3.034   0.132   1.088  0.1010  0.2731  0.3347
17603TIP3    H174224   3.084   0.062   1.128  1.4098  0.3857 -1.0038
17603TIP3    H274225   3.065   0.212   1.131  1.9901  0.4671 -1.2451
17604TIP3   OH274226   6.639   4.055   0.996 -0.3382  0.4834  0.4746
17604TIP3    H174227   6.693   3.978   1.016  0.0840  0.2687 -1.3189
17604TIP3    H274228   6.616   4.091   1.081  1.4063 -0.2888  1.3252
17605TIP3   OH274229   1.649   0.150   2.601  1.1853 -0.6713 -0.3462
17605TIP3    H174230   1.604   0.166   2.684  1.0561 -1.0874 -0.3383
17605TIP3    H274231   1.742   0.157   2.622  1.1426  1.5681 -0.6216
17606TIP3   OH274232   4.565   5.593   2.696 -0.2424 -0.0494 -0.3224
17606TIP3    H174233   4.616   5.535   2.752 -1.8897  0.0178  1.3568
17606TIP3    H274234   4.630   5.647   2.652  1.1679  0.4181  2.1330
17607TIP3   OH274235   1.740   3.099   1.594  0.8967  0.3943 -0.2265
17607TIP3    H174236   1.756   3.021   1.647 -0.4495 -0.4925 -1.0538
17607TIP3    H274237   1.813   3.157   1.613  0.3147  0.2603  2.8397
17608TIP3   OH274238   0.989   2.747  10.980  0.7569  0.0809  0.1541
17608TIP3    H174239   0.912   2.703  10.945  1.8237 -2.8459  1.2017
17608TIP3    H274240   0.955   2.826  11.022 -1.5894 -0.8654  0.1431
17609TIP3   OH274241   3.235   0.859   1.747 -0.1377  0.2133  0.1991
17609TIP3    H174242   3.181   0.933   1.722 -2.0148 -1.0284  0.3987
17609TIP3    H274243   3.294   0.894   1.814 -0.9549  1.5150  0.2728
17610TIP3   OH274244   4.997   0.994  15.457  0.3212  0.0316 -0.0739
17610TIP3    H174245   4.949   0.950  15.528  0.2686 -1.6077 -1.0697
17610TIP3    H274246   4.966   1.085  15.461 -1.2789 -0.4929  0.6577
17611TIP3   OH274247   0.513   2.731   5.472 -0.5468 -0.0188  0.6226
17611TIP3    H174248   0.542   2.755   5.383 -1.5802  3.2809  1.0123
17611TIP3    H274249   0.429   2.687   5.459  0.3747 -1.6483 -0.0843
17612TIP3   OH274250   2.991   5.150   2.144  0.2688 -0.3145  0.3195
17612TIP3    H174251   3.075   5.114   2.117  0.2643  0.2903 -0.5521
17612TIP3    H274252   3.003   5.245   2.138  0.0989 -0.1603  1.9795
17613TIP3   OH274253   5.127   5.588  12.535  0.9971 -0.2219 -0.0981
17613TIP3    H174254   5.118   5.662  12.594 -0.2023 -0.1822 -0.3115
17613TIP3    H274255   5.130   5.627  12.447 -1.8379 -0.4830 -0.3924
17614TIP3   OH274256   2.577   0.376   4.885 -0.2169 -0.9737  0.4590
17614TIP3    H174257   2.538   0.426   4.957 -0.7583 -0.7022 -0.0139
17614TIP3    H274258   2.664   0.353   4.917  0.4121  1.0384  0.3912
17615TIP3   OH274259   5.037   5.998   2.121  0.6771 -0.3851  0.1979
17615TIP3    H174260   5.128   5.997   2.093  0.4343  1.8942 -0.9093
17615TIP3    H274261   5.039   6.043   2.206  0.3761  2.2988 -1.1197
17616TIP3   OH274262   4.563   5.471   2.347 -0.7779  0.2677  0.4567
17616TIP3    H174263   4.536   5.455   2.256 -1.4708  0.6378  0.5931
17616TIP3    H274264   4.486   5.451   2.399 -0.5090  0.4618  0.9321
17617TIP3   OH274265   5.723   2.744  12.824 -0.0722  0.3165  0.0380
17617TIP3    H174266   5.712   2.802  12.749  1.2801 -0.8822 -1.1633
17617TIP3    H274267   5.676   2.787  12.896  0.3313  2.5342 -0.9471
17618TIP3   OH274268   4.729   5.617   5.774  0.3164  0.1253 -0.2597
17618TIP3    H174269   4.736   5.679   5.846  1.8170 -0.7216  0.3664
17618TIP3    H274270   4.723   5.532   5.816 -0.2245 -0.2789 -1.1262
17619TIP3   OH274271   5.864   2.593   3.293  0.0035 -0.2955  0.7240
17619TIP3    H174272   5.952   2.558   3.282 -0.3787 -1.1980  0.4839
17619TIP3    H274273   5.827   2.542   3.365 -0.9716 -1.2449 -0.4029
17620TIP3   OH274274   5.564   5.048  16.967 -0.1033  0.1386  0.4004
17620TIP3    H174275   5.657   5.031  16.956 -0.3233 -0.2664 -0.9914
17620TIP3    H274276   5.557   5.143  16.974  0.3240  0.2536 -0.5618
17621TIP3   OH274277   0.862   0.735  12.661  0.1079 -0.1407  0.2565
17621TIP3    H174278   0.881   0.792  12.587  3.2452  1.2489  1.9187
17621TIP3    H274279   0.882   0.647  12.630  1.5348  0.4379 -0.5340
17622TIP3   OH274280   4.277   0.416  17.402  0.0448 -0.1919  0.3569
17622TIP3    H174281   4.215   0.457  17.462 -2.4954 -0.0985 -2.1078
17622TIP3    H274282   4.338   0.487  17.378 -1.9504  1.2247 -0.8813
17623TIP3   OH274283   4.530   5.174  13.892 -0.2088  0.1898  0.1646
17623TIP3    H174284   4.593   5.127  13.836  0.8847  1.4144  0.3094
17623TIP3    H274285   4.570   5.172  13.979 -0.7109  0.4090  0.3995
17624TIP3   OH274286   1.091   2.312  14.537 -0.2695  0.4763  0.7264
17624TIP3    H174287   1.075   2.403  14.564  0.3034  0.7743  0.1024
17624TIP3    H274288   1.182   2.296  14.560 -0.2145  0.2343  0.3497
17625TIP3   OH274289   5.648   2.489   6.309  0.3496 -0.3673 -0.4161
17625TIP3    H174290   5.589   2.432   6.358 -0.9583 -0.6341 -2.2311
17625TIP3    H274291   5.619   2.578   6.331 -0.0355 -0.4777 -0.4801
17626TIP3   OH274292   2.086   5.557   2.712  0.1421 -0.0049 -0.0928
17626TIP3    H174293   2.060   5.490   2.649 -1.2500 -0.5798  1.0378
17626TIP3    H274294   2.007   5.571   2.765  0.7645  1.6968  0.4292
17627TIP3   OH274295   6.152   3.404   5.154  0.3928 -0.7165  0.0628
17627TIP3    H174296   6.127   3.410   5.062  1.9508 -0.6521 -0.3917
17627TIP3    H274297   6.143   3.493   5.188  0.2026 -0.6594 -0.1379
17628TIP3   OH274298   4.057   4.560  14.339 -0.1447  0.3132 -0.2370
17628TIP3    H174299   4.028   4.549  14.429  1.3109  0.7027  0.3017
17628TIP3    H274300   3.995   4.622  14.301  1.1264  2.7634  1.4821
17629TIP3   OH274301   1.034   1.361  15.068  0.1450 -0.3321  0.1619
17629TIP3    H174302   0.968   1.295  15.089 -0.0539  0.3175  1.7097
17629TIP3    H274303   0.983   1.438  15.041  0.1902  0.3837  1.9805
17630TIP3   OH274304   4.916   5.662  13.553 -0.0270 -0.0646  0.5613
17630TIP3    H174305   4.861   5.691  13.625 -0.3683 -1.0445  0.7145
17630TIP3    H274306   4.915   5.566  13.559  0.0166 -0.1609 -0.6858
17631TIP3   OH274307   6.692   2.935  10.915  0.0542 -0.7573 -0.2388
17631TIP3    H174308   6.694   2.841  10.896  0.0139 -0.9534  0.6833
17631TIP3    H274309   6.756   2.946  10.986  2.3959  0.4014 -2.3620
17632TIP3   OH274310   2.287   6.283  13.045 -0.3520  0.2437  0.6600
17632TIP3    H174311   2.273   6.257  13.136 -0.3100 -2.3978 -0.0136
17632TIP3    H274312   2.379   6.263  13.028 -0.5639 -0.0473 -0.1753
17633TIP3   OH274313   3.882   2.820   2.022 -0.5238 -0.1005 -0.2965
17633TIP3    H174314   3.848   2.888   1.964 -0.6015 -0.5651 -0.8032
17633TIP3    H274315   3.838   2.740   1.993 -1.7883 -0.0899  1.4480
17634TIP3   OH274316   5.244   1.737   3.886  0.1040  0.4880 -0.6039
17634TIP3    H174317   5.301   1.773   3.955 -1.2391 -0.3605  1.0376
17634TIP3    H274318   5.176   1.803   3.874 -0.8425 -0.2336  0.4676
17635TIP3   OH274319   2.257   0.555  15.945  0.9249  0.0152 -0.0565
17635TIP3    H174320   2.306   0.535  15.866  1.3345 -0.4481  0.3080
17635TIP3    H274321   2.317   0.606  16.000  0.6019  0.4449 -0.0888
17636TIP3   OH274322   1.936   2.048   5.441  0.0854  0.2602  0.3863
17636TIP3    H174323   2.011   2.092   5.481  1.8626 -1.5405 -0.7593
17636TIP3    H274324   1.937   2.077   5.350 -1.2273  0.9416  0.5694
17637TIP3   OH274325   5.406   3.759  16.466  0.1100  0.3152 -0.1236
17637TIP3    H174326   5.416   3.796  16.554  1.4987 -0.2352 -0.0257
17637TIP3    H274327   5.347   3.684  16.477  2.8938 -1.8710  1.0328
17638TIP3   OH274328   2.583   1.871   5.365  0.3791 -0.3687  0.1751
17638TIP3    H174329   2.659   1.859   5.308  1.8275 -2.8975  2.4072
17638TIP3    H274330   2.614   1.931   5.433 -0.0273 -0.4442  0.4274
17639TIP3   OH274331   0.334   0.830   4.941  0.1090 -0.1954  0.4741
17639TIP3    H174332   0.354   0.766   5.010 -0.7509  0.2487  1.1608
17639TIP3    H274333   0.416   0.878   4.929  1.1835 -2.1917 -0.9568
17640TIP3   OH274334   5.771   4.010   4.648  0.0358 -0.6263  0.1235
17640TIP3    H174335   5.841   3.988   4.710  0.4212  2.6255  1.0305
17640TIP3    H274336   5.691   3.976   4.688  0.6383 -1.1523  0.9110
17641TIP3   OH274337   0.289   3.184  14.601 -0.5444 -0.4492 -0.2445
17641TIP3    H174338   0.303   3.162  14.693 -0.5112  1.5184  0.2749
17641TIP3    H274339   0.302   3.102  14.554  0.8933 -1.2054  1.3659
17642TIP3   OH274340   1.340   4.047  14.799 -0.1696 -0.2245 -1.1839
17642TIP3    H174341   1.385   3.963  14.810  1.6370  0.8040 -0.0701
17642TIP3    H274342   1.330   4.056  14.705  4.0428  0.3495 -1.8048
17643TIP3   OH274343   4.698   1.706  10.860  0.4438 -0.0410 -0.1611
17643TIP3    H174344   4.743   1.622  10.876  0.2860 -0.3146 -1.0867
17643TIP3    H274345   4.642   1.688  10.784  0.4648  0.9259 -0.4101
17644TIP3   OH274346   0.172   1.908  15.944 -0.0095 -0.2519  0.2493
17644TIP3    H174347   0.132   1.993  15.927  1.9776  0.8960  0.9997
17644TIP3    H274348   0.189   1.871  15.857 -2.1444 -0.5527 -0.0762
17645TIP3   OH274349   4.771   6.307   3.932 -0.0345  0.5142 -0.1252
17645TIP3    H174350   4.842   6.338   3.876 -1.3139  1.0724 -1.5084
17645TIP3    H274351   4.724   6.386   3.958 -1.0902  0.0484 -0.5709
17646TIP3   OH274352   0.200   6.698  16.418  0.4163 -0.0077 -0.0223
17646TIP3    H174353   0.184   6.786  16.452  1.6019 -0.9155  3.2867
17646TIP3    H274354   0.280   6.707  16.366  0.4229  0.9156  0.1206
17647TIP3   OH274355   2.749   3.523  11.133  0.4695 -0.4948  0.2991
17647TIP3    H174356   2.750   3.576  11.053 -0.2664 -1.8496 -0.6493
17647TIP3    H274357   2.748   3.587  11.204 -0.2283  0.7686 -0.7908
17648TIP3   OH274358   3.871   3.825   2.044 -0.4043 -0.0047 -0.6375
17648TIP3    H174359   3.918   3.785   1.971  0.8254  0.1216  0.0506
17648TIP3    H274360   3.909   3.784   2.122  0.8607  2.4034  0.0954
17649TIP3   OH274361   0.358   5.431   6.373  0.2249 -0.2088 -0.5194
17649TIP3    H174362   0.359   5.380   6.454 -0.8334  0.3378 -0.1430
17649TIP3    H274363   0.423   5.499   6.387  0.6510 -0.6187 -0.4745
17650TIP3   OH274364   1.890   5.254  13.776 -0.5350 -0.7309  0.4942
17650TIP3    H174365   1.818   5.225  13.721 -1.9843 -0.4470  2.1397
17650TIP3    H274366   1.944   5.308  13.719 -1.3995 -1.2617 -0.8844
17651TIP3   OH274367   2.293   5.429   0.779  0.1211  0.1194 -0.1292
17651TIP3    H174368   2.360   5.469   0.834 -0.7155 -0.2020  1.1557
17651TIP3    H274369   2.325   5.443   0.689  0.8481  1.8612  0.3554
17652TIP3   OH274370   1.120   2.599  11.248  0.5384 -0.1750  0.0952
17652TIP3    H174371   1.078   2.583  11.164  0.1532  1.5904 -0.0763
17652TIP3    H274372   1.098   2.690  11.270  1.4307 -0.2876  1.6432
17653TIP3   OH274373   3.389   4.924  12.910  0.0048 -0.3979 -0.0953
17653TIP3    H174374   3.405   5.018  12.906  0.5354 -0.5077 -0.7704
17653TIP3    H274375   3.369   4.907  13.002 -2.6427  0.7795 -0.3467
17654TIP3   OH274376   0.648   0.723  11.243 -0.0594  0.0895  0.1126
17654TIP3    H174377   0.640   0.627  11.242 -0.5439  0.0493  2.4158
17654TIP3    H274378   0.695   0.744  11.162 -0.3699 -2.0414 -0.6884
17655TIP3   OH274379   4.122   3.046   6.033  0.2740 -0.4676 -0.0509
17655TIP3    H174380   4.126   3.139   6.058 -2.2581  0.1895 -1.6683
17655TIP3    H274381   4.144   2.999   6.113 -1.5465  1.5422  1.7760
17656TIP3   OH274382   4.472   4.417  14.144 -0.0870 -0.2148 -0.1464
17656TIP3    H174383   4.411   4.345  14.129  0.7442 -0.7078 -1.3366
17656TIP3    H274384   4.559   4.376  14.144  0.3689  0.7125 -0.3337
17657TIP3   OH274385   0.417   4.857  16.407  0.0073 -0.3104  0.4081
17657TIP3    H174386   0.471   4.903  16.342 -1.5018  1.4985  0.3681
17657TIP3    H274387   0.361   4.924  16.444 -1.8952 -2.0318  0.8181
17658TIP3   OH274388   3.203   0.559   0.286  0.2878 -0.6848 -0.0139
17658TIP3    H174389   3.216   0.561   0.191 -1.8332 -0.1178 -0.3432
17658TIP3    H274390   3.217   0.650   0.313  0.8454 -0.8384  0.2194
17659TIP3   OH274391   3.421   6.730  14.004  0.2227 -0.0986  0.2958
17659TIP3    H174392   3.339   6.780  14.008  1.2759  1.8107 -0.6694
17659TIP3    H274393   3.414   6.678  13.924  0.5030  1.1537 -0.5721
17660TIP3   OH274394   0.427   1.594   0.401  0.1423 -0.0698  0.1374
17660TIP3    H174395   0.355   1.651   0.373 -2.0715 -2.2968  0.9191
17660TIP3    H274396   0.506   1.639   0.372 -1.4841  2.9237 -0.0613
17661TIP3   OH274397   0.751   2.563   3.379  0.5798 -0.3748  0.1151
17661TIP3    H174398   0.836   2.561   3.335  0.9834  0.1087  0.8372
17661TIP3    H274399   0.714   2.648   3.355 -0.2316 -1.0551 -1.1321
17662TIP3   OH274400   6.115   6.248   2.041 -0.2273  0.0256 -0.7927
17662TIP3    H174401   6.064   6.175   2.006  0.2536  0.2185 -1.9336
17662TIP3    H274402   6.088   6.323   1.988 -0.1882  0.5367 -0.1030
17663TIP3   OH274403   4.287   6.539  13.744 -0.3594  0.1057  0.0709
17663TIP3    H174404   4.270   6.492  13.662  3.7582 -0.1546 -0.8351
17663TIP3    H274405   4.361   6.493  13.784  0.2145  2.4931  1.9988
17664TIP3   OH274406   5.250   5.122   6.311  0.2271 -0.0214  0.2051
17664TIP3    H174407   5.194   5.126   6.233 -0.9481 -1.1842  0.9388
17664TIP3    H274408   5.228   5.037   6.351  0.9547  0.4613  1.6875
17665TIP3   OH274409   0.170   6.054   3.817 -0.7917 -0.1960  0.1413
17665TIP3    H174410   0.122   6.024   3.740 -1.9922  1.1364  0.3142
17665TIP3    H274411   0.109   6.041   3.890 -1.3800  2.4519  0.2262
17666TIP3   OH274412   4.755   4.541   1.964  0.1365  0.6155 -0.0818
17666TIP3    H174413   4.848   4.562   1.962  0.2142  0.4118  0.9485
17666TIP3    H274414   4.716   4.608   2.021 -0.4403  1.0135 -0.9172
17667TIP3   OH274415   1.925   4.039   6.127 -0.2913  0.0442  0.0282
17667TIP3    H174416   1.989   4.072   6.190  0.2993  0.5475 -0.8217
17667TIP3    H274417   1.868   3.982   6.179 -0.8167  1.7016  1.3684
17668TIP3   OH274418   4.749   0.585   5.201  0.0479  0.3889  0.3472
17668TIP3    H174419   4.781   0.497   5.218  1.4806  1.0193  1.1814
17668TIP3    H274420   4.790   0.610   5.118 -1.7444 -0.3293 -0.7942
17669TIP3   OH274421   5.848   0.250   5.487 -0.3660 -0.1283 -0.5788
17669TIP3    H174422   5.816   0.162   5.507 -1.3219  0.0625 -1.2023
17669TIP3    H274423   5.907   0.238   5.413 -0.0272 -0.3129 -0.2820
17670TIP3   OH274424   3.419   3.927   2.867  0.0151  0.3629 -0.0156
17670TIP3    H174425   3.465   3.932   2.951  1.0947  1.3860 -0.6398
17670TIP3    H274426   3.461   3.994   2.813 -2.0085  1.0995 -0.7376
17671TIP3   OH274427   4.584   0.503   2.909 -0.0169  0.4156  0.5145
17671TIP3    H174428   4.560   0.571   2.846  0.0531  1.2166  1.3276
17671TIP3    H274429   4.571   0.544   2.994  0.0368 -0.5984  1.0273
17672TIP3   OH274430   0.213   0.044   3.926  0.5333 -0.1796 -0.1528
17672TIP3    H174431   0.218   0.125   3.875  1.5941 -0.8885 -1.2307
17672TIP3    H274432   0.134   0.001   3.894  1.0071 -0.4589 -0.9919
17673TIP3   OH274433   5.444   3.133  14.068 -0.0473  0.2710 -0.0762
17673TIP3    H174434   5.465   3.166  13.981  0.1891 -2.5950 -1.2103
17673TIP3    H274435   5.403   3.048  14.052 -1.0963  0.1769  2.6026
17674TIP3   OH274436   1.440   4.648   0.074  0.2979 -0.0128  0.0062
17674TIP3    H174437   1.388   4.587   0.125  1.1022 -1.8215 -1.2381
17674TIP3    H274438   1.391   4.658  -0.008 -0.0996  1.4888  0.3938
17675TIP3   OH274439   0.425   1.349   1.734 -0.1914  0.3184  0.1377
17675TIP3    H174440   0.481   1.274   1.758 -2.0793 -1.2224  0.0137
17675TIP3    H274441   0.421   1.346   1.639 -1.4110 -0.3583  0.1874
17676TIP3   OH274442   6.665   5.805   0.526 -0.4049  0.4415  0.1295
17676TIP3    H174443   6.641   5.725   0.574 -0.1960  0.6152  0.5299
17676TIP3    H274444   6.734   5.777   0.467 -0.0958  0.3947  0.5106
17677TIP3   OH274445   1.363   6.582  13.239  0.4906 -0.0074 -0.0088
17677TIP3    H174446   1.400   6.493  13.236  1.5517  0.4185 -0.0882
17677TIP3    H274447   1.313   6.590  13.158  0.7720 -0.3833 -0.2240
17678TIP3   OH274448   1.997   5.308  14.106 -0.7230  0.2071  0.3062
17678TIP3    H174449   2.057   5.381  14.092  1.3372 -0.9359  2.4569
17678TIP3    H274450   1.911   5.349  14.115 -0.0818  2.0562 -1.2852
17679TIP3   OH274451   2.075   0.458  14.201  0.3777 -0.1421 -0.2732
17679TIP3    H174452   2.112   0.532  14.153 -1.1542  0.9417  0.1527
17679TIP3    H274453   2.107   0.468  14.290 -0.4481  0.4987 -0.0288
17680TIP3   OH274454   6.564   6.195  16.264  0.1515 -0.4563 -0.4826
17680TIP3    H174455   6.592   6.235  16.346 -2.5608  0.2080  0.2193
17680TIP3    H274456   6.645   6.180  16.215  1.6705  0.9813  1.4575
17681TIP3   OH274457   0.979   6.187   0.483  0.4955  0.4439 -0.0101
17681TIP3    H174458   0.992   6.183   0.578  0.9686 -0.8098 -0.1013
17681TIP3    H274459   0.892   6.224   0.471 -0.8524 -2.1751  1.0368
17682TIP3   OH274460   4.946   3.036   5.835 -0.0631 -0.1557 -0.3926
17682TIP3    H174461   5.018   3.085   5.795 -0.2931 -1.0564 -1.9884
17682TIP3    H274462   4.972   2.944   5.828  0.2897 -0.3409  2.4120
17683TIP3   OH274463   4.039   3.242   0.204 -0.5462 -0.3964 -0.4068
17683TIP3    H174464   3.978   3.298   0.156 -0.3394 -1.1097 -1.5449
17683TIP3    H274465   4.107   3.220   0.140  0.1534 -0.7508  0.4423
17684TIP3   OH274466   3.782   6.022  13.763  0.1570 -0.2881 -0.1847
17684TIP3    H174467   3.813   5.990  13.678  0.0183 -4.3658  1.1204
17684TIP3    H274468   3.689   6.000  13.765 -0.4524  2.0518  0.1540
17685TIP3   OH274469   0.415   2.003   0.225  0.4949  0.4748  0.0040
17685TIP3    H174470   0.467   2.067   0.175  1.7667  0.2891  1.0523
17685TIP3    H274471   0.459   1.919   0.209  0.5590  0.3252  0.9537
17686TIP3   OH274472   3.398   2.895  17.370  0.1998  0.1558 -0.6326
17686TIP3    H174473   3.414   2.938  17.286  0.1367 -0.6738 -1.0818
17686TIP3    H274474   3.413   2.802  17.353 -0.9427 -0.1676 -0.0234
17687TIP3   OH274475   3.075   1.196  11.634 -0.3435  0.0407 -0.6154
17687TIP3    H174476   3.157   1.188  11.585 -1.4453 -1.7294 -2.3366
17687TIP3    H274477   3.062   1.290  11.645  1.5730  0.3752 -0.8969
17688TIP3   OH274478   4.873   4.776  12.347 -0.0403 -0.3765 -0.3439
17688TIP3    H174479   4.790   4.816  12.320 -0.2234 -0.5813 -0.0857
17688TIP3    H274480   4.940   4.836  12.315 -0.3312  0.4115  0.4924
17689TIP3   OH274481   4.577   5.130  12.543 -0.6175  0.5926 -0.0650
17689TIP3    H174482   4.551   5.039  12.531 -0.2413  0.5260 -0.3872
17689TIP3    H274483   4.539   5.176  12.468 -1.5651  0.8635  0.5641
17690TIP3   OH274484   4.648   0.914  12.029  0.3200  0.0840  0.6932
17690TIP3    H174485   4.572   0.867  11.994 -0.8627  1.3131  1.5397
17690TIP3    H274486   4.624   0.935  12.119  1.4515  0.9780  0.8076
17691TIP3   OH274487   3.548   6.381   4.525 -0.0526  0.1327  0.0801
17691TIP3    H174488   3.605   6.426   4.588  2.0601 -0.5405 -1.2410
17691TIP3    H274489   3.501   6.451   4.480  0.1627  0.7514  0.8037
17692TIP3   OH274490   5.771   3.628  11.937  0.4840 -0.6912  0.0352
17692TIP3    H174491   5.804   3.544  11.966  0.1877 -0.4539  1.1229
17692TIP3    H274492   5.717   3.608  11.861  0.1196 -1.5290  0.5004
17693TIP3   OH274493   3.722   0.746  13.223  0.2716 -0.2250 -0.3423
17693TIP3    H174494   3.815   0.760  13.208  0.3662 -0.7827 -0.2911
17693TIP3    H274495   3.699   0.672  13.168 -0.4792  0.8214 -1.4869
17694TIP3   OH274496   0.590   4.075   1.710  0.5165 -0.5666  0.2305
17694TIP3    H174497   0.528   4.141   1.679  0.5376 -0.1883  0.9637
17694TIP3    H274498   0.559   3.993   1.672 -0.4315 -0.3875  0.5906
17695TIP3   OH274499   2.427   6.353  14.755  0.3929 -0.2142 -0.1549
17695TIP3    H174500   2.409   6.422  14.818 -3.2283 -0.7723 -0.4043
17695TIP3    H274501   2.423   6.397  14.670 -1.6856 -0.5995 -0.3005
17696TIP3   OH274502   1.055   1.426   5.916  0.4943  0.7456  0.4103
17696TIP3    H174503   1.139   1.383   5.898  0.1177 -0.2890  1.0539
17696TIP3    H274504   1.075   1.487   5.987  0.2765 -1.1963  2.2703
17697TIP3   OH274505   6.046   3.063   6.016 -0.1416  0.6608  0.1948
17697TIP3    H174506   6.117   3.061   6.080 -1.4448 -1.9613  1.7464
17697TIP3    H274507   6.058   2.983   5.965 -1.5839  0.5068  0.0601
17698TIP3   OH274508   1.967   5.278  13.235 -0.0311  0.3374 -0.1699
17698TIP3    H174509   1.900   5.307  13.297 -1.1329 -2.0145 -0.1872
17698TIP3    H274510   1.974   5.184  13.248  2.6880  0.3527 -0.7871
17699TIP3   OH274511   0.416   0.617   5.118 -0.1309  0.4893  0.7089
17699TIP3    H174512   0.347   0.667   5.161  0.5224  0.8056  1.4036
17699TIP3    H274513   0.398   0.526   5.142 -1.0714  0.4071 -0.2074
17700TIP3   OH274514   4.673   2.428  17.355  0.4504  0.3897 -0.0356
17700TIP3    H174515   4.684   2.522  17.339  0.3093  0.4365  0.1311
17700TIP3    H274516   4.598   2.404  17.300  0.2379  0.4599  0.2183
17701TIP3   OH274517   2.078   2.244   5.536  0.3069 -0.2283  0.4163
17701TIP3    H174518   2.111   2.333   5.522  0.8185 -0.2684  1.2889
17701TIP3    H274519   2.025   2.251   5.615 -1.9379 -0.1393 -1.0036
17702TIP3   OH274520   2.686   2.055   5.556  0.3088  1.0085 -0.1638
17702TIP3    H174521   2.705   2.091   5.642 -0.1611 -0.5809  0.6459
17702TIP3    H274522   2.759   1.996   5.537 -0.3070  0.2209 -0.1650
17703TIP3   OH274523   4.506   6.242   3.615 -0.2435  0.2723 -0.4191
17703TIP3    H174524   4.488   6.330   3.647  0.5301  0.4031 -0.3033
17703TIP3    H274525   4.421   6.207   3.590 -0.6366  0.8233  0.1167
17704TIP3   OH274526   3.385   6.041   5.279  0.2392  0.4037 -0.4014
17704TIP3    H174527   3.323   6.110   5.303 -1.6862 -1.1887 -0.5609
17704TIP3    H274528   3.417   6.008   5.363  0.0101  0.4733 -0.2865
17705TIP3   OH274529   0.818   1.144  14.805  0.2821  0.1374  0.7291
17705TIP3    H174530   0.746   1.103  14.757  0.0114 -0.1063  1.3472
17705TIP3    H274531   0.897   1.107  14.764  0.0722  0.4808 -0.0136
17706TIP3   OH274532   5.309   4.021   2.066  0.2379  0.3795  0.1525
17706TIP3    H174533   5.283   4.111   2.089 -0.2947  0.1202  0.5810
17706TIP3    H274534   5.303   3.973   2.148 -0.5665 -0.3027 -0.2933
17707TIP3   OH274535   1.767   1.637   3.373 -0.1336 -0.2022 -0.0372
17707TIP3    H174536   1.724   1.689   3.440  1.0705 -0.1908  0.7505
17707TIP3    H274537   1.859   1.662   3.378  0.1851 -1.1482 -0.8120
17708TIP3   OH274538   3.019   2.509   5.874 -0.6054 -0.6116 -0.0750
17708TIP3    H174539   3.006   2.463   5.957  1.5278  1.3612  1.4917
17708TIP3    H274540   3.087   2.460   5.829 -0.0645 -0.3576  0.4615
17709TIP3   OH274541   5.527   5.227  10.844  0.0077 -0.0176 -0.4178
17709TIP3    H174542   5.606   5.193  10.802  1.6052  1.6112  1.1306
17709TIP3    H274543   5.499   5.157  10.903 -0.1268 -0.8610 -1.4440
17710TIP3   OH274544   6.557   3.858  12.591  0.1583 -0.4607  0.1370
17710TIP3    H174545   6.515   3.883  12.672  0.3518  0.2312  0.0288
17710TIP3    H274546   6.529   3.767  12.576 -1.4046  0.0258 -0.0187
17711TIP3   OH274547   2.981   5.046   4.352  0.3048 -0.1264  0.0899
17711TIP3    H174548   3.030   5.128   4.345  1.1521 -0.6110  0.2594
17711TIP3    H274549   2.940   5.050   4.438  0.9216 -0.1837  0.3947
17712TIP3   OH274550   2.608   4.320   1.844 -0.3546 -0.4521  0.2552
17712TIP3    H174551   2.598   4.383   1.773 -0.9004 -0.6288  0.1666
17712TIP3    H274552   2.561   4.359   1.918  3.9239  1.9419  2.0753
17713TIP3   OH274553   4.540   6.296   3.225 -0.0945  0.4634 -0.2783
17713TIP3    H174554   4.569   6.345   3.302  0.1508  0.6988 -0.5192
17713TIP3    H274555   4.558   6.354   3.151 -2.0053  0.9978 -0.3882
17714TIP3   OH274556   4.465   2.878  13.031 -0.1223 -0.1369  0.2541
17714TIP3    H174557   4.512   2.845  12.955 -2.7879 -0.3389 -1.4428
17714TIP3    H274558   4.437   2.966  13.006 -0.4790  0.0573  1.2592
17715TIP3   OH274559   6.236   6.029  13.821  0.4218  0.1490 -0.7018
17715TIP3    H174560   6.204   6.027  13.912  0.8021  0.5204 -0.5526
17715TIP3    H274561   6.262   5.939  13.803  2.1789  0.4023  0.2509
17716TIP3   OH274562   4.730   4.393   5.733 -0.0411  0.1831 -0.5984
17716TIP3    H174563   4.815   4.355   5.708 -1.0445 -2.2929 -0.5007
17716TIP3    H274564   4.745   4.429   5.821  1.0555  0.4231 -0.8581
17717TIP3   OH274565   1.914   0.330   2.322  0.3744  0.4728 -0.1620
17717TIP3    H174566   1.914   0.347   2.228 -2.4584  1.6683 -0.0615
17717TIP3    H274567   1.880   0.241   2.330  0.8993  0.2602 -0.2675
17718TIP3   OH274568   4.317   0.687  17.285 -0.4721 -0.4530 -0.0096
17718TIP3    H174569   4.229   0.650  17.297 -0.1343 -1.7063 -1.1173
17718TIP3    H274570   4.314   0.771  17.329 -2.7021  0.2069 -1.2750
17719TIP3   OH274571   5.521   2.483   4.375  0.0987 -0.0139  0.0503
17719TIP3    H174572   5.527   2.391   4.401  0.9267  0.4736  1.7239
17719TIP3    H274573   5.606   2.520   4.399 -0.2320  1.1945 -0.5986
17720TIP3   OH274574   3.925   1.318   4.623 -0.0147 -0.5313  0.1233
17720TIP3    H174575   3.876   1.308   4.705  0.4343 -0.8383  0.3572
17720TIP3    H274576   3.988   1.388   4.642 -1.5792  1.2354 -0.7637
17721TIP3   OH274577   4.037   2.259  11.966  0.0998 -0.0024 -0.3000
17721TIP3    H174578   4.048   2.194  11.897  1.7648  0.7008 -0.7420
17721TIP3    H274579   4.126   2.277  11.997 -0.3441  1.7731  0.0755
17722TIP3   OH274580   6.640   3.528  13.192  0.1512 -0.4163 -0.5728
17722TIP3    H174581   6.733   3.531  13.173  0.3737  0.2574  0.5344
17722TIP3    H274582   6.633   3.471  13.269 -0.2426  0.2413 -0.1125
17723TIP3   OH274583   3.221   5.119   4.984  0.2393 -0.4620  0.0293
17723TIP3    H174584   3.209   5.047   4.922 -0.0450 -0.3322 -0.0708
17723TIP3    H274585   3.133   5.136   5.018  0.6666 -1.8290  1.9448
17724TIP3   OH274586   2.608   4.112  11.601  0.1671 -0.4119 -0.1075
17724TIP3    H174587   2.686   4.151  11.642  1.6245 -2.1637 -1.0710
17724TIP3    H274588   2.563   4.186  11.560  1.2454  0.6713  0.5720
17725TIP3   OH274589   3.946   0.792   2.856 -0.0031 -0.0050  0.4232
17725TIP3    H174590   3.902   0.732   2.916  1.1751 -1.0990  0.2427
17725TIP3    H274591   3.876   0.825   2.799 -0.6927 -1.1437  0.5877
17726TIP3   OH274592   3.589   2.944  14.567  0.1533 -0.4144  0.6499
17726TIP3    H174593   3.526   2.914  14.502  0.0241  1.9377 -0.4273
17726TIP3    H274594   3.661   2.980  14.515 -0.5938  2.8798  1.6577
17727TIP3   OH274595   4.383   0.252  17.226 -0.0023  0.0298  0.2111
17727TIP3    H174596   4.364   0.315  17.295 -0.2877  0.1024  0.0706
17727TIP3    H274597   4.297   0.223  17.196  0.1202 -0.0901 -0.0306
17728TIP3   OH274598   3.482   5.811   3.019 -0.0513 -0.2352 -0.3412
17728TIP3    H174599   3.519   5.875   2.959 -2.2568  0.3876 -1.1421
17728TIP3    H274600   3.491   5.727   2.974  3.0414 -0.6225  0.8042
17729TIP3   OH274601   0.818   4.055  12.309 -1.0411  0.0647 -0.2288
17729TIP3    H174602   0.897   4.090  12.269 -1.2216  0.2529 -0.4250
17729TIP3    H274603   0.842   3.966  12.336 -0.5041  0.4206  0.5105
17730TIP3   OH274604   4.910   3.071  12.105  0.5482  0.3339 -0.5820
17730TIP3    H174605   4.954   3.107  12.028  0.5193  0.5504 -0.4968
17730TIP3    H274606   4.820   3.056  12.076  0.3153  1.2329 -0.3336
17731TIP3   OH274607   4.395   0.704   0.771  0.0531  0.1597 -0.3540
17731TIP3    H174608   4.371   0.790   0.738 -2.3842  0.3731  1.6168
17731TIP3    H274609   4.321   0.648   0.747 -0.1048 -0.4817  1.4557
17732TIP3   OH274610   3.278   1.043   3.032 -0.0839 -0.3828 -0.5683
17732TIP3    H174611   3.212   1.113   3.028 -0.1217 -0.4260 -0.7078
17732TIP3    H274612   3.268   0.997   2.949 -1.3826 -1.7532  0.2939
17733TIP3   OH274613   5.251   2.781  11.170  0.1491 -0.1344 -0.1826
17733TIP3    H174614   5.335   2.781  11.124  0.5815  0.0400  0.5758
17733TIP3    H274615   5.196   2.840  11.120 -0.2434 -1.9144 -1.9350
17734TIP3   OH274616   6.293   0.701  14.536  0.6041 -0.3456  0.5848
17734TIP3    H174617   6.362   0.697  14.602  0.2498  1.1596  1.0875
17734TIP3    H274618   6.311   0.781  14.487 -0.6897  0.0176  0.6544
17735TIP3   OH274619   5.434   3.703   4.285 -0.6318  0.3490 -0.4731
17735TIP3    H174620   5.499   3.758   4.328  0.2938 -1.7522  0.9973
17735TIP3    H274621   5.433   3.622   4.336 -0.6587 -1.7185 -3.4664
17736TIP3   OH274622   2.999   1.199  15.494  0.5066 -0.4714 -0.8762
17736TIP3    H174623   3.024   1.286  15.525  0.8586 -0.8877  0.0593
17736TIP3    H274624   3.081   1.160  15.464  0.5002 -0.7791 -0.5033
17737TIP3   OH274625   1.517   0.042   5.269  0.6591  0.4841 -0.3945
17737TIP3    H174626   1.463  -0.023   5.224  1.2309  0.7154 -1.4446
17737TIP3    H274627   1.474   0.055   5.353 -0.3889 -0.0341 -0.8360
17738TIP3   OH274628   4.258   4.674   5.089 -0.4336 -0.7723  0.1733
17738TIP3    H174629   4.324   4.679   5.159 -1.1452  0.5782  0.7944
17738TIP3    H274630   4.292   4.609   5.028  1.6114  0.0476  0.3544
17739TIP3   OH274631   3.731   5.368  12.172 -0.4223 -0.0920 -0.3896
17739TIP3    H174632   3.813   5.416  12.155 -0.3073  0.1104  0.6576
17739TIP3    H274633   3.663   5.422  12.130 -0.1080  0.1362 -0.6142
17740TIP3   OH274634   5.158   0.978   5.562 -0.3419  0.0038 -0.3686
17740TIP3    H174635   5.246   0.948   5.583  0.1490  2.2729  1.2271
17740TIP3    H274636   5.152   0.973   5.467  1.1533 -1.0661 -0.4365
17741TIP3   OH274637   6.285   2.904   3.578  0.0493 -0.1225 -0.1173
17741TIP3    H174638   6.282   2.993   3.544 -0.2950 -0.3891 -0.7885
17741TIP3    H274639   6.339   2.855   3.516  0.9550 -0.1963  0.7040
17742TIP3   OH274640   1.151   0.986   3.962  0.2031  0.4843  0.2040
17742TIP3    H174641   1.137   0.896   3.990  1.5737  0.4065  0.7033
17742TIP3    H274642   1.235   0.984   3.916 -0.0889  1.3761 -0.3803
17743TIP3   OH274643   1.847   3.969  15.399  0.3463  0.0498  0.0833
17743TIP3    H174644   1.927   3.919  15.412 -0.1208 -0.9479 -0.7077
17743TIP3    H274645   1.877   4.060  15.392  1.8086 -0.5133 -2.9302
17744TIP3   OH274646   0.253   1.932  16.900 -0.4876 -0.0833 -0.3601
17744TIP3    H174647   0.268   1.982  16.980  0.9165  0.9477 -1.2375
17744TIP3    H274648   0.331   1.877  16.891 -0.9637 -0.7317 -0.6601
17745TIP3   OH274649   4.279   3.088   2.343 -0.5408  0.0994  1.2413
17745TIP3    H174650   4.233   3.066   2.424 -2.2578 -0.4008  0.1782
17745TIP3    H274651   4.279   3.006   2.293 -0.4813  0.6730  0.2776
17746TIP3   OH274652   0.353   4.131  12.521  0.6864 -0.3516  0.0705
17746TIP3    H174653   0.302   4.118  12.441 -0.1736  1.6276  0.2288
17746TIP3    H274654   0.432   4.175  12.492 -0.1457  1.4296  0.3803
17747TIP3   OH274655   1.899   4.383   2.198  0.0587  0.1976  0.5600
17747TIP3    H174656   1.913   4.333   2.279 -0.5415  1.1891  1.3053
17747TIP3    H274657   1.819   4.347   2.160  0.8354 -0.8897 -0.1003
17748TIP3   OH274658   1.556   5.755   3.091  0.2650  0.2376  0.1970
17748TIP3    H174659   1.623   5.823   3.084 -0.5470  1.0728  0.3671
17748TIP3    H274660   1.590   5.695   3.157  1.1324  0.3092 -0.1694
17749TIP3   OH274661   2.346   2.142  16.255 -0.3257 -0.4765 -0.6801
17749TIP3    H174662   2.437   2.140  16.228 -0.0473 -2.7262  0.2634
17749TIP3    H274663   2.336   2.227  16.298  1.4815 -0.4253 -0.2981
17750TIP3   OH274664   1.562   4.344  15.148 -0.0851 -0.5861  0.7348
17750TIP3    H174665   1.515   4.327  15.067  2.7675 -1.0009 -0.9593
17750TIP3    H274666   1.573   4.439  15.150 -1.1149 -0.4654  1.2512
17751TIP3   OH274667   5.709   6.217   3.929  0.0249  0.1432 -0.3674
17751TIP3    H174668   5.659   6.295   3.906 -0.0008 -0.2715 -1.8292
17751TIP3    H274669   5.713   6.218   4.025 -2.9674  0.0851 -0.1388
17752TIP3   OH274670   5.087   4.386   2.432 -0.2156  0.4847  0.0916
17752TIP3    H174671   5.036   4.436   2.369  0.5758  0.3210 -0.7040
17752TIP3    H274672   5.140   4.327   2.378  0.3214  0.1884  0.9197
17753TIP3   OH274673   6.362   3.948  16.258  0.0727  0.5365  0.2533
17753TIP3    H174674   6.316   4.029  16.241 -2.5561 -0.8440  0.3385
17753TIP3    H274675   6.337   3.890  16.185  0.5539 -0.7081  1.0405
17754TIP3   OH274676   1.407   2.085  14.276  0.0814  0.1814 -0.0606
17754TIP3    H174677   1.418   2.154  14.342 -0.7315 -0.6174  0.9448
17754TIP3    H274678   1.329   2.038  14.304  0.5145 -1.0367 -0.8437
17755TIP3   OH274679   5.246   0.663  12.839  0.1867  0.4373  0.1571
17755TIP3    H174680   5.312   0.672  12.908 -1.8497 -0.9360  2.4628
17755TIP3    H274681   5.281   0.597  12.780  1.6720  1.1318  0.2221
17756TIP3   OH274682   6.021   2.288  16.406 -0.5114  0.2117 -0.6649
17756TIP3    H174683   6.110   2.320  16.390 -0.0505 -0.8136 -0.2172
17756TIP3    H274684   5.981   2.354  16.461 -0.1933  0.9206 -1.2650
17757TIP3   OH274685   0.387   1.086  13.289  0.2869 -0.0058 -0.7469
17757TIP3    H174686   0.387   1.027  13.213 -1.8120  0.7293 -1.4081
17757TIP3    H274687   0.425   1.167  13.256 -0.8266  0.3857 -1.1219
17758TIP3   OH274688   1.123   2.047  11.141 -0.1018 -0.2354 -0.8677
17758TIP3    H174689   1.180   2.109  11.095 -0.5315  0.5725 -0.3380
17758TIP3    H274690   1.182   1.996  11.195  0.1331  0.5716 -0.3509
17759TIP3   OH274691   4.061   5.215   4.678 -0.2561  0.2497  0.1016
17759TIP3    H174692   4.001   5.144   4.653 -1.1201  1.0963 -0.2711
17759TIP3    H274693   4.021   5.254   4.755  0.8297 -0.3902  1.0267
17760TIP3   OH274694   3.370   6.386  11.721  0.1660 -0.5378  0.8841
17760TIP3    H174695   3.400   6.309  11.673  1.0329  1.7697 -2.7019
17760TIP3    H274696   3.442   6.407  11.780  1.6513 -0.3923 -0.8833
17761TIP3   OH274697   3.297   0.015   3.913 -0.2120  0.0016  0.0343
17761TIP3    H174698   3.255  -0.020   3.834  1.4893  1.5075 -1.6510
17761TIP3    H274699   3.224   0.038   3.970 -1.8503  2.5138 -2.7465
17762TIP3   OH274700   5.920   5.011   3.722 -0.1600  0.0079  0.1367
17762TIP3    H174701   5.840   4.997   3.672 -0.5692 -1.1575  1.0747
17762TIP3    H274702   5.930   5.106   3.726 -0.1517  0.1476 -2.0430
17763TIP3   OH274703   1.636   1.313  15.710 -0.2246  0.2933 -0.1407
17763TIP3    H174704   1.721   1.339  15.675  0.1737  0.3223  0.8274
17763TIP3    H274705   1.614   1.381  15.773 -0.3083 -0.4277  0.6344
17764TIP3   OH274706   6.576   1.303  11.271  0.0426  0.0554  0.3032
17764TIP3    H174707   6.576   1.359  11.194 -0.9645  0.5546  0.6465
17764TIP3    H274708   6.489   1.263  11.272  0.6504 -1.3332  0.2090
17765TIP3   OH274709   6.586   0.257   0.081  0.0370 -0.2502 -0.1880
17765TIP3    H174710   6.646   0.183   0.084  0.1323 -0.2337 -1.1047
17765TIP3    H274711   6.539   0.246  -0.002  0.3554  0.9236 -0.5526
17766TIP3   OH274712   1.259   3.819   2.389  0.1275  0.0920 -0.0911
17766TIP3    H174713   1.199   3.752   2.358  0.0258  0.0600  0.1754
17766TIP3    H274714   1.346   3.780   2.380  0.1108  0.1392 -0.4780
17767TIP3   OH274715   2.180   6.180  14.276  0.5061 -0.0457  0.4200
17767TIP3    H174716   2.116   6.124  14.232  2.0576 -0.6577 -1.1654
17767TIP3    H274717   2.248   6.120  14.305  0.9047  0.7191  1.1066
17768TIP3   OH274718   4.536   3.009  16.154 -0.2920 -0.1084 -0.0166
17768TIP3    H174719   4.569   3.087  16.198  0.0638  0.3902 -1.1221
17768TIP3    H274720   4.612   2.974  16.108 -1.3122  1.5154 -3.2819
17769TIP3   OH274721   0.188   5.680   3.585  0.4062  0.3758  0.2488
17769TIP3    H174722   0.263   5.724   3.625  0.5546 -0.6951  1.2188
17769TIP3    H274723   0.140   5.644   3.659 -1.3897  1.4844 -0.3184
17770TIP3   OH274724   4.518   3.614  16.344  0.2772 -0.1128 -0.4080
17770TIP3    H174725   4.611   3.615  16.364 -0.2760  1.2155  2.7566
17770TIP3    H274726   4.502   3.697  16.298  0.4220  0.5763  0.7363
17771TIP3   OH274727   4.973   0.263  13.239  0.0601  0.1165 -0.3765
17771TIP3    H174728   5.022   0.183  13.257  0.5286  0.3086 -0.7717
17771TIP3    H274729   4.965   0.265  13.143  0.3750  0.7309 -0.3891
17772TIP3   OH274730   2.160   5.724   1.614 -0.2240 -0.7151 -0.6290
17772TIP3    H174731   2.234   5.670   1.588  1.0779 -1.2823  3.5326
17772TIP3    H274732   2.088   5.662   1.624 -0.3792 -0.6817 -1.4294
17773TIP3   OH274733   6.016   4.820   1.265 -0.1331  0.1109 -0.2653
17773TIP3    H174734   6.104   4.816   1.304 -1.3284  1.0093  2.8520
17773TIP3    H274735   6.026   4.880   1.191  2.0005 -0.3083 -0.3929
17774TIP3   OH274736   2.671   2.597   4.201  0.1905  0.0241 -0.3838
17774TIP3    H174737   2.681   2.513   4.158  0.3210 -0.2317  0.1398
17774TIP3    H274738   2.734   2.595   4.273  0.2350  0.5914 -0.4023
17775TIP3   OH274739   0.640   2.363   4.584  0.1187  0.1311 -0.5582
17775TIP3    H174740   0.619   2.400   4.498 -0.7429  2.0824  0.4399
17775TIP3    H274741   0.618   2.432   4.646  0.7864 -1.2088  1.2501
17776TIP3   OH274742   5.714   2.777   2.742 -0.1324  0.0946 -0.0072
17776TIP3    H174743   5.623   2.746   2.748 -0.4340  0.7076 -0.9765
17776TIP3    H274744   5.715   2.829   2.661  1.6548 -1.7450 -1.2338
17777TIP3   OH274745   0.811   1.356   3.473  0.8613  0.4025  0.1742
17777TIP3    H174746   0.744   1.307   3.520  0.3056 -0.7438 -1.6780
17777TIP3    H274747   0.878   1.291   3.452  1.1251  0.8863 -0.5293
17778TIP3   OH274748   1.840   4.020   3.253  0.1453  0.1922  0.1649
17778TIP3    H174749   1.886   4.021   3.169 -0.8368 -0.5325 -0.4027
17778TIP3    H274750   1.828   4.112   3.275 -1.2677  0.4313 -1.4556
17779TIP3   OH274751   6.006   6.536   1.183 -0.5287 -0.0031 -0.0941
17779TIP3    H174752   6.086   6.573   1.221 -0.2993  0.9704 -1.4366
17779TIP3    H274753   5.958   6.500   1.258  1.0021 -0.3140  0.7776
17780TIP3   OH274754   3.368   4.543   5.172  0.0624 -0.0590 -0.1568
17780TIP3    H174755   3.394   4.457   5.138  3.2414  0.1923  1.2027
17780TIP3    H274756   3.410   4.547   5.259  0.1293  2.8746 -0.2490
17781TIP3   OH274757   5.773   5.764   5.873 -0.1799  0.4152  0.6090
17781TIP3    H174758   5.697   5.780   5.817 -0.0154  1.7596  0.7165
17781TIP3    H274759   5.763   5.674   5.903 -1.0048  0.1300 -0.4690
17782TIP3   OH274760   2.859   0.299  14.092 -0.0934 -0.4678 -0.1308
17782TIP3    H174761   2.894   0.218  14.127  0.2345  0.4261  1.7439
17782TIP3    H274762   2.925   0.365  14.114 -0.8127  0.4705 -0.7217
17783TIP3   OH274763   0.498   4.906  12.887 -0.0896  0.2558  0.2831
17783TIP3    H174764   0.509   4.864  12.801  1.5314 -0.3568  0.7367
17783TIP3    H274765   0.580   4.886  12.933 -0.4515  1.5593  1.5571
17784TIP3   OH274766   6.050   0.273   3.774  0.3526  0.3153 -0.1937
17784TIP3    H174767   6.144   0.283   3.760  0.1727  2.8787 -0.0609
17784TIP3    H274768   6.043   0.232   3.860  1.3143 -0.7340 -0.5795
17785TIP3   OH274769   4.199   2.202  13.709  0.9984 -0.2695  0.4121
17785TIP3    H174770   4.163   2.282  13.746  0.1734 -0.3163 -0.2513
17785TIP3    H274771   4.260   2.169  13.775 -0.0241 -0.0617  1.4830
17786TIP3   OH274772   4.547   0.608   2.378  0.1487  0.0387  0.0962
17786TIP3    H174773   4.491   0.533   2.359 -1.7166  0.9475  1.5575
17786TIP3    H274774   4.631   0.570   2.405 -0.1343 -1.4198 -0.9634
17787TIP3   OH274775   5.892   2.446  13.056  0.1205  0.1829 -0.3116
17787TIP3    H174776   5.945   2.515  13.016  0.1328  0.2661 -0.1549
17787TIP3    H274777   5.934   2.429  13.140  0.2644 -0.1970 -0.4559
17788TIP3   OH274778   5.803   5.060   5.469 -0.1001  0.6908 -0.5318
17788TIP3    H174779   5.887   5.099   5.445 -0.7121  1.0445 -2.2621
17788TIP3    H274780   5.738   5.120   5.432 -1.2017  1.6273  2.6347
17789TIP3   OH274781   3.764   1.736  14.396  0.2061  0.3463  0.0107
17789TIP3    H174782   3.702   1.804  14.421  1.6848  1.3249  1.1586
17789TIP3    H274783   3.824   1.729  14.470  1.9158 -0.0264 -1.3230
17790TIP3   OH274784   6.117   6.453   1.821 -0.2398  0.2042 -0.8510
17790TIP3    H174785   6.116   6.457   1.725 -1.6061 -0.7507 -0.9122
17790TIP3    H274786   6.025   6.458   1.846  0.1605  1.5220  0.4949
17791TIP3   OH274787   0.229   6.107   5.496 -0.1883 -0.2069 -0.1125
17791TIP3    H174788   0.203   6.024   5.455 -2.4422  0.1679  0.4359
17791TIP3    H274789   0.159   6.168   5.473  0.2022  0.9019  1.4991
17792TIP3   OH274790   6.013   3.602  16.458  0.4277 -0.5398  0.1161
17792TIP3    H174791   6.051   3.642  16.380  2.7779 -2.4704  0.1213
17792TIP3    H274792   5.919   3.601  16.442  0.7229  0.4783 -1.9934
17793TIP3   OH274793   1.478   2.870   1.176 -0.4204 -0.2125 -0.1909
17793TIP3    H174794   1.485   2.775   1.171 -2.1529 -0.3419 -0.9490
17793TIP3    H274795   1.475   2.889   1.270  3.6106 -0.4890  0.1847
17794TIP3   OH274796   0.318   0.441  14.943 -0.3151 -0.0115  0.2950
17794TIP3    H174797   0.267   0.363  14.964 -0.0395 -0.0564  0.8156
17794TIP3    H274798   0.400   0.431  14.992 -0.1431  0.4539  0.1181
17795TIP3   OH274799   5.456   2.048  15.728 -0.4137  0.9384  0.0225
17795TIP3    H174800   5.543   2.028  15.693  0.5264 -0.1800  2.7142
17795TIP3    H274801   5.463   2.030  15.822 -3.2184  2.0392  0.5560
17796TIP3   OH274802   5.930   6.077   2.631  0.1591 -0.2812  0.2257
17796TIP3    H174803   5.847   6.040   2.661  0.2256  0.7921  1.8722
17796TIP3    H274804   5.908   6.124   2.550 -0.6798 -0.5973  0.2614
17797TIP3   OH274805   4.575   6.691  11.353 -0.2100 -0.2116  0.4928
17797TIP3    H174806   4.637   6.723  11.288  0.4325 -1.2420  0.5841
17797TIP3    H274807   4.559   6.767  11.409 -0.4484  0.5684 -0.5958
17798TIP3   OH274808   0.925   1.499  16.792 -0.1089 -0.3209 -0.1545
17798TIP3    H174809   0.925   1.582  16.743 -0.4804 -1.1600 -1.6434
17798TIP3    H274810   1.005   1.455  16.763 -0.3126 -0.8121  0.0287
17799TIP3   OH274811   1.457   1.287   6.691 -0.4775 -0.1649  0.5056
17799TIP3    H174812   1.373   1.294   6.644 -1.4338  0.7148  2.2223
17799TIP3    H274813   1.446   1.211   6.748  1.4137 -2.4473 -1.9574
17800TIP3   OH274814   0.353   6.709   1.336  0.2551  0.0649 -0.2318
17800TIP3    H174815   0.375   6.785   1.283 -0.5155  2.7998  3.0658
17800TIP3    H274816   0.258   6.700   1.327 -0.0091  1.0878  1.2337
17801TIP3   OH274817   5.192   0.631   4.052 -0.0600  0.7325  0.6798
17801TIP3    H174818   5.284   0.648   4.071  1.0164 -3.0592 -0.1397
17801TIP3    H274819   5.184   0.646   3.958  0.0463  0.0380  0.5527
17802TIP3   OH274820   1.237   3.450  11.547  0.1025 -0.0959 -0.6660
17802TIP3    H174821   1.212   3.472  11.457  1.4278  1.6091 -0.6743
17802TIP3    H274822   1.162   3.479  11.600 -0.4631 -0.6330 -1.1426
17803TIP3   OH274823   1.207   2.022   4.837 -0.4040  0.3892 -0.0276
17803TIP3    H174824   1.247   2.060   4.759 -0.0134 -2.2061 -1.1818
17803TIP3    H274825   1.269   2.041   4.907  0.7230  0.1975 -0.9398
17804TIP3   OH274826   5.974   1.281   6.116  0.5279  0.3896 -0.0217
17804TIP3    H174827   5.920   1.340   6.169  0.1295 -2.0807  2.6344
17804TIP3    H274828   6.008   1.217   6.180  5.3748  0.8156 -1.7534
17805TIP3   OH274829   2.151   3.406   3.803 -0.3315  0.0111  0.1236
17805TIP3    H174830   2.169   3.352   3.880  0.1467 -0.2130 -0.1389
17805TIP3    H274831   2.142   3.342   3.732  0.5822  0.2877 -0.2556
17806TIP3   OH274832   0.463   1.246   4.547 -0.0599 -0.0161  0.2892
17806TIP3    H174833   0.508   1.161   4.553  1.3490  0.6063 -0.8353
17806TIP3    H274834   0.370   1.223   4.547  0.2785 -1.7523 -1.6211
17807TIP3   OH274835   2.270   0.579   1.582  0.2421 -0.3744  0.1215
17807TIP3    H174836   2.245   0.543   1.497 -1.3383 -0.1398  0.4545
17807TIP3    H274837   2.222   0.525   1.646  0.3680  0.2831  0.7874
17808TIP3   OH274838   6.655   3.351   5.290  0.1206  0.1184 -0.1925
17808TIP3    H174839   6.672   3.341   5.196  1.3311 -2.1749  0.2056
17808TIP3    H274840   6.675   3.443   5.308  0.0491  0.5637 -2.1212
17809TIP3   OH274841   3.112   5.438   3.315  0.3712  0.5231 -0.3635
17809TIP3    H174842   3.050   5.490   3.263 -1.6049 -1.9697 -0.7377
17809TIP3    H274843   3.057   5.395   3.380  2.1497  0.0623  0.9073
17810TIP3   OH274844   5.553   0.477   2.947  0.2139 -0.1814 -0.1864
17810TIP3    H174845   5.523   0.502   2.860  0.1333  0.0137 -0.1032
17810TIP3    H274846   5.571   0.383   2.940 -0.9361 -0.4287 -0.1028
17811TIP3   OH274847   2.758   0.339   3.854 -0.3442  0.0508  0.0965
17811TIP3    H174848   2.747   0.339   3.759 -1.7230  0.8426  0.2376
17811TIP3    H274849   2.688   0.282   3.887 -1.2086  1.4205  0.7397
17812TIP3   OH274850   3.400   4.229   3.395  0.2646 -0.3194  0.7474
17812TIP3    H174851   3.390   4.172   3.319 -1.3655 -0.2719  0.8823
17812TIP3    H274852   3.483   4.203   3.434  0.3796 -1.4097 -0.1695
17813TIP3   OH274853   1.821   3.796  15.859  0.4064 -0.1258 -0.2729
17813TIP3    H174854   1.904   3.797  15.908  0.2777 -3.0408  0.1630
17813TIP3    H274855   1.777   3.877  15.885  2.2646  0.5427  1.0059
17814TIP3   OH274856   5.779   3.307  12.895  0.2269  0.4365  0.3780
17814TIP3    H174857   5.808   3.268  12.812  1.7408 -0.4498  1.2730
17814TIP3    H274858   5.719   3.242  12.932  0.0962  0.5093  0.2923
17815TIP3   OH274859   1.928   6.603   5.822 -0.1428  0.1026  0.4439
17815TIP3    H174860   1.848   6.550   5.828 -0.1942  0.2527  1.3302
17815TIP3    H274861   1.993   6.544   5.783  0.0783 -0.9966  2.3157
17816TIP3   OH274862   0.882   1.725  14.957 -0.0002 -0.5050 -0.0145
17816TIP3    H174863   0.836   1.779  14.893 -1.0932 -1.8991 -0.4532
17816TIP3    H274864   0.952   1.683  14.906 -0.5278 -1.1915 -0.1788
17817TIP3   OH274865   1.534   4.879   2.092 -0.3573 -0.0097  0.0648
17817TIP3    H174866   1.560   4.921   2.010  0.1091  2.3185  1.3092
17817TIP3    H274867   1.444   4.852   2.077 -0.4333  0.7679 -1.0923
17818TIP3   OH274868   0.105   1.845   3.875  0.1361 -0.3287  0.6487
17818TIP3    H174869   0.117   1.936   3.901 -0.1309  0.1764 -0.9065
17818TIP3    H274870   0.113   1.795   3.957  2.4632  0.8606  1.2203
17819TIP3   OH274871   3.159   5.634   6.077  0.1495 -0.0666  0.2837
17819TIP3    H174872   3.141   5.687   5.999 -0.4636 -2.1993 -1.1120
17819TIP3    H274873   3.141   5.693   6.150 -2.1184  1.2061 -1.1660
17820TIP3   OH274874   4.793   1.577   0.511  0.0612  0.9569 -0.0255
17820TIP3    H174875   4.777   1.492   0.469  1.4617  0.9340 -0.5396
17820TIP3    H274876   4.730   1.579   0.583  0.1943 -0.6626  0.1906
17821TIP3   OH274877   3.272   0.941   3.335 -1.1906 -0.4779 -0.2863
17821TIP3    H174878   3.332   1.016   3.338 -0.5589 -0.8753 -1.9572
17821TIP3    H274879   3.235   0.943   3.247 -2.6761 -1.0074  0.2994
17822TIP3   OH274880   6.180   4.433  16.194  0.0536 -0.0589 -0.0567
17822TIP3    H174881   6.092   4.408  16.220  0.1772 -0.4180  0.0229
17822TIP3    H274882   6.169   4.515  16.147 -0.3052 -0.0222  0.0897
17823TIP3   OH274883   2.838   0.151   6.119  0.0372 -0.0989 -0.7130
17823TIP3    H174884   2.865   0.243   6.111 -0.5887  0.1844  0.3360
17823TIP3    H274885   2.919   0.104   6.137  0.0369  0.5912  1.2661
17824TIP3   OH274886   1.861   0.764  14.324 -0.2104  0.0836 -0.0725
17824TIP3    H174887   1.828   0.697  14.385 -0.1251  1.2662  1.3143
17824TIP3    H274888   1.956   0.754  14.327 -0.1577  0.6696  0.6563
17825TIP3   OH274889   3.426   0.125   4.511  0.0827  0.2053 -0.0180
17825TIP3    H174890   3.438   0.214   4.542 -0.8244  0.6339 -0.8452
17825TIP3    H274891   3.345   0.128   4.460  0.7051 -0.8009 -1.1222
17826TIP3   OH274892   6.037   4.284   5.828 -0.7916 -0.9634  0.3499
17826TIP3    H174893   6.119   4.323   5.855 -0.9127 -1.1493  0.9947
17826TIP3    H274894   6.061   4.223   5.758 -0.4758 -0.5000  0.0528
17827TIP3   OH274895   2.038   5.110   4.143  0.7263 -0.2996 -0.4400
17827TIP3    H174896   1.969   5.054   4.178 -1.2957  1.2046 -1.7811
17827TIP3    H274897   2.107   5.109   4.210 -0.0373 -2.8073  0.4108
17828TIP3   OH274898   0.820   0.014   2.395 -0.4147  0.2542  0.2208
17828TIP3    H174899   0.808  -0.061   2.453  2.5486  0.2008  0.9226
17828TIP3    H274900   0.838   0.087   2.455 -1.0531  1.0589 -0.5451
17829TIP3   OH274901   3.423   6.310  13.975 -0.3352  0.1318 -0.1352
17829TIP3    H174902   3.343   6.258  13.976 -0.8673  0.9343  0.0886
17829TIP3    H274903   3.477   6.270  13.906  0.7972 -2.9142  2.2633
17830TIP3   OH274904   5.489   5.928   3.088 -0.1258  1.3004 -0.5491
17830TIP3    H174905   5.443   5.899   3.009  2.6200  1.3339 -2.2869
17830TIP3    H274906   5.565   5.871   3.094  0.9907  2.8388  0.7382
17831TIP3   OH274907   1.453   6.617   3.732 -0.5075 -0.0625  0.5232
17831TIP3    H174908   1.506   6.537   3.741 -0.0269  0.1404 -0.3313
17831TIP3    H274909   1.410   6.607   3.647 -1.9537 -0.2691  1.2582
17832TIP3   OH274910   3.228   4.472  13.603 -0.4714 -0.1470 -0.0373
17832TIP3    H174911   3.267   4.559  13.598 -0.1061 -0.2250  1.0968
17832TIP3    H274912   3.298   4.417  13.639 -0.1277 -1.2916 -2.2676
17833TIP3   OH274913   2.395   3.091   3.880  0.7423  0.1749  0.3194
17833TIP3    H174914   2.420   3.136   3.799  2.1059 -0.1044  0.5562
17833TIP3    H274915   2.350   3.012   3.852  0.7191  0.3555 -0.1508
17834TIP3   OH274916   0.198   5.869   3.361 -0.4242 -0.1149  0.0516
17834TIP3    H174917   0.247   5.803   3.411  1.4032  1.0853 -0.0561
17834TIP3    H274918   0.262   5.903   3.298 -1.5100  1.3168 -0.3215
17835TIP3   OH274919   0.490   1.092  12.369  0.1928  0.2129  1.2389
17835TIP3    H174920   0.572   1.107  12.415  1.5107 -1.0582 -0.5780
17835TIP3    H274921   0.514   1.087  12.277 -1.5898 -2.2398  0.7980
17836TIP3   OH274922   2.233   2.498   2.660  0.1392 -0.3506  0.2305
17836TIP3    H174923   2.303   2.481   2.722  0.3530  2.0106  0.7278
17836TIP3    H274924   2.279   2.519   2.578 -0.1210 -2.3970 -0.4987
17837TIP3   OH274925   0.645   5.596   4.620  0.5542 -0.5825 -0.2332
17837TIP3    H174926   0.602   5.568   4.540  1.2979 -0.7554 -0.5814
17837TIP3    H274927   0.586   5.568   4.690  0.4603 -1.4829 -0.6591
17838TIP3   OH274928   3.594   5.667  16.234 -0.7358 -0.1808  0.2745
17838TIP3    H174929   3.637   5.591  16.274  0.0805 -0.4275 -1.0041
17838TIP3    H274930   3.664   5.733  16.230 -0.1695 -0.8298 -2.5097
17839TIP3   OH274931   3.401   1.082   4.367  0.6725  0.5219  0.0189
17839TIP3    H174932   3.415   1.174   4.343  0.7931  0.2418 -1.0106
17839TIP3    H274933   3.485   1.052   4.400  0.6695  0.7299  0.2248
17840TIP3   OH274934   3.889   3.740  12.920  0.1643  0.1890 -0.0901
17840TIP3    H174935   3.901   3.660  12.869 -1.0885  0.1364 -0.3328
17840TIP3    H274936   3.815   3.784  12.878 -0.1202  0.7313  0.9561
17841TIP3   OH274937   3.166   6.301  12.092 -0.0907 -0.5688  0.1499
17841TIP3    H174938   3.239   6.339  12.140 -0.6062  0.8924 -0.1934
17841TIP3    H274939   3.103   6.372  12.082 -0.7419 -1.2876 -1.1865
17842TIP3   OH274940   3.071   4.847   1.624  0.4388 -0.4152 -0.5680
17842TIP3    H174941   3.086   4.755   1.605  1.5652  0.0076 -1.9714
17842TIP3    H274942   2.991   4.868   1.576 -0.1148 -0.7807  0.1897
17843TIP3   OH274943   0.153   3.036  11.926 -0.3713  0.2957  0.2780
17843TIP3    H174944   0.163   2.974  11.853 -0.7508 -0.3371  0.7459
17843TIP3    H274945   0.070   3.012  11.966  1.5791 -2.0876  3.3758
17844TIP3   OH274946   2.423   0.007  11.392  0.0883 -0.0612 -0.1234
17844TIP3    H174947   2.399  -0.072  11.343 -0.8602 -0.5164  1.0246
17844TIP3    H274948   2.425  -0.022  11.483  1.2782  0.8903  0.1797
17845TIP3   OH274949   5.834   2.814  12.418 -0.6788 -0.1178  0.0827
17845TIP3    H174950   5.808   2.884  12.357 -0.8401 -0.1721  0.0888
17845TIP3    H274951   5.903   2.767  12.371 -1.6127 -0.8873 -0.5607
17846TIP3   OH274952   5.522   4.712   5.492  0.1137  0.4313  0.8705
17846TIP3    H174953   5.519   4.806   5.478  2.6698  0.1932 -2.9606
17846TIP3    H274954   5.451   4.677   5.438  1.1244  0.1167 -0.3193
17847TIP3   OH274955   1.313   2.964   0.571  0.1124 -0.4632  0.9537
17847TIP3    H174956   1.254   2.975   0.646 -1.6673 -1.0475 -0.2822
17847TIP3    H274957   1.308   2.871   0.550 -0.4390 -0.0906 -0.6640
17848TIP3   OH274958   4.314   2.478  14.246 -0.4568  0.4109 -0.1081
17848TIP3    H174959   4.285   2.430  14.324 -0.6978  0.0056 -0.4403
17848TIP3    H274960   4.237   2.478  14.189 -0.0616  0.0655 -0.6501
17849TIP3   OH274961   3.162   2.306   4.874 -0.2115  0.5371 -0.0522
17849TIP3    H174962   3.069   2.288   4.889 -0.1478 -1.4615 -1.6573
17849TIP3    H274963   3.164   2.398   4.850 -2.0478  0.2035 -1.7287
17850TIP3   OH274964   2.160   5.497  12.809  0.5598  0.0394  0.4244
17850TIP3    H174965   2.200   5.412  12.787  0.4566 -0.0278  0.4933
17850TIP3    H274966   2.081   5.474  12.857 -1.5032  0.0309 -2.7028
17851TIP3   OH274967   4.363   1.006   2.648 -0.1711 -0.5556  0.6422
17851TIP3    H174968   4.409   0.923   2.650 -0.3685 -0.7799 -1.4143
17851TIP3    H274969   4.421   1.065   2.600 -1.7720 -0.7645 -1.7468
17852TIP3   OH274970   0.689   4.088  17.141 -0.8734 -0.0265  0.7865
17852TIP3    H174971   0.706   4.014  17.199 -0.9913 -0.7035 -0.0268
17852TIP3    H274972   0.594   4.093  17.135 -0.9850  1.8702  2.9266
17853TIP3   OH274973   6.313   0.165   3.281  0.0144  0.0905 -0.2759
17853TIP3    H174974   6.391   0.208   3.315  0.5268 -1.4676  0.6332
17853TIP3    H274975   6.268   0.232   3.230  1.5422  1.2292 -0.1712
17854TIP3   OH274976   1.840   5.783  11.482 -0.5907  0.2941  0.2660
17854TIP3    H174977   1.749   5.807  11.501  0.1487  1.5180  2.6076
17854TIP3    H274978   1.855   5.703  11.532 -0.2961  0.2543  0.1146
17855TIP3   OH274979   0.017   3.508   5.617  0.0357 -0.5599  0.1461
17855TIP3    H174980   0.032   3.551   5.701  0.1156 -0.6123  0.1582
17855TIP3    H274981   0.071   3.429   5.620 -1.6620 -1.7444  0.9447
17856TIP3   OH274982   4.766   0.639   1.048  0.0123 -0.6960  0.3836
17856TIP3    H174983   4.725   0.665   1.131  1.4560 -0.0502  0.9362
17856TIP3    H274984   4.704   0.579   1.008 -2.1243  1.2861  0.4925
17857TIP3   OH274985   3.923   3.803  13.624 -0.0398 -0.3164 -0.2946
17857TIP3    H174986   3.880   3.793  13.539  0.9708 -0.5520 -0.7903
17857TIP3    H274987   3.908   3.720  13.668 -1.3627  0.1254  0.1586
17858TIP3   OH274988   5.910   5.461  12.088  0.7291 -0.4476  0.0023
17858TIP3    H174989   5.918   5.538  12.144 -0.8941 -0.7940  0.7758
17858TIP3    H274990   5.987   5.408  12.109  0.4897 -0.2552  1.4297
17859TIP3   OH274991   0.846   4.777   0.842  0.2757  0.4957  0.0149
17859TIP3    H174992   0.835   4.871   0.853  0.6584  0.4364  1.0613
17859TIP3    H274993   0.871   4.766   0.750  0.1284  1.3980 -0.1428
17860TIP3   OH274994   2.093   2.920   3.918 -0.0641  0.3287 -0.6026
17860TIP3    H174995   2.051   2.951   3.998  0.7600 -0.4439  0.1526
17860TIP3    H274996   2.033   2.855   3.883 -0.4431  0.6920 -0.6310
17861TIP3   OH274997   3.914   0.280   6.470 -0.3178  0.0020  0.3184
17861TIP3    H174998   3.996   0.323   6.449  0.4598 -1.8680 -0.7463
17861TIP3    H274999   3.850   0.318   6.410  0.1091  0.3866  0.1015
17862TIP3   OH275000   5.395   3.353  16.017  0.7046 -0.2307  0.1042
17862TIP3    H175001   5.428   3.440  16.039  2.0498 -0.7486  0.2314
17862TIP3    H275002   5.446   3.327  15.941 -0.2809 -0.5869 -0.4627
17863TIP3   OH275003   0.371   1.513  11.410  0.4771  0.2319  0.3979
17863TIP3    H175004   0.339   1.558  11.489  0.4696 -1.4248  1.3831
17863TIP3    H275005   0.294   1.504  11.355  0.4053  1.0786  0.3400
17864TIP3   OH275006   2.591   4.192   1.424 -0.2371  0.3182  0.5775
17864TIP3    H175007   2.629   4.104   1.429 -0.4422  0.2717  1.5669
17864TIP3    H275008   2.546   4.203   1.508 -2.5145  0.3097 -0.5491
17865TIP3   OH275009   1.374   3.963  12.772 -0.0218 -0.0635  0.3225
17865TIP3    H175010   1.404   4.002  12.689 -2.2474  1.2029  0.0386
17865TIP3    H275011   1.423   3.881  12.778  1.6178  0.7032 -1.2726
17866TIP3   OH275012   0.838   4.239   6.257  0.3389 -0.3849 -0.3227
17866TIP3    H175013   0.745   4.245   6.279  0.6120 -1.2166  1.2298
17866TIP3    H275014   0.880   4.300   6.318  0.7176  1.0483 -1.9492
17867TIP3   OH275015   1.862   2.451  16.816  0.0863 -0.8002  0.5135
17867TIP3    H175016   1.832   2.489  16.899 -0.5378 -1.9003  0.8094
17867TIP3    H275017   1.782   2.438  16.766  0.3650 -1.0670  0.1332
17868TIP3   OH275018   3.855   2.443   2.256  0.1444  0.1408 -0.5908
17868TIP3    H175019   3.767   2.458   2.289  0.6069 -0.8049  1.1407
17868TIP3    H275020   3.903   2.523   2.280  0.1206  0.0554 -0.2592
17869TIP3   OH275021   6.546   4.138   0.095 -0.3057 -0.1053  0.2001
17869TIP3    H175022   6.572   4.211   0.152 -0.2835  0.7767 -0.8864
17869TIP3    H275023   6.451   4.136   0.100 -0.2879 -0.2467  0.5162
17870TIP3   OH275024   5.769   5.735  11.846  0.0684 -0.8993 -0.7231
17870TIP3    H175025   5.747   5.779  11.929 -0.6616 -0.1573 -1.3013
17870TIP3    H275026   5.736   5.646  11.857  3.3803 -2.0874  1.2914
17871TIP3   OH275027   4.600   3.448  13.281 -0.3414  0.0852 -0.6194
17871TIP3    H175028   4.651   3.372  13.307  1.1926  1.0549 -0.7042
17871TIP3    H275029   4.587   3.438  13.186  0.9846  0.5605 -0.8665
17872TIP3   OH275030   0.756   6.219   3.857 -0.0403  0.2630 -0.4010
17872TIP3    H175031   0.669   6.202   3.892  0.2762 -0.4212  0.0607
17872TIP3    H275032   0.793   6.286   3.915 -0.7946  1.6468 -1.4583
17873TIP3   OH275033   6.251   4.992   1.246 -0.7089 -0.0050 -0.2400
17873TIP3    H175034   6.275   5.015   1.336 -1.1779 -1.0061  0.1550
17873TIP3    H275035   6.313   5.040   1.192 -0.5976  0.8410  0.6011
17874TIP3   OH275036   1.957   1.141   0.881 -0.2629  0.2758 -0.2259
17874TIP3    H175037   2.015   1.074   0.845  1.2687  1.3798  0.0990
17874TIP3    H275038   1.917   1.182   0.804  0.7450  0.6707 -0.5513
17875TIP3   OH275039   2.486   2.874   0.383  0.6826 -0.1206 -0.4164
17875TIP3    H175040   2.457   2.785   0.400 -0.0415 -0.0171 -1.0207
17875TIP3    H275041   2.465   2.889   0.291  0.9411  0.6182 -0.3648
17876TIP3   OH275042   4.722   1.216  10.919  0.1617  0.6282 -0.1692
17876TIP3    H175043   4.750   1.303  10.948  0.7926  0.1810  0.6111
17876TIP3    H275044   4.716   1.223  10.824  0.1105  1.5563 -0.1018
17877TIP3   OH275045   2.905   2.330   1.441 -0.0919  0.7747  0.2530
17877TIP3    H175046   2.817   2.365   1.428 -0.7507  0.1653  2.5383
17877TIP3    H275047   2.953   2.356   1.363 -1.4712  3.7108  0.2547
17878TIP3   OH275048   1.603   6.596   6.596 -0.3886  0.0696  0.5087
17878TIP3    H175049   1.655   6.519   6.576 -1.5191  0.0550 -3.0941
17878TIP3    H275050   1.530   6.564   6.649 -0.6603 -1.3444 -0.6616
17879TIP3   OH275051   2.918   1.183   3.352  1.0057 -0.8864  0.1085
17879TIP3    H175052   2.847   1.227   3.399  1.3277 -0.1768 -0.0485
17879TIP3    H275053   2.944   1.110   3.409 -0.8944 -2.1480 -0.5504
17880TIP3   OH275054   2.484   1.442  13.171  0.1172  0.9282 -0.3293
17880TIP3    H175055   2.481   1.508  13.240  1.0145  0.1627  0.4748
17880TIP3    H275056   2.406   1.389  13.186  0.9816 -0.0603  0.9996
17881TIP3   OH275057   2.102   3.872  13.509  0.1001 -0.3393 -0.5775
17881TIP3    H175058   2.016   3.914  13.499  0.4711  0.6721  0.2787
17881TIP3    H275059   2.165   3.943  13.495  0.7261 -0.1288  2.5128
17882TIP3   OH275060   1.183   0.720   6.528  0.4397  0.8177 -0.2099
17882TIP3    H175061   1.143   0.786   6.585 -0.0779 -1.2436  2.0487
17882TIP3    H275062   1.272   0.709   6.562  0.2127 -0.2585  0.0870
17883TIP3   OH275063   5.120   1.043  16.905  0.3341 -0.2527  0.2985
17883TIP3    H175064   5.179   1.070  16.835 -2.0413 -0.1623 -1.8032
17883TIP3    H275065   5.032   1.065  16.874 -1.0701 -2.6151  2.1467
17884TIP3   OH275066   0.518   4.526  13.503 -0.1220 -0.7035  0.5448
17884TIP3    H175067   0.439   4.524  13.557  0.3834 -2.2642  1.3066
17884TIP3    H275068   0.559   4.610  13.522 -1.7497  0.2633 -0.1150
17885TIP3   OH275069   3.332   5.932   2.557 -0.4305  0.3787 -0.3026
17885TIP3    H175070   3.339   5.866   2.626  1.8631  0.3169 -0.5088
17885TIP3    H275071   3.357   5.886   2.477  0.1803  1.2212 -0.6179
17886TIP3   OH275072   2.708   6.630   6.441  0.5519 -0.6735 -0.3484
17886TIP3    H175073   2.782   6.594   6.490  0.4982 -0.7252 -0.3045
17886TIP3    H275074   2.708   6.581   6.359  1.3083  0.1636 -0.8658
17887TIP3   OH275075   5.223   1.546   5.073  0.4179 -0.4140  0.5201
17887TIP3    H175076   5.268   1.463   5.058 -0.0004 -0.9028  1.8149
17887TIP3    H275077   5.200   1.545   5.166 -0.8473  0.5209  0.2569
17888TIP3   OH275078   0.835   5.377  16.543 -0.2482 -0.7857  0.1418
17888TIP3    H175079   0.827   5.429  16.463 -1.5046  0.0157  0.7524
17888TIP3    H275080   0.785   5.297  16.525  2.2485 -2.1807 -1.0447
17889TIP3   OH275081   0.722   5.634  15.937 -0.0180 -0.1595 -0.1665
17889TIP3    H175082   0.817   5.632  15.931 -0.0186 -0.4072 -0.1343
17889TIP3    H275083   0.694   5.554  15.891 -0.3242  1.0585 -2.1947
17890TIP3   OH275084   3.801   6.274  14.064  0.2034 -0.0997 -0.3043
17890TIP3    H175085   3.723   6.269  14.120  0.0800  0.5649 -0.4077
17890TIP3    H275086   3.773   6.326  13.989  0.4544 -0.7360 -0.8501
17891TIP3   OH275087   6.308   0.649   5.727  0.6290  0.6055  0.1413
17891TIP3    H175088   6.383   0.589   5.719  0.5899  0.7559 -1.6567
17891TIP3    H275089   6.280   0.640   5.818  2.8233  0.5302  0.8852
17892TIP3   OH275090   3.833   6.003  14.575 -0.4610 -0.4305  0.3881
17892TIP3    H175091   3.923   5.980  14.597 -0.7224 -0.4284  1.5274
17892TIP3    H275092   3.831   6.099  14.578 -0.7945 -0.4577  1.6922
17893TIP3   OH275093   0.593   0.709   1.021  0.1721  0.1520 -0.5987
17893TIP3    H175094   0.643   0.763   0.960 -0.3992 -0.3417 -1.5230
17893TIP3    H275095   0.529   0.770   1.059  0.7752  0.5451 -0.2009
17894TIP3   OH275096   2.067   1.980  15.899 -0.4769 -0.3018  0.0703
17894TIP3    H175097   2.079   1.994  15.805 -0.9395  0.9625  0.1667
17894TIP3    H275098   2.149   1.942  15.929  0.2150  0.5981 -0.6174
17895TIP3   OH275099   0.440   6.460  14.332 -0.2181  0.6112 -0.4259
17895TIP3    H175100   0.405   6.372  14.346  0.9995  0.1423 -0.2164
17895TIP3    H275101   0.447   6.498  14.419  2.6048 -0.4336 -0.1262
17896TIP3   OH275102   4.608   4.537  12.731 -0.1581 -0.7248  0.2524
17896TIP3    H175103   4.662   4.478  12.679  0.4498 -0.7303  0.8722
17896TIP3    H275104   4.662   4.557  12.808  0.1695  1.5770 -0.4951
17897TIP3   OH275105   2.809   4.678   6.791  0.8358  0.3420  0.2555
17897TIP3    H175106   2.840   4.590   6.812 -0.0141  0.1643  0.8326
17897TIP3    H275107   2.763   4.707   6.870 -1.0741  0.2796 -0.7820
17898TIP3   OH275108   4.864   0.268  12.966 -0.7013  0.4914 -0.0750
17898TIP3    H175109   4.950   0.297  12.934 -1.5998  1.7851 -1.4483
17898TIP3    H275110   4.852   0.181  12.926  0.7998 -0.6706  1.8021
17899TIP3   OH275111   5.045   2.744   6.266  0.3042 -0.4440 -0.1594
17899TIP3    H175112   5.099   2.668   6.286 -0.0330 -0.8550 -0.7652
17899TIP3    H275113   5.001   2.764   6.348  0.8327 -0.5440  0.1548
17900TIP3   OH275114   5.350   4.320  16.060  0.0438 -0.1994 -0.0045
17900TIP3    H175115   5.366   4.327  16.154  0.0601 -1.4396  0.0958
17900TIP3    H275116   5.264   4.359  16.048 -0.3623 -0.8557  0.6731
17901TIP3   OH275117   0.765   6.092  14.651 -0.1513 -0.7595 -0.4988
17901TIP3    H175118   0.822   6.036  14.705 -0.1304  0.6155  0.9841
17901TIP3    H275119   0.803   6.086  14.563  2.9176  0.7577  0.5673
17902TIP3   OH275120   5.115   4.024   2.912 -0.1783  0.4740 -0.0358
17902TIP3    H175121   5.202   4.017   2.873  0.1416  0.7935  0.6048
17902TIP3    H275122   5.063   4.071   2.847  0.2981  0.8523 -0.1502
17903TIP3   OH275123   5.297   3.427   0.359 -0.0986 -0.2414  0.0473
17903TIP3    H175124   5.290   3.401   0.451 -2.0355 -0.1830 -0.0409
17903TIP3    H275125   5.219   3.479   0.343 -0.2907 -1.0419 -1.8838
17904TIP3   OH275126   2.754   0.002  14.223  0.5403  0.3578  0.4951
17904TIP3    H175127   2.811  -0.028  14.152  1.0262  0.4530  0.8395
17904TIP3    H275128   2.814   0.019  14.296 -0.1067 -1.6332  1.5852
17905TIP3   OH275129   5.657   4.278  13.161  0.1443 -0.1508  0.2775
17905TIP3    H175130   5.680   4.329  13.239 -1.8011  0.1340  0.7076
17905TIP3    H275131   5.594   4.213  13.192 -0.1256 -0.4899 -0.9349
17906TIP3   OH275132   4.876   4.557  14.807 -0.1024 -0.1679 -0.6695
17906TIP3    H175133   4.888   4.649  14.832  0.5230  0.7584 -3.8996
17906TIP3    H275134   4.781   4.546  14.801 -0.3008 -0.5108  1.9963
17907TIP3   OH275135   2.624   6.177   2.419 -0.1978 -0.0060  0.3929
17907TIP3    H175136   2.710   6.143   2.394  0.1485  1.2375 -0.1602
17907TIP3    H275137   2.614   6.257   2.369 -1.6234 -0.0435  0.5762
17908TIP3   OH275138   3.577   4.660  14.335  0.2221  0.5061 -0.1886
17908TIP3    H175139   3.613   4.699  14.415  0.1383  0.5993 -0.1959
17908TIP3    H275140   3.615   4.712  14.264 -0.5334  1.0959 -0.1643
17909TIP3   OH275141   0.319   5.418  14.518 -0.0055 -0.0283  0.0314
17909TIP3    H175142   0.407   5.380  14.518  0.5345  0.9269 -2.7744
17909TIP3    H275143   0.332   5.508  14.485 -1.9066  0.5051  0.6078
17910TIP3   OH275144   2.513   5.552   6.290 -0.7719 -0.0681 -0.0681
17910TIP3    H175145   2.566   5.525   6.365 -1.6727 -1.7716 -0.0007
17910TIP3    H275146   2.470   5.472   6.261 -2.0717  0.9666 -1.1113
17911TIP3   OH275147   6.480   4.796   2.181 -0.1988  0.4653  0.5707
17911TIP3    H175148   6.525   4.740   2.117 -1.1979  0.4319 -0.1301
17911TIP3    H275149   6.392   4.807   2.145 -0.8867  0.2036  2.0964
17912TIP3   OH275150   5.417   1.322   4.065 -0.1470  0.3096 -0.0744
17912TIP3    H175151   5.406   1.397   4.007 -0.9790 -0.8207 -1.4339
17912TIP3    H275152   5.328   1.296   4.089  0.1725  1.1469  2.3167
17913TIP3   OH275153   1.946   2.158  12.249 -0.4082  0.5529  0.3695
17913TIP3    H175154   1.964   2.121  12.163 -1.6412  0.1799  0.2620
17913TIP3    H275155   2.021   2.130  12.303 -0.0530  0.0798 -0.3612
17914TIP3   OH275156   1.711   0.162   6.785 -0.3078  0.1089  0.0441
17914TIP3    H175157   1.796   0.151   6.829  0.3320  0.7674 -1.0106
17914TIP3    H275158   1.720   0.112   6.704 -1.1690 -0.3405  0.2147
17915TIP3   OH275159   0.753   3.529  13.561 -0.3138 -0.2476 -0.1047
17915TIP3    H175160   0.797   3.481  13.631  0.3823 -1.7654 -1.5188
17915TIP3    H275161   0.703   3.462  13.513 -0.3654  0.6466 -1.3547
17916TIP3   OH275162   2.877   6.687   4.077  0.5163 -0.3627 -0.4948
17916TIP3    H175163   2.965   6.658   4.103  0.5179 -0.0640 -0.1522
17916TIP3    H275164   2.889   6.721   3.988  0.6233 -0.8826 -0.6833
17917TIP3   OH275165   2.049   3.573  12.077 -0.3148 -0.1722 -0.3470
17917TIP3    H175166   2.101   3.549  12.154 -1.7368  1.6868  1.2968
17917TIP3    H275167   2.101   3.639  12.032 -0.4468  0.3502  0.2640
17918TIP3   OH275168   5.681   1.248   1.365 -0.4604 -0.0049  0.0130
17918TIP3    H175169   5.698   1.260   1.458  0.7359  1.8682 -0.4061
17918TIP3    H275170   5.726   1.166   1.342  2.6196  1.4962  0.3161
17919TIP3   OH275171   1.149   1.004  17.429 -0.7341 -0.2804  0.4672
17919TIP3    H175172   1.073   0.966  17.383 -0.3753  0.7115 -1.0123
17919TIP3    H275173   1.187   1.065  17.366 -0.5655  1.6225  2.3154
17920TIP3   OH275174   2.055   4.754   5.403  0.5075 -0.2214 -0.1451
17920TIP3    H175175   2.048   4.764   5.308  0.6200 -0.5133 -0.1846
17920TIP3    H275176   2.073   4.661   5.417  1.7494  0.0380  0.0945
17921TIP3   OH275177   2.594   5.311  10.781 -0.1630 -0.2248 -0.0520
17921TIP3    H175178   2.615   5.249  10.851  1.1626  0.0632 -0.1673
17921TIP3    H275179   2.630   5.395  10.811 -1.0022  0.2677 -0.3710
17922TIP3   OH275180   4.932   2.759   6.522 -0.2362  0.0471 -0.3831
17922TIP3    H175181   4.945   2.791   6.611  1.6051 -2.4823  0.3766
17922TIP3    H275182   4.881   2.679   6.532  0.1226 -0.3467 -1.5847
17923TIP3   OH275183   1.986   2.509  12.638  0.1080 -0.2648  0.1063
17923TIP3    H175184   2.074   2.538  12.615  0.0541  0.7455  1.0913
17923TIP3    H275185   1.957   2.458  12.562  1.7094 -1.0315 -0.0367
17924TIP3   OH275186   5.614   4.263   0.101 -0.3965  0.3973  0.3289
17924TIP3    H175187   5.602   4.354   0.074  3.4154  0.3833 -2.2339
17924TIP3    H275188   5.582   4.211   0.028 -0.2005 -0.2265  0.6779
17925TIP3   OH275189   0.557   2.668  13.716  0.2691  0.1244  0.3214
17925TIP3    H175190   0.559   2.717  13.798 -1.0599  1.2633 -0.2718
17925TIP3    H275191   0.571   2.577  13.742  0.3156  0.5098  1.7521
17926TIP3   OH275192   0.346   5.745  15.659  0.3913 -0.2324  0.0899
17926TIP3    H175193   0.392   5.676  15.612  1.1709 -0.1104  0.6430
17926TIP3    H275194   0.306   5.799  15.590  1.6132  0.0158 -0.4561
17927TIP3   OH275195   1.539   5.148   1.701  0.0179  0.3137  0.1175
17927TIP3    H175196   1.450   5.183   1.702 -0.1108 -0.0231  0.5774
17927TIP3    H275197   1.579   5.186   1.622  0.2844  2.5056  1.2292
17928TIP3   OH275198   0.488   6.087   4.433 -0.1220 -0.1623  0.2837
17928TIP3    H175199   0.567   6.074   4.381  0.6255  0.0059  1.3475
17928TIP3    H275200   0.514   6.065   4.523 -0.5237  2.3263  1.1090
17929TIP3   OH275201   3.174   1.192  14.463 -0.4812 -0.1919  0.2674
17929TIP3    H175202   3.101   1.249  14.440  0.2269  0.3188 -0.8289
17929TIP3    H275203   3.159   1.168  14.554 -1.8188  0.1822  0.1676
17930TIP3   OH275204   0.635   0.306  15.296 -0.1843 -0.2226  0.4008
17930TIP3    H175205   0.646   0.239  15.228 -1.3073 -0.5304  0.5128
17930TIP3    H275206   0.725   0.327  15.322  0.2701 -0.2985 -0.9773
17931TIP3   OH275207   1.706   2.314   2.510  0.1834  0.9783 -0.4212
17931TIP3    H175208   1.716   2.383   2.444  0.2948  1.2363 -0.1382
17931TIP3    H275209   1.639   2.256   2.474 -0.0280  1.3212 -0.5940
17932TIP3   OH275210   3.281   4.163   4.988  0.3018  0.0751  0.6979
17932TIP3    H175211   3.339   4.087   4.976  0.3983  0.0115  1.5218
17932TIP3    H275212   3.331   4.224   5.042  0.3690  0.9070 -0.2739
17933TIP3   OH275213   0.319   1.831  13.015 -0.2760  0.1111  0.1481
17933TIP3    H175214   0.317   1.794  12.926 -2.5626 -0.9085  0.5476
17933TIP3    H275215   0.412   1.831  13.039  0.3794  0.2886 -2.1743
17934TIP3   OH275216   3.378   6.520   5.391 -0.4055  0.2531 -0.4171
17934TIP3    H175217   3.452   6.577   5.369  0.5475  0.4815  2.7712
17934TIP3    H275218   3.303   6.579   5.397  0.1351  0.8590  0.7441
17935TIP3   OH275219   6.253   5.486   1.375 -0.1242 -0.7817 -0.2498
17935TIP3    H175220   6.278   5.504   1.465  1.6321 -5.4420  0.4671
17935TIP3    H275221   6.336   5.481   1.327 -0.9663  0.5991 -1.9883
17936TIP3   OH275222   1.203   6.707  16.621 -0.1738 -0.0076 -0.2676
17936TIP3    H175223   1.121   6.671  16.653  0.0037  1.5471  2.1822
17936TIP3    H275224   1.178   6.787  16.575 -0.1206 -0.3880 -0.9859
17937TIP3   OH275225   1.041   0.013   2.946 -1.3355  0.4366  0.4785
17937TIP3    H175226   1.095  -0.045   2.892 -2.8208  0.3649 -1.0486
17937TIP3    H275227   1.045   0.098   2.901 -1.3557  0.7935  1.1434
17938TIP3   OH275228   0.182   0.207  14.336 -0.1677 -0.7253 -0.5232
17938TIP3    H175229   0.206   0.267  14.266 -1.7491  0.4358 -0.1088
17938TIP3    H275230   0.107   0.158  14.302 -1.2581  0.1865  0.5062
17939TIP3   OH275231   3.065   6.619  15.837 -0.4171  0.5325  0.0076
17939TIP3    H175232   3.139   6.607  15.896  0.7896  0.1741 -1.5163
17939TIP3    H275233   3.094   6.583  15.754 -1.2090  3.0246 -1.4663
17940TIP3   OH275234   5.543   3.855   5.695  0.1931 -0.1011 -0.3569
17940TIP3    H175235   5.523   3.936   5.741  1.4224 -0.4207  0.7769
17940TIP3    H275236   5.615   3.815   5.744  2.8549  0.4090 -3.4734
17941TIP3   OH275237   3.812   2.040   4.706 -0.0123  0.5476  0.0955
17941TIP3    H175238   3.768   2.109   4.657 -1.8013 -0.4993  0.1162
17941TIP3    H275239   3.903   2.042   4.676 -0.2062  2.3709 -0.4499
17942TIP3   OH275240   6.611   5.677  15.160  0.2723  0.1334 -0.8103
17942TIP3    H175241   6.645   5.763  15.183 -0.9394  0.1848  1.0083
17942TIP3    H275242   6.637   5.621  15.234 -2.6842 -0.0087  0.2708
17943TIP3   OH275243   3.429   5.187  15.254  0.1334  0.0543  0.5754
17943TIP3    H175244   3.475   5.248  15.312  1.8743 -0.4507 -0.2125
17943TIP3    H275245   3.352   5.236  15.225  0.6429  1.2856  1.2038
17944TIP3   OH275246   5.523   5.356   2.874 -0.4046 -0.1499  0.0334
17944TIP3    H175247   5.536   5.396   2.960  1.0962  0.2378 -0.3458
17944TIP3    H275248   5.550   5.424   2.812 -0.8023 -0.6748 -0.7281
17945TIP3   OH275249   1.862   4.882   3.586 -0.2709  0.3505 -0.1189
17945TIP3    H175250   1.864   4.790   3.560 -0.5595  1.2210 -3.7939
17945TIP3    H275251   1.771   4.909   3.575 -0.3287  0.9861  1.5491
17946TIP3   OH275252   0.182   5.815  13.442 -0.2113 -0.2441  0.2648
17946TIP3    H175253   0.156   5.734  13.397  0.1868 -0.5329  0.5509
17946TIP3    H275254   0.179   5.882  13.374  2.0503 -0.9675 -0.6632
17947TIP3   OH275255   4.174   2.203  15.833 -0.7666  0.2928 -0.3882
17947TIP3    H175256   4.202   2.235  15.747 -0.4863 -1.5809 -1.0448
17947TIP3    H275257   4.186   2.109  15.828 -0.9093  0.1310  1.6784
17948TIP3   OH275258   2.322   2.911  16.507  0.3785 -0.2910 -0.1097
17948TIP3    H175259   2.405   2.957  16.491  0.4851 -1.2654 -3.0676
17948TIP3    H275260   2.348   2.827  16.544  0.7331 -0.4576 -0.7086
17949TIP3   OH275261   0.877   5.911   1.669  0.5301  0.1914  0.1239
17949TIP3    H175262   0.802   5.971   1.669  0.5647  0.2348  0.2634
17949TIP3    H275263   0.858   5.849   1.598  0.1745 -0.0309  0.4064
17950TIP3   OH275264   5.314   5.935  17.101  0.1606 -0.4132  0.5266
17950TIP3    H175265   5.249   5.879  17.058  0.1966  1.1024 -1.7229
17950TIP3    H275266   5.379   5.952  17.032  2.4163 -1.0006  2.3822
17951TIP3   OH275267   4.387   0.674   0.245  0.1218  0.3645 -0.9454
17951TIP3    H175268   4.433   0.636   0.171  1.6969 -0.7770  0.5474
17951TIP3    H275269   4.379   0.602   0.308 -0.1656  1.5740  0.4560
17952TIP3   OH275270   2.504   1.731   0.437 -0.0767 -0.5978  0.0161
17952TIP3    H175271   2.427   1.746   0.382 -0.8231 -0.3408  1.1131
17952TIP3    H275272   2.491   1.643   0.473 -0.2699 -0.2442  0.8327
17953TIP3   OH275273   1.009   0.100   5.844 -0.0764  0.4043 -0.4091
17953TIP3    H175274   1.079   0.111   5.909 -0.0762 -1.7393  0.0191
17953TIP3    H275275   1.051   0.057   5.770 -1.1554 -2.4621  0.5029
17954TIP3   OH275276   6.326   3.874   0.756  0.4637  0.1434  0.2686
17954TIP3    H175277   6.280   3.956   0.738 -0.1493 -0.7191 -2.6230
17954TIP3    H275278   6.419   3.899   0.759  0.1387  1.3172  2.3210
17955TIP3   OH275279   0.740   0.477  14.691  0.2718 -0.2696  0.1466
17955TIP3    H175280   0.670   0.537  14.716 -1.6447 -2.3588  0.0350
17955TIP3    H275281   0.738   0.476  14.595  0.3878 -0.4385  0.1462
17956TIP3   OH275282   0.580   0.453  15.064 -0.5648 -0.7240  0.0993
17956TIP3    H175283   0.646   0.521  15.058 -1.2712 -0.1298 -2.3338
17956TIP3    H275284   0.588   0.418  15.152  1.4752  0.8225  0.5860
17957TIP3   OH275285   1.282   2.661  15.224 -0.4893 -0.3615  0.2842
17957TIP3    H175286   1.238   2.723  15.167 -0.8008 -1.7327 -1.0415
17957TIP3    H275287   1.372   2.692  15.230 -0.6645  0.2574 -0.2786
17958TIP3   OH275288   3.963   3.668   5.579 -0.6720 -0.2159  0.0859
17958TIP3    H175289   3.966   3.763   5.590 -0.1734  0.0298 -1.7250
17958TIP3    H275290   4.036   3.634   5.630  0.8484  0.6677 -1.4222
17959TIP3   OH275291   0.409   2.446   4.182 -0.1399 -0.0972  0.1881
17959TIP3    H175292   0.323   2.487   4.168  0.1341  0.5757  0.4307
17959TIP3    H275293   0.404   2.411   4.271 -0.1343  0.0238  0.2372
17960TIP3   OH275294   0.287   4.755   0.100 -0.4674  0.3305  0.2776
17960TIP3    H175295   0.282   4.693   0.027 -1.1932 -0.5331  1.0394
17960TIP3    H275296   0.198   4.759   0.135  0.1520 -0.4372  2.0429
17961TIP3   OH275297   2.461   6.434   5.062  0.1317 -0.1531  0.2640
17961TIP3    H175298   2.518   6.443   5.139  1.4299 -0.9078 -0.5749
17961TIP3    H275299   2.470   6.518   5.017  2.1093 -0.8857 -0.8326
17962TIP3   OH275300   3.637   6.022   0.147  0.2400  0.1342 -0.6083
17962TIP3    H175301   3.600   6.086   0.087 -2.4784  0.6164  1.3615
17962TIP3    H275302   3.670   6.074   0.221 -1.3712 -0.5954  0.7035
17963TIP3   OH275303   1.384   3.452  11.959 -0.2318 -0.0841  0.6400
17963TIP3    H175304   1.439   3.511  12.011 -1.3046  1.1308  0.4605
17963TIP3    H275305   1.382   3.371  12.009  2.5056 -0.5411  0.1643
17964TIP3   OH275306   6.649   2.366  16.617 -0.2364  0.5592 -0.0942
17964TIP3    H175307   6.732   2.412  16.618  0.5490 -0.8010 -0.0965
17964TIP3    H275308   6.637   2.339  16.526  0.6494 -1.5085  0.3596
17965TIP3   OH275309   3.291   0.004   1.610 -0.3004  0.1699  0.3369
17965TIP3    H175310   3.280   0.057   1.689  1.7429  0.2729  0.5903
17965TIP3    H275311   3.209  -0.046   1.603 -1.9777  2.7068  0.5406
17966TIP3   OH275312   1.761   6.633   3.945 -0.4807  0.3784  0.1370
17966TIP3    H175313   1.796   6.685   4.018  0.3772  1.7301 -1.1642
17966TIP3    H275314   1.735   6.699   3.880 -1.9547 -0.7602 -0.4779
17967TIP3   OH275315   0.734   5.807   5.490  0.0151 -0.0917  0.2899
17967TIP3    H175316   0.792   5.882   5.505  2.0743 -1.5095 -0.1190
17967TIP3    H275317   0.727   5.764   5.575  0.1181 -0.3036  0.1905
17968TIP3   OH275318   4.795   5.914  12.198  0.5317 -0.4297  0.5164
17968TIP3    H175319   4.804   5.912  12.293  2.1196 -0.3598  0.3974
17968TIP3    H275320   4.884   5.901  12.166  0.4671  2.2068 -0.9540
17969TIP3   OH275321   1.653   1.200  13.327  0.3155 -0.0834 -0.0802
17969TIP3    H175322   1.722   1.172  13.388 -0.7085 -1.2337  0.6056
17969TIP3    H275323   1.576   1.149  13.353 -1.3035  2.3700  0.3057
17970TIP3   OH275324   3.562   1.336   2.236 -0.4856  0.5147 -0.1808
17970TIP3    H175325   3.554   1.372   2.148 -1.2296  0.3232 -0.2014
17970TIP3    H275326   3.605   1.405   2.287 -0.8543  0.9776 -0.4888
17971TIP3   OH275327   4.093   4.728  12.041  0.4773  0.4185 -0.4014
17971TIP3    H175328   4.159   4.793  12.016  0.7497  0.0010 -0.7993
17971TIP3    H275329   4.091   4.732  12.137 -0.5832  2.0455 -0.4595
17972TIP3   OH275330   1.183   2.924  12.663 -0.2276  0.2813 -0.1278
17972TIP3    H175331   1.242   2.989  12.702 -0.4139  1.1446 -1.2463
17972TIP3    H275332   1.227   2.840  12.677  0.6594  0.7811  0.1563
17973TIP3   OH275333   4.271   2.900   0.046  0.2594 -0.1283 -0.3257
17973TIP3    H175334   4.271   2.815   0.002  1.4552  0.1070 -0.8436
17973TIP3    H275335   4.364   2.920   0.059 -0.0315 -0.3783  2.7728
17974TIP3   OH275336   1.356   0.916   1.668 -0.1367 -0.1010  0.0416
17974TIP3    H175337   1.348   0.885   1.758  0.8706  1.2534  0.6396
17974TIP3    H275338   1.450   0.930   1.656 -0.2431 -0.3707 -1.2732
17975TIP3   OH275339   2.501   5.870  15.254  0.0817  0.0901  0.2329
17975TIP3    H175340   2.574   5.918  15.293 -0.3998  1.0718 -0.0403
17975TIP3    H275341   2.508   5.888  15.160 -0.9946  0.9107  0.2911
17976TIP3   OH275342   0.129   0.726  14.625  0.3288  0.0618  0.1304
17976TIP3    H175343   0.143   0.700  14.534  1.2329 -0.4403  0.3927
17976TIP3    H275344   0.133   0.644  14.674 -0.8992  0.2395  0.5561
17977TIP3   OH275345   1.981   0.179  14.647  0.1123  0.0374 -0.7235
17977TIP3    H175346   2.064   0.165  14.692 -0.0311 -0.6553 -0.6550
17977TIP3    H275347   2.004   0.228  14.568  0.1290  3.1027  1.0219
17978TIP3   OH275348   5.748   2.480  11.343 -0.4358  0.0703 -0.1727
17978TIP3    H175349   5.826   2.424  11.335  0.5234  1.3627 -0.1615
17978TIP3    H275350   5.698   2.463  11.263 -0.5417 -1.3218  0.1575
17979TIP3   OH275351   2.680   0.978  14.367 -0.5415 -0.1664 -0.5757
17979TIP3    H175352   2.614   0.989  14.436 -0.4004  2.5495 -0.7566
17979TIP3    H275353   2.631   0.985  14.285 -0.2264  0.4081 -0.7196
17980TIP3   OH275354   5.571   0.804   6.125  0.0466 -0.1150 -0.2946
17980TIP3    H175355   5.654   0.779   6.165 -0.3662  1.1603  1.4702
17980TIP3    H275356   5.504   0.779   6.189 -0.8242  0.1200 -1.0859
17981TIP3   OH275357   0.585   4.021  16.158 -0.1610 -0.0624  0.3388
17981TIP3    H175358   0.594   4.063  16.243 -0.7542 -0.6899  0.7236
17981TIP3    H275359   0.546   3.936  16.177 -1.1486  0.1488 -0.6421
17982TIP3   OH275360   0.405   1.895  12.200  0.3246  0.4681 -0.0342
17982TIP3    H175361   0.442   1.915  12.114  1.0275  1.1518  0.4207
17982TIP3    H275362   0.462   1.940  12.262  1.0086 -1.6001  0.9393
17983TIP3   OH275363   3.798   5.672   5.930 -0.4603  0.1157 -0.0209
17983TIP3    H175364   3.794   5.687   6.024 -0.6428 -1.1006  0.1860
17983TIP3    H275365   3.890   5.687   5.907 -0.2931 -0.1467  0.4599
17984TIP3   OH275366   2.061   4.517   1.530  0.1669 -0.2860 -0.3922
17984TIP3    H175367   2.126   4.574   1.571 -0.6604 -0.4488  1.2128
17984TIP3    H275368   2.005   4.488   1.602 -0.6453 -1.5342 -1.4757
17985TIP3   OH275369   6.645   1.333   1.714  0.3985  0.4116 -0.6700
17985TIP3    H175370   6.636   1.290   1.799  0.9085 -0.3721 -0.9972
17985TIP3    H275371   6.740   1.336   1.699  0.4554  2.5565 -0.2177
17986TIP3   OH275372   4.850   3.818   4.260 -0.7948  0.2240 -0.1346
17986TIP3    H175373   4.886   3.762   4.191  0.8781  0.8387  0.1890
17986TIP3    H275374   4.829   3.758   4.331 -1.2031 -0.2430 -0.6319
17987TIP3   OH275375   6.610   4.038  16.187  0.3237  0.7282  0.5649
17987TIP3    H175376   6.578   4.018  16.099  0.8279 -0.8046  0.7047
17987TIP3    H275377   6.540   4.008  16.245 -0.0508  1.8266  0.7007
17988TIP3   OH275378   4.972   6.216  15.543 -0.1653 -0.2703 -0.5368
17988TIP3    H175379   4.972   6.271  15.464 -2.0497  0.2320 -0.2464
17988TIP3    H275380   4.985   6.127  15.511  1.2110  0.1248 -1.1775
17989TIP3   OH275381   6.450   6.161   3.383 -0.7912  0.2006  0.4756
17989TIP3    H175382   6.511   6.136   3.453  1.7761  1.3643 -1.2025
17989TIP3    H275383   6.368   6.178   3.428  0.3639 -0.4460  3.0138
17990TIP3   OH275384   2.473   2.594   5.299  0.1995  0.5650  0.0943
17990TIP3    H175385   2.461   2.515   5.247  2.0127  1.2362 -1.4382
17990TIP3    H275386   2.514   2.564   5.380 -0.9709 -0.2644  0.4106
17991TIP3   OH275387   6.128   3.886   3.033 -0.0647  0.4672 -0.5226
17991TIP3    H175388   6.129   3.799   2.994 -0.7757 -0.5639  1.5965
17991TIP3    H275389   6.054   3.931   2.992 -1.5925 -1.0293  0.4919
17992TIP3   OH275390   2.752   1.776   6.073  0.4709  0.5026 -0.2578
17992TIP3    H175391   2.719   1.728   6.149  1.6308 -0.0845 -0.1060
17992TIP3    H275392   2.690   1.756   6.003  1.2967 -1.8418 -0.3935
17993TIP3   OH275393   3.911   4.278   5.725  0.3396 -0.0686 -0.2711
17993TIP3    H175394   3.967   4.280   5.647  0.3195  0.1470 -0.2802
17993TIP3    H275395   3.909   4.186   5.750  1.3699  0.0352  0.2189
17994TIP3   OH275396   5.085   4.795  15.359 -0.1715  0.0982 -0.2163
17994TIP3    H175397   5.030   4.718  15.375  0.1142 -0.5801 -2.1950
17994TIP3    H275398   5.156   4.787  15.423  0.9206 -2.4225 -1.5729
17995TIP3   OH275399   3.651   3.493  11.146  0.5609 -0.2750  0.4234
17995TIP3    H175400   3.679   3.414  11.193  0.7781 -0.2488  0.3380
17995TIP3    H275401   3.643   3.560  11.214  0.2756 -0.3967  0.5119
17996TIP3   OH275402   1.744   3.447   3.896 -0.1250  0.0992 -0.0670
17996TIP3    H175403   1.796   3.492   3.963  3.3700 -1.0718 -1.7002
17996TIP3    H275404   1.740   3.510   3.823  0.4406 -0.3970 -0.5343
17997TIP3   OH275405   2.718   5.173   1.740  0.5309 -0.2160  0.2113
17997TIP3    H175406   2.657   5.116   1.694 -0.9044  2.1320 -0.9539
17997TIP3    H275407   2.675   5.193   1.823  1.1635 -1.0390  0.7452
17998TIP3   OH275408   2.957   4.641  17.215 -0.6068 -0.1261  0.2847
17998TIP3    H175409   2.945   4.694  17.136 -2.4752 -1.3687 -0.3164
17998TIP3    H275410   3.023   4.576  17.190 -0.3009  0.2308  0.1502
17999TIP3   OH275411   4.400   3.486  13.456 -0.0892  0.6393  0.4774
17999TIP3    H175412   4.466   3.474  13.387  3.0890  1.5977  3.1397
17999TIP3    H275413   4.418   3.572  13.492 -2.8385  0.9065  1.4205
18000TIP3   OH275414   2.986   2.123  16.089  0.4981  0.1153  0.4805
18000TIP3    H175415   3.064   2.120  16.145 -0.3810 -0.6744  1.7325
18000TIP3    H275416   2.936   2.198  16.122  0.3015  0.0762  0.2754
18001TIP3   OH275417   2.974   5.839   3.273 -0.2535  0.6461 -0.2397
18001TIP3    H175418   2.946   5.824   3.363  1.0476 -0.1624  0.0534
18001TIP3    H275419   3.038   5.911   3.280  0.9912 -0.4231 -0.2845
18002TIP3   OH275420   4.418   3.353   2.042 -0.3175 -0.7668  0.1406
18002TIP3    H175421   4.440   3.299   1.967 -0.3406 -0.8985  0.2276
18002TIP3    H275422   4.474   3.321   2.113  0.4620  0.0469 -0.0845
18003TIP3   OH275423   2.476   4.304  14.104 -0.7171  0.3511  0.0163
18003TIP3    H175424   2.520   4.219  14.101 -0.6496  0.3959 -0.2989
18003TIP3    H275425   2.415   4.297  14.177  0.2568  0.5097  0.8543
18004TIP3   OH275426   1.737   5.555   2.908  0.2303  0.1009  0.2380
18004TIP3    H175427   1.651   5.529   2.873 -1.2556  1.5105  2.5236
18004TIP3    H275428   1.749   5.645   2.878  0.1680  0.4095  1.0902
18005TIP3   OH275429   4.308   4.514  12.656 -0.4182  0.3104  0.2133
18005TIP3    H175430   4.358   4.484  12.731  0.7433  2.5887  0.4241
18005TIP3    H275431   4.323   4.447  12.589 -0.2938 -1.0047  1.5151
18006TIP3   OH275432   2.685   1.479   5.622  0.7276  0.2039 -0.3942
18006TIP3    H175433   2.714   1.399   5.666 -2.5546 -1.3806 -0.7998
18006TIP3    H275434   2.728   1.476   5.536 -1.6700 -2.9956 -1.6972
18007TIP3   OH275435   2.961   0.370   0.806 -0.2255  0.1505 -0.0031
18007TIP3    H175436   3.003   0.383   0.721 -0.4922 -0.5449 -0.2556
18007TIP3    H275437   3.032   0.375   0.869 -0.2548  2.3248 -0.0911
18008TIP3   OH275438   0.716   0.080   1.657 -0.2080  0.2375 -0.5514
18008TIP3    H175439   0.808   0.056   1.643 -0.6852 -1.5873 -0.7558
18008TIP3    H275440   0.669   0.036   1.587 -1.1972  1.7215 -0.8671
18009TIP3   OH275441   2.440   3.818  14.274 -0.6341  0.1503 -0.0215
18009TIP3    H175442   2.511   3.882  14.275  0.9867 -1.5986  0.5493
18009TIP3    H275443   2.480   3.737  14.245 -2.4633 -0.8475  0.0808
18010TIP3   OH275444   3.336   5.447  14.188 -0.2135 -0.1996  0.3312
18010TIP3    H175445   3.421   5.450  14.144  0.8157  3.4875  2.1428
18010TIP3    H275446   3.356   5.431  14.280 -1.3167  1.5210  0.9282
18011TIP3   OH275447   3.914   6.322  16.856  0.1251  0.2379 -0.1158
18011TIP3    H175448   3.909   6.370  16.774 -1.0815 -0.9649 -0.7764
18011TIP3    H275449   3.984   6.258  16.842 -0.6604 -0.5374 -0.5277
18012TIP3   OH275450   5.445   6.038  16.353  0.1757 -0.4049 -0.4630
18012TIP3    H175451   5.409   6.016  16.268 -0.2921  0.6092 -0.5362
18012TIP3    H275452   5.504   6.112  16.336  0.1358 -0.2428  0.0709
18013TIP3   OH275453   0.430   5.319  15.436  0.2535  0.0123 -0.1595
18013TIP3    H175454   0.340   5.340  15.409  0.3629  0.7318  0.0229
18013TIP3    H275455   0.427   5.226  15.458 -0.3336 -0.0848 -0.6249
18014TIP3   OH275456   1.814   1.716   5.985  0.4618  0.0682  0.2234
18014TIP3    H175457   1.880   1.647   5.981 -0.4899 -0.8633  0.2710
18014TIP3    H275458   1.731   1.670   6.000 -0.3895  1.0962 -1.0486
18015TIP3   OH275459   1.481   2.523  10.867  0.3405  0.4509 -0.1627
18015TIP3    H175460   1.515   2.488  10.785  0.1881 -0.3424  0.1020
18015TIP3    H275461   1.387   2.509  10.862  0.4615 -0.8574  0.7042
18016TIP3   OH275462   1.454   5.957   2.707 -0.4895 -0.0502 -0.0400
18016TIP3    H175463   1.508   5.980   2.782  0.8781  2.7839 -1.7133
18016TIP3    H275464   1.470   5.864   2.693  2.0302  0.1590  1.0384
18017TIP3   OH275465   3.877   3.035   2.759 -0.1831 -0.6772 -0.2684
18017TIP3    H175466   3.872   2.947   2.722 -1.5582 -1.5398  1.8301
18017TIP3    H275467   3.898   3.022   2.852  3.9366  1.4134 -0.6472
18018TIP3   OH275468   2.163   5.528  15.581 -0.0992 -0.5775 -0.2650
18018TIP3    H175469   2.211   5.604  15.615 -0.8309 -0.5389  0.7114
18018TIP3    H275470   2.071   5.546  15.602 -0.5519 -0.7446 -1.9103
18019TIP3   OH275471   5.966   1.670  15.912  0.5425  0.2589 -0.1050
18019TIP3    H175472   5.971   1.620  15.994 -0.8005 -0.1434 -0.2476
18019TIP3    H275473   5.992   1.759  15.936  0.6013  0.0430  0.6577
18020TIP3   OH275474   2.714   3.137  15.207  0.0185 -0.1698 -0.6160
18020TIP3    H175475   2.676   3.218  15.241 -0.9940 -1.0395  0.4199
18020TIP3    H275476   2.783   3.166  15.147  0.7205  1.4547  0.8858
18021TIP3   OH275477   2.906   2.892   1.199  0.2791 -0.3993  0.4212
18021TIP3    H175478   2.936   2.803   1.183  0.1585 -0.1407 -1.4963
18021TIP3    H275479   2.816   2.882   1.229 -0.7478 -0.9021 -2.5016
18022TIP3   OH275480   5.242   6.072   1.848  0.2671  0.1828  0.1528
18022TIP3    H175481   5.149   6.096   1.847 -0.1130 -1.2120 -0.6889
18022TIP3    H275482   5.265   6.064   1.755  1.0069 -0.2803  0.3746
18023TIP3   OH275483   1.876   1.993  14.615 -0.2251  0.3273  0.3580
18023TIP3    H175484   1.795   1.967  14.659  0.1432  0.3662  1.0628
18023TIP3    H275485   1.931   2.030  14.684  0.6449 -0.2826  0.0061
18024TIP3   OH275486   4.670   0.679  14.590 -0.3971  0.5688  0.0056
18024TIP3    H175487   4.612   0.729  14.647 -0.4428  0.1707  0.3116
18024TIP3    H275488   4.654   0.588  14.613 -1.5863  0.2925 -1.7453
18025TIP3   OH275489   5.775   0.613  13.636 -0.1118  0.3536  0.0876
18025TIP3    H175490   5.837   0.546  13.666 -0.0928  0.3413  0.0204
18025TIP3    H275491   5.759   0.666  13.714  1.6703  1.6891 -0.4027
18026TIP3   OH275492   2.562   4.566   2.002 -0.0866  0.6419 -0.1793
18026TIP3    H175493   2.590   4.557   2.094 -0.1144  1.2753 -0.1073
18026TIP3    H275494   2.622   4.630   1.965 -0.5679  0.9710 -0.3968
18027TIP3   OH275495   6.619   4.890  15.919  0.4062  0.3854 -0.0796
18027TIP3    H175496   6.552   4.933  15.866 -0.1005 -0.5202 -0.1822
18027TIP3    H275497   6.657   4.961  15.971 -0.5498  0.9355 -0.1085
18028TIP3   OH275498   1.294   3.941   2.154 -0.4488 -0.3653 -0.6118
18028TIP3    H175499   1.381   3.976   2.175 -0.5442 -0.5025  0.0378
18028TIP3    H275500   1.262   3.905   2.236 -0.8667 -0.8782 -0.9910
18029TIP3   OH275501   2.267   5.295   3.035 -0.2394 -0.5725 -0.3990
18029TIP3    H175502   2.304   5.379   3.007  0.3558 -0.2367  1.2765
18029TIP3    H275503   2.336   5.231   3.018  0.3053 -0.2952  0.6711
18030TIP3   OH275504   5.078   3.194  15.855  0.1918  0.2535  0.3278
18030TIP3    H175505   5.053   3.114  15.809 -0.7184  1.4211 -1.3412
18030TIP3    H275506   5.173   3.187  15.866  0.0753 -1.2047  0.5651
18031TIP3   OH275507   4.271   0.985  11.609 -0.0216  0.3963  0.3219
18031TIP3    H175508   4.346   0.981  11.550 -0.1643 -1.8234  0.2089
18031TIP3    H275509   4.277   0.905  11.661 -2.1630  0.2680  0.4675
18032TIP3   OH275510   6.587   1.866  10.806  0.1287 -0.3113 -0.5906
18032TIP3    H175511   6.525   1.860  10.878  2.2962  0.0310  1.4368
18032TIP3    H275512   6.564   1.948  10.761 -1.7536 -0.9350 -0.8343
18033TIP3   OH275513   1.757   5.135  11.318  0.0342  0.4195 -0.1717
18033TIP3    H175514   1.744   5.185  11.237 -1.2484  0.3938 -0.0016
18033TIP3    H275515   1.669   5.119  11.351  0.5287  0.2595  1.1413
18034TIP3   OH275516   0.514   2.812   4.200 -0.0978  0.0285  0.8252
18034TIP3    H175517   0.421   2.809   4.222 -0.4798  0.3004 -0.6624
18034TIP3    H275518   0.543   2.899   4.228 -0.3712  0.0722  0.9763
18035TIP3   OH275519   1.350   3.148  16.573 -0.0821 -0.5760 -0.1267
18035TIP3    H175520   1.318   3.107  16.654 -3.6157 -1.1656 -1.6367
18035TIP3    H275521   1.328   3.241  16.583 -1.4348 -0.8044 -0.7180
18036TIP3   OH275522   6.138   5.190   0.590  0.6067  0.5568  0.1099
18036TIP3    H175523   6.073   5.259   0.601  0.8140  0.8080 -0.2168
18036TIP3    H275524   6.091   5.109   0.609  0.3657  0.7902  0.5194
18037TIP3   OH275525   1.424   2.849   0.809  0.4431 -0.8535  0.1649
18037TIP3    H175526   1.481   2.810   0.742  2.1405  1.0751  0.3875
18037TIP3    H275527   1.459   2.814   0.892 -2.0593 -3.7569  0.1526
18038TIP3   OH275528   3.798   6.557   4.159 -0.4367 -0.4162 -0.7876
18038TIP3    H175529   3.767   6.597   4.078 -0.3523  0.3291 -0.4595
18038TIP3    H275530   3.843   6.477   4.130 -0.7105 -0.3421 -1.4424
18039TIP3   OH275531   0.634   2.314   1.485  0.1208  0.2837 -0.2464
18039TIP3    H175532   0.683   2.247   1.533  0.4217  1.5649  1.3014
18039TIP3    H275533   0.696   2.386   1.474 -0.1513  0.2891 -2.0156
18040TIP3   OH275534   2.082   6.342  15.310 -0.1733  0.2039  0.2695
18040TIP3    H175535   2.150   6.398  15.346 -0.6877  0.3977  0.9686
18040TIP3    H275536   2.125   6.295  15.239  0.7904  0.0662  0.9134
18041TIP3   OH275537   6.179   3.518   1.610 -0.2004  0.0917  0.0860
18041TIP3    H175538   6.274   3.516   1.599 -0.1790  2.4262 -0.6637
18041TIP3    H275539   6.164   3.477   1.695  1.4884 -0.0672  0.3511
18042TIP3   OH275540   2.723   4.842   3.397  0.2569  0.2222 -0.5416
18042TIP3    H175541   2.807   4.854   3.354 -0.0283  0.8706 -0.9327
18042TIP3    H275542   2.692   4.931   3.414 -0.4334 -0.0103 -0.5605
18043TIP3   OH275543   0.080   5.417  15.957  0.2120 -0.0300  0.0357
18043TIP3    H175544   0.021   5.389  15.888  1.1303  0.1553 -0.8519
18043TIP3    H275545   0.147   5.348  15.960  1.1404  0.8237 -0.4837
18044TIP3   OH275546   4.565   0.168  11.515 -0.0568 -0.1810 -0.0582
18044TIP3    H175547   4.476   0.167  11.549  0.0183 -2.2996  0.2479
18044TIP3    H275548   4.563   0.230  11.442 -1.8106 -0.2871 -0.1380
18045TIP3   OH275549   3.830   2.411  14.240  0.3264  0.2748  0.3181
18045TIP3    H175550   3.775   2.347  14.195 -0.7132  1.8566 -0.7619
18045TIP3    H275551   3.805   2.405  14.332  0.0644 -0.6869  0.1870
18046TIP3   OH275552   2.101   2.285  14.838  0.6661  0.2356 -0.6737
18046TIP3    H175553   2.181   2.272  14.889 -1.1495 -0.1485  2.3563
18046TIP3    H275554   2.074   2.196  14.813 -0.6453 -0.0764  1.5591
18047TIP3   OH275555   1.645   6.716   3.341 -0.3527 -0.4163  0.4501
18047TIP3    H175556   1.558   6.751   3.320 -1.2098 -2.1918  0.8100
18047TIP3    H275557   1.689   6.787   3.388 -0.7387  1.3268 -1.6998
18048TIP3   OH275558   5.409   4.749   0.890  0.1994 -0.1679 -0.0034
18048TIP3    H175559   5.414   4.681   0.958  1.0461 -0.7895 -0.6672
18048TIP3    H275560   5.329   4.798   0.911 -0.4207 -1.3545  0.4916
18049TIP3   OH275561   4.735   4.158   2.416  0.2616 -0.2373 -0.3085
18049TIP3    H175562   4.755   4.211   2.493  0.1627  1.6087 -1.4864
18049TIP3    H275563   4.754   4.216   2.342 -1.1089 -1.4062 -1.6343
18050TIP3   OH275564   1.941   1.563   5.272 -0.5074  0.1978 -0.0815
18050TIP3    H175565   1.907   1.636   5.221 -0.4800  0.5744  0.4263
18050TIP3    H275566   2.033   1.557   5.247 -0.4467  0.5028  0.0611
18051TIP3   OH275567   0.142   4.063   5.772  0.9249 -0.6740  0.2216
18051TIP3    H175568   0.196   3.984   5.774  1.0152 -0.5995  1.5901
18051TIP3    H275569   0.160   4.106   5.856  0.3167  0.4190 -0.1982
18052TIP3   OH275570   5.218   3.612  11.617 -0.3852 -0.2863  1.1353
18052TIP3    H175571   5.249   3.522  11.621  0.2904 -0.2846 -1.7430
18052TIP3    H275572   5.297   3.665  11.615 -0.6102  0.0514 -1.1242
18053TIP3   OH275573   2.928   2.237   4.535  0.2121  0.0543 -0.2424
18053TIP3    H175574   2.946   2.326   4.565 -0.7497 -0.2173  1.2742
18053TIP3    H275575   3.011   2.191   4.546  1.1489  1.0604 -2.4412
18054TIP3   OH275576   0.549   4.481   5.060  0.1559 -0.3436  0.3245
18054TIP3    H175577   0.488   4.420   5.101  0.3823 -1.5356 -1.0705
18054TIP3    H275578   0.495   4.532   5.000  0.3291 -0.6132 -0.0615
18055TIP3   OH275579   0.367   5.818   1.101 -0.0114  0.6919  0.5333
18055TIP3    H175580   0.306   5.874   1.148 -0.5140  0.0792  0.6113
18055TIP3    H275581   0.323   5.797   1.019  0.3322  0.7101  0.3391
18056TIP3   OH275582   2.358   4.819   0.618 -0.0255 -0.0481  0.3613
18056TIP3    H175583   2.396   4.815   0.530  0.8308 -0.9710  0.7510
18056TIP3    H275584   2.419   4.872   0.668 -0.7352  0.8324  0.3057
18057TIP3   OH275585   4.158   1.592  11.616  0.0545  0.0957  0.4018
18057TIP3    H175586   4.233   1.590  11.557 -0.3659  0.5287 -0.1596
18057TIP3    H275587   4.196   1.598  11.704  0.6769 -0.1623  0.1542
18058TIP3   OH275588   4.089   5.315  11.572  0.4542  1.2273 -0.4021
18058TIP3    H175589   4.059   5.226  11.591 -0.5129  1.6152 -0.0431
18058TIP3    H275590   4.105   5.314  11.478  0.4797  0.6662 -0.3987
18059TIP3   OH275591   5.811   1.794  16.721 -0.5456 -0.3338  0.2561
18059TIP3    H175592   5.754   1.735  16.771  0.6838 -1.1623  0.7184
18059TIP3    H275593   5.883   1.814  16.780 -0.4156  0.8147 -0.2746
18060TIP3   OH275594   2.193   2.444   2.103  0.9081 -0.3288  0.0459
18060TIP3    H175595   2.186   2.350   2.122 -0.1244 -0.1615  0.5734
18060TIP3    H275596   2.162   2.487   2.182  3.7286  0.5520  0.7873
18061TIP3   OH275597   2.635   2.848  14.897  0.2581  0.0418  0.0512
18061TIP3    H175598   2.625   2.927  14.844  0.4954  0.5684  0.7727
18061TIP3    H275599   2.555   2.843  14.948 -0.4821 -1.0970 -1.1473
18062TIP3   OH275600   5.232   6.195  17.434 -0.6929 -0.1866  0.0571
18062TIP3    H175601   5.178   6.121  17.462  0.2737 -0.9848 -0.1188
18062TIP3    H275602   5.234   6.189  17.338 -1.0662  0.4018  0.0102
18063TIP3   OH275603   4.635   2.016   4.383  0.0956  0.2740  0.3184
18063TIP3    H175604   4.591   1.986   4.303  3.2808  0.1907 -1.5563
18063TIP3    H275605   4.728   2.004   4.365  0.9642 -0.3925  4.3659
18064TIP3   OH275606   2.851   5.729  14.840 -0.0693  0.0065  0.2944
18064TIP3    H175607   2.857   5.677  14.920  0.9108 -0.9328 -0.3662
18064TIP3    H275608   2.766   5.706  14.802 -0.2137 -0.1045  0.6876
18065TIP3   OH275609   1.065   4.765   2.257  0.2857  0.1471  0.5553
18065TIP3    H175610   1.112   4.835   2.303 -0.9415  1.5713 -0.2612
18065TIP3    H275611   1.084   4.781   2.164 -0.3912 -0.2983  0.3347
18066TIP3   OH275612   3.426   6.531  16.488 -0.0877  0.2114 -0.6286
18066TIP3    H175613   3.376   6.530  16.569 -0.8424 -0.7059 -1.0899
18066TIP3    H275614   3.514   6.502  16.513 -0.6893 -1.4608 -0.3604
18067TIP3   OH275615   4.371   3.144   4.804 -0.6172  0.0396 -0.3383
18067TIP3    H175616   4.339   3.081   4.740  1.4476  0.3170 -1.7471
18067TIP3    H275617   4.384   3.225   4.754  1.0160  0.2648  0.3747
18068TIP3   OH275618   5.550   6.026   0.226 -0.2258 -0.0658 -0.1335
18068TIP3    H175619   5.481   6.012   0.290  0.2826  1.3668  0.7506
18068TIP3    H275620   5.509   6.079   0.157 -0.5904 -1.0633 -0.7077
18069TIP3   OH275621   4.572   0.843   5.322 -0.4693  0.5075  0.4911
18069TIP3    H175622   4.629   0.834   5.245 -0.0922  0.0800  0.8160
18069TIP3    H275623   4.625   0.892   5.385 -0.2674 -0.3473  0.9903
18070TIP3   OH275624   5.072   5.711   4.122  0.1575  0.3089 -0.8832
18070TIP3    H175625   5.165   5.692   4.135 -0.0943 -1.6392 -1.6646
18070TIP3    H275626   5.058   5.701   4.027 -1.0244 -0.2971 -0.6619
18071TIP3   OH275627   1.295   5.585   4.354  0.2615 -0.1916  0.6768
18071TIP3    H175628   1.271   5.619   4.440 -1.8503  1.4703 -0.4634
18071TIP3    H275629   1.357   5.648   4.319 -1.7019  1.2545 -0.4112
18072TIP3   OH275630   1.802   0.157   3.461 -0.4704 -0.1055 -0.4475
18072TIP3    H175631   1.824   0.170   3.369  0.4883  1.0765 -0.0823
18072TIP3    H275632   1.887   0.144   3.504 -0.9621 -1.3565  0.1759
18073TIP3   OH275633   3.126   2.673   6.137 -0.2118 -0.2645  0.1976
18073TIP3    H175634   3.051   2.717   6.176  0.5598  0.1269  1.2726
18073TIP3    H275635   3.150   2.605   6.200 -0.9129 -1.7883 -1.0768
18074TIP3   OH275636   3.534   0.334  12.056 -0.4787 -0.0249 -0.3439
18074TIP3    H175637   3.612   0.362  12.102 -0.4149 -1.6904  0.6468
18074TIP3    H275638   3.546   0.365  11.966  2.1194 -1.6175 -0.6464
18075TIP3   OH275639   0.510   4.147   0.944 -0.1910  0.3931 -0.1472
18075TIP3    H175640   0.604   4.138   0.958 -0.2320 -0.0173 -0.1071
18075TIP3    H275641   0.472   4.075   0.995 -0.5624  0.8731  0.2625
18076TIP3   OH275642   5.886   6.420  10.738 -0.9096 -0.6047 -0.5918
18076TIP3    H175643   5.894   6.459  10.825 -0.7374  1.3400 -1.4397
18076TIP3    H275644   5.962   6.362  10.731 -0.7743 -0.5714  0.4350
18077TIP3   OH275645   6.070   6.388  15.872  0.0036  0.1550  0.4761
18077TIP3    H175646   6.127   6.447  15.922 -0.3540  0.4750  0.5114
18077TIP3    H275647   6.123   6.309  15.858  0.4801  0.4772  0.4441
18078TIP3   OH275648   2.336   2.987  13.758  0.2455 -0.0342 -0.2731
18078TIP3    H175649   2.422   3.028  13.753  1.4425 -1.9893  1.9228
18078TIP3    H275650   2.333   2.949  13.846 -1.7550 -2.3591 -1.2173
18079TIP3   OH275651   0.349   6.638  15.574  0.2897 -0.4312  0.0314
18079TIP3    H175652   0.438   6.636  15.610  0.6348 -2.1958 -0.8227
18079TIP3    H275653   0.332   6.548  15.548 -2.2697 -0.4294  1.3816
18080TIP3   OH275654   6.052   0.482   2.887  0.3452  0.5076 -0.2241
18080TIP3    H175655   5.995   0.489   2.811  0.4344  0.0301 -0.3384
18080TIP3    H275656   6.098   0.399   2.876  0.8808  0.7651 -0.0077
18081TIP3   OH275657   0.976   0.514  16.038  0.4426  0.1186  0.3663
18081TIP3    H175658   0.976   0.585  15.974 -1.4235  0.5840  0.8176
18081TIP3    H275659   1.029   0.445  15.998  0.4318  0.9051 -1.0710
18082TIP3   OH275660   1.782   0.873   3.154 -0.0245 -0.1229 -0.5430
18082TIP3    H175661   1.814   0.790   3.191 -0.4930 -0.1940 -0.2833
18082TIP3    H275662   1.812   0.940   3.215 -2.1421 -0.3771  0.9111
18083TIP3   OH275663   1.279   4.596   1.857 -0.0842 -0.1087 -0.0093
18083TIP3    H175664   1.220   4.668   1.878 -1.1850 -1.4382  1.7121
18083TIP3    H275665   1.358   4.639   1.825 -0.3471  1.9363  1.8325
18084TIP3   OH275666   5.527   6.336  12.314  0.2107 -0.1075  0.2848
18084TIP3    H175667   5.555   6.320  12.224 -2.4438 -0.2761 -0.5967
18084TIP3    H275668   5.511   6.430  12.319  0.5049 -0.0716  0.6359
18085TIP3   OH275669   3.455   3.482  15.676 -0.1103 -0.4441 -0.2273
18085TIP3    H175670   3.391   3.547  15.648  0.6890  1.1762  1.5077
18085TIP3    H275671   3.417   3.398  15.652 -1.3592  0.6258 -2.1865
18086TIP3   OH275672   1.434   4.337  14.325 -0.8834  0.3965  0.1015
18086TIP3    H175673   1.477   4.342  14.240  0.9250  0.4312  0.9594
18086TIP3    H275674   1.351   4.293  14.309 -0.2141 -0.3146 -1.5349
18087TIP3   OH275675   1.680   2.368   1.472  0.1936  0.5509 -0.7291
18087TIP3    H175676   1.736   2.291   1.482 -0.4418  0.2537  0.8482
18087TIP3    H275677   1.638   2.356   1.386 -1.7310 -2.1904  0.4247
18088TIP3   OH275678   6.408   5.103   4.829  0.3943  0.2050  0.1362
18088TIP3    H175679   6.402   5.196   4.807 -0.8882  0.0765 -0.1224
18088TIP3    H275680   6.332   5.063   4.786  0.5522 -0.8479  0.8046
18089TIP3   OH275681   6.570   2.864  12.833  0.0922  0.1577  0.2920
18089TIP3    H175682   6.498   2.876  12.895  0.2598  0.0938  0.5000
18089TIP3    H275683   6.588   2.770  12.836  0.7249  0.2902  0.8460
18090TIP3   OH275684   4.394   0.809  11.812  0.1127  0.2848  0.4094
18090TIP3    H175685   4.401   0.723  11.772  0.5507 -0.3760  1.8243
18090TIP3    H275686   4.479   0.850  11.797 -0.2931  0.7290 -0.7796
18091TIP3   OH275687   1.789   6.513   0.600 -0.2703 -0.3895 -0.1439
18091TIP3    H175688   1.880   6.517   0.629  0.6508 -2.1999 -2.4098
18091TIP3    H275689   1.757   6.428   0.631 -1.2578  0.2751  0.7338
18092TIP3   OH275690   4.830   6.446   4.517 -0.5385  0.0319 -0.2376
18092TIP3    H175691   4.822   6.358   4.554 -0.1100 -0.3045 -0.9292
18092TIP3    H275692   4.746   6.488   4.537 -0.6605 -0.4531  0.2986
18093TIP3   OH275693   4.406   5.396  10.780  0.6490  0.0466 -0.4077
18093TIP3    H175694   4.445   5.399  10.868 -1.9400  1.8040  0.8050
18093TIP3    H275695   4.445   5.471  10.735 -0.0574  0.8300  0.2441
18094TIP3   OH275696   4.593   2.153  14.203 -0.5346 -0.0158 -0.7437
18094TIP3    H175697   4.572   2.227  14.145  1.8112  0.4255 -1.1344
18094TIP3    H275698   4.653   2.190  14.268 -0.5664 -1.2378  0.0059
18095TIP3   OH275699   4.761   2.196  15.373 -0.0567  0.3749 -0.1667
18095TIP3    H175700   4.769   2.111  15.416 -2.1845  0.4260  0.4490
18095TIP3    H275701   4.678   2.232  15.406  0.1911  2.1568 -1.3389
18096TIP3   OH275702   6.453   0.414   3.026  0.3151  0.4947  0.3058
18096TIP3    H175703   6.501   0.350   3.078  0.6091  1.3097  1.0655
18096TIP3    H275704   6.363   0.410   3.059 -0.1789 -0.9967 -1.0840
18097TIP3   OH275705   3.048   1.663  14.735  0.3202 -0.1036  0.0174
18097TIP3    H175706   3.042   1.753  14.703 -1.1750 -0.4434 -0.7701
18097TIP3    H275707   3.026   1.609  14.659  0.5485 -1.1147  0.6491
18098TIP3   OH275708   4.452   4.582  15.074  0.2621  0.2114  0.6050
18098TIP3    H175709   4.370   4.545  15.106  0.3206  0.1636  0.7016
18098TIP3    H275710   4.458   4.667  15.119  0.6821 -0.1512  1.2614
18099TIP3   OH275711   1.564   0.924   5.496 -0.5351  0.1262 -0.3604
18099TIP3    H175712   1.559   0.844   5.444 -1.7197  0.2811 -0.4994
18099TIP3    H275713   1.654   0.955   5.482  0.0577 -1.3448 -0.0284
18100TIP3   OH275714   4.115   4.271  17.101  0.3161 -0.1327 -0.1368
18100TIP3    H175715   4.061   4.285  17.178  0.3160  0.4977 -0.2434
18100TIP3    H275716   4.161   4.354  17.088 -0.0192 -0.0717 -1.0679
18101TIP3   OH275717   3.988   1.994  15.368  0.1154 -0.2288 -0.2305
18101TIP3    H175718   3.933   1.916  15.363  0.0433 -0.1256 -2.3467
18101TIP3    H275719   4.040   1.982  15.447 -1.9988 -0.9391  1.1493
18102TIP3   OH275720   4.102   5.306   1.058 -0.1803 -0.7290  0.2622
18102TIP3    H175721   4.016   5.346   1.075 -0.3848 -1.9620  2.6549
18102TIP3    H275722   4.090   5.257   0.977 -1.6910 -0.6696  0.4112
18103TIP3   OH275723   1.650   3.712   2.014 -0.2528  0.2607 -0.1162
18103TIP3    H175724   1.632   3.635   1.961 -0.4249 -0.8024  1.4271
18103TIP3    H275725   1.571   3.724   2.067  0.9306 -0.4099  1.8872
18104TIP3   OH275726   0.648   2.132   4.174 -0.7950  0.2171 -0.0582
18104TIP3    H175727   0.564   2.120   4.219 -0.0508 -0.8943  1.0963
18104TIP3    H275728   0.708   2.161   4.242  0.1921 -0.7915 -0.4710
18105TIP3   OH275729   6.216   4.279   4.301  0.2316 -0.4117  0.4745
18105TIP3    H175730   6.192   4.277   4.394  0.8891  0.5244  0.6715
18105TIP3    H275731   6.210   4.371   4.276  0.5645 -0.5866 -0.2867
18106TIP3   OH275732   0.526   3.196  14.343  0.0080  0.7685  0.1653
18106TIP3    H175733   0.432   3.202  14.329  0.0341 -1.4003 -1.3391
18106TIP3    H275734   0.538   3.116  14.395  0.8759  2.5044  2.8881
18107TIP3   OH275735   5.820   2.506   3.582  0.1054 -0.1332 -0.3476
18107TIP3    H175736   5.804   2.417   3.548 -1.0475 -0.2031  0.3249
18107TIP3    H275737   5.794   2.501   3.674  0.7743  0.7130 -0.1041
18108TIP3   OH275738   5.980   6.137  11.443  0.6666 -0.0197 -0.3029
18108TIP3    H175739   6.060   6.150  11.393 -0.5483  2.8489 -1.7383
18108TIP3    H275740   5.987   6.198  11.517  1.3504 -2.4459  1.7765
18109TIP3   OH275741   6.192   1.995  14.501 -0.2640  0.7560  0.6665
18109TIP3    H175742   6.283   2.022  14.516 -0.2516  0.3596  1.3552
18109TIP3    H275743   6.169   2.036  14.417  0.5983  0.7284  0.3976
18110TIP3   OH275744   3.918   4.545  15.930 -0.4788 -0.6843  0.6407
18110TIP3    H175745   3.882   4.485  15.996 -1.5245 -1.3007 -0.4542
18110TIP3    H275746   3.921   4.630  15.974 -0.2377 -1.2739  1.7922
18111TIP3   OH275747   4.137   0.206   0.461  0.2770  0.7056  0.5567
18111TIP3    H175748   4.200   0.143   0.496  0.6266 -0.5283 -2.0477
18111TIP3    H275749   4.186   0.253   0.393 -1.1763  0.7983 -0.4586
18112TIP3   OH275750   3.835   4.248  12.930 -0.0335  0.1411 -0.0568
18112TIP3    H175751   3.823   4.314  12.862 -2.0862 -0.0121  0.0953
18112TIP3    H275752   3.850   4.298  13.011 -1.2523  0.4334  0.0002
18113TIP3   OH275753   3.499   2.127   6.356 -0.0893  0.3658 -0.5669
18113TIP3    H175754   3.437   2.057   6.335  0.9389 -0.0197 -2.6160
18113TIP3    H275755   3.453   2.207   6.331 -0.5905  0.2815  0.0614
18114TIP3   OH275756   0.207   1.025  12.550  0.0489  0.0866 -0.0482
18114TIP3    H175757   0.219   1.118  12.570  0.0786 -0.0940  0.8331
18114TIP3    H275758   0.209   1.020  12.455 -1.5762  1.2100 -0.1782
18115TIP3   OH275759   6.600   5.818   1.752  0.0351 -0.3604 -0.2382
18115TIP3    H175760   6.512   5.836   1.720  0.4333 -0.5057 -1.4564
18115TIP3    H275761   6.611   5.878   1.826 -0.9057  0.0071 -0.3840
18116TIP3   OH275762   4.081   3.076   5.742 -0.1301 -0.3151 -0.5581
18116TIP3    H175763   4.075   3.067   5.837 -1.0444  1.2125 -0.4493
18116TIP3    H275764   4.174   3.092   5.725 -0.3072  2.0904  0.3797
18117TIP3   OH275765   4.977   2.731   3.694 -0.2939 -0.1357  0.1030
18117TIP3    H175766   5.054   2.709   3.747  1.1253  0.7515 -1.4870
18117TIP3    H275767   5.012   2.778   3.618 -2.3444 -0.4414 -1.1221
18118TIP3   OH275768   0.722   4.157  15.584  0.0628 -0.0421 -0.0399
18118TIP3    H175769   0.737   4.190  15.672  1.5923 -1.0495  0.1128
18118TIP3    H275770   0.774   4.077  15.579 -2.1073 -1.4853 -0.9718
18119TIP3   OH275771   6.149   6.469  13.560 -0.0323 -0.1408 -0.7575
18119TIP3    H175772   6.061   6.489  13.527 -0.1243  0.2376 -0.2902
18119TIP3    H275773   6.148   6.375  13.575 -0.7378  0.0233  0.3328
18120TIP3   OH275774   3.016   3.054   2.513 -0.1744 -0.5348  0.2730
18120TIP3    H175775   3.078   3.118   2.549 -1.1746 -0.7043  2.4234
18120TIP3    H275776   3.019   3.070   2.419 -0.8015  3.1715  0.6956
18121TIP3   OH275777   2.212   3.881   2.605 -0.0078 -0.3029  0.5201
18121TIP3    H175778   2.130   3.903   2.649  0.2931 -0.1729  1.0276
18121TIP3    H275779   2.245   3.966   2.574 -0.5736 -0.4771 -0.6011
18122TIP3   OH275780   5.195   6.117  12.745 -0.7546 -0.3661  0.2553
18122TIP3    H175781   5.216   6.055  12.816 -1.0889 -0.1513  0.5452
18122TIP3    H275782   5.127   6.173  12.782  2.4660  3.0161  1.6155
18123TIP3   OH275783   1.988   1.986  13.654  0.2344 -0.0839 -0.2301
18123TIP3    H175784   1.971   1.990  13.748 -2.8170 -0.1807 -0.6887
18123TIP3    H275785   1.960   2.071  13.621  1.1751 -0.0903 -1.0912
18124TIP3   OH275786   6.406   0.376   5.843  0.2698  0.3194  0.1840
18124TIP3    H175787   6.343   0.433   5.888 -0.0821 -0.0477  0.1608
18124TIP3    H275788   6.426   0.308   5.907 -1.1855 -0.9241 -0.6080
18125TIP3   OH275789   1.067   2.930  15.888  0.3726  0.0384  0.1623
18125TIP3    H175790   1.012   2.952  15.813  0.5777 -1.1180 -0.3447
18125TIP3    H275791   1.023   2.855  15.929  0.6364  0.2228  0.8045
18126TIP3   OH275792   6.324   6.744   3.496  0.1694  0.2352 -0.0816
18126TIP3    H175793   6.278   6.790   3.566  2.9844  2.0019  0.7996
18126TIP3    H275794   6.345   6.813   3.433  1.9610 -0.3415 -0.1760
18127TIP3   OH275795   1.242   2.036  16.229  0.0873 -0.0799  0.2181
18127TIP3    H175796   1.264   2.088  16.152  0.9622 -1.1762 -0.2996
18127TIP3    H275797   1.257   2.095  16.303 -3.3829  1.9397 -0.4472
18128TIP3   OH275798   0.275   2.316   0.329  0.3348  0.1814  0.2508
18128TIP3    H175799   0.219   2.369   0.272  1.5136  0.9964 -0.1731
18128TIP3    H275800   0.223   2.238   0.347 -1.6669  1.6335  1.2575
18129TIP3   OH275801   0.255   6.729   4.515 -0.2281 -0.0459  0.5416
18129TIP3    H175802   0.329   6.759   4.461 -1.4845 -0.4100 -1.5098
18129TIP3    H275803   0.252   6.635   4.501 -0.9786 -0.0543  0.7046
18130TIP3   OH275804   3.952   4.873  16.948  0.0111 -0.0835 -0.1643
18130TIP3    H175805   4.015   4.906  17.011 -0.4828 -0.6166  0.6163
18130TIP3    H275806   3.987   4.901  16.863  2.1335 -1.6949  0.0968
18131TIP3   OH275807   3.510   2.337   2.253 -0.0558 -0.5109 -0.3073
18131TIP3    H175808   3.541   2.425   2.273 -0.4331  0.0113 -1.8512
18131TIP3    H275809   3.464   2.309   2.332 -0.9777  1.1596 -0.2074
18132TIP3   OH275810   2.506   3.444   0.681  0.2374  0.0807  0.4710
18132TIP3    H175811   2.426   3.486   0.713 -0.0633 -0.5000  0.4985
18132TIP3    H275812   2.562   3.437   0.758  0.8041  1.5529  0.2225
18133TIP3   OH275813   6.597   3.557  12.085 -0.6345 -0.2008  0.2667
18133TIP3    H175814   6.509   3.576  12.117 -0.9625 -0.7243 -0.3086
18133TIP3    H275815   6.592   3.569  11.990 -0.3190 -1.0477  0.1273
18134TIP3   OH275816   5.658   2.148  15.316 -0.4509  0.2283 -0.7406
18134TIP3    H175817   5.578   2.178  15.272 -1.0364 -2.3525 -1.6104
18134TIP3    H275818   5.633   2.142  15.409 -1.3884 -0.7999 -1.0404
18135TIP3   OH275819   5.053   5.727   4.990  0.1519 -0.6095 -1.1135
18135TIP3    H175820   4.964   5.692   4.997 -0.2771  0.5238 -0.6916
18135TIP3    H275821   5.044   5.801   4.930  0.6535  0.0090 -0.4334
18136TIP3   OH275822   1.006   3.804  14.734 -0.2083  0.3560  0.2182
18136TIP3    H175823   1.087   3.830  14.777 -0.2609 -1.1435  1.3253
18136TIP3    H275824   1.014   3.835  14.644  1.3893  0.6018  0.4297
18137TIP3   OH275825   2.820   2.717  12.922 -0.3712  0.7843 -0.0937
18137TIP3    H175826   2.771   2.708  13.004  1.2112 -0.4931  0.7778
18137TIP3    H275827   2.807   2.634  12.877 -1.0086  1.3788 -1.0321
18138TIP3   OH275828   1.036   2.719  15.369 -0.1266  0.0698 -0.8752
18138TIP3    H175829   1.022   2.668  15.289  0.0137  1.2596 -1.6798
18138TIP3    H275830   1.097   2.788  15.343  0.2497  0.2238  0.3714
18139TIP3   OH275831   2.607   5.656  15.682  0.1050 -0.4184 -0.4298
18139TIP3    H175832   2.681   5.597  15.664  0.2284 -0.1767 -0.7280
18139TIP3    H275833   2.547   5.604  15.735  1.4083 -0.0129  1.5910
18140TIP3   OH275834   3.571   2.991  11.419 -0.2195  0.3190  0.1898
18140TIP3    H175835   3.606   3.044  11.490 -1.2905 -0.9673  1.7587
18140TIP3    H275836   3.601   2.902  11.438 -2.0927 -0.3804  0.1362
18141TIP3   OH275837   1.056   4.614  16.943 -0.0098 -0.2144  0.4112
18141TIP3    H175838   1.078   4.525  16.971 -0.6169 -0.2735  0.7243
18141TIP3    H275839   1.057   4.666  17.024 -1.5943 -0.3450  0.5545
18142TIP3   OH275840   2.862   0.324  13.330 -0.3441  0.2183 -0.2046
18142TIP3    H175841   2.770   0.295  13.332  0.1712 -1.5219 -0.1266
18142TIP3    H275842   2.857   0.416  13.303 -2.1969  0.5761  1.1232
18143TIP3   OH275843   6.224   5.519  12.789 -0.5241 -0.7848 -0.5296
18143TIP3    H175844   6.156   5.477  12.841 -1.1227 -1.1750 -1.5905
18143TIP3    H275845   6.195   5.609  12.779 -0.9455 -0.9736 -1.0590
18144TIP3   OH275846   1.656   0.549   1.349 -0.4452  0.5624  0.1279
18144TIP3    H175847   1.577   0.496   1.338  0.0851 -0.2954  0.3589
18144TIP3    H275848   1.726   0.497   1.308  0.3896  0.2787  1.8369
18145TIP3   OH275849   2.862   0.915  12.819 -0.1920  0.7003  0.1587
18145TIP3    H175850   2.901   0.845  12.872 -0.0978  0.0520 -0.7501
18145TIP3    H275851   2.913   0.993  12.842 -1.8033  1.0461  2.9431
18146TIP3   OH275852   6.434   0.226   6.096 -0.0208  0.2050 -0.2243
18146TIP3    H175853   6.499   0.155   6.091  0.9057  1.0863 -1.5644
18146TIP3    H275854   6.472   0.289   6.157  1.3786  1.5728 -2.3394
18147TIP3   OH275855   0.164   5.964  16.967  0.0572  0.2132  0.3998
18147TIP3    H175856   0.242   5.976  16.913  0.7032 -3.9455  0.0862
18147TIP3    H275857   0.188   5.999  17.053  3.0771 -2.4786  0.8092
18148TIP3   OH275858   1.374   6.092  13.611  0.5390  0.3899 -0.0561
18148TIP3    H175859   1.343   6.007  13.578  2.5676 -0.4408  0.0549
18148TIP3    H275860   1.334   6.156  13.553 -1.2554 -0.5947  0.0130
18149TIP3   OH275861   4.798   1.841  14.118  0.1137 -0.4626 -0.4813
18149TIP3    H175862   4.859   1.914  14.106 -1.3240  0.6077 -1.6249
18149TIP3    H275863   4.763   1.854  14.207  0.0641  0.1031 -0.5769
18150TIP3   OH275864   6.670   2.372   2.514 -0.6831  0.4611 -0.5406
18150TIP3    H175865   6.716   2.456   2.516 -2.0653  1.3413 -2.4597
18150TIP3    H275866   6.737   2.308   2.492  0.1590  1.2400 -0.3040
18151TIP3   OH275867   2.244   1.919   0.481  0.1161  0.0606  0.2722
18151TIP3    H175868   2.174   1.975   0.444  2.0755  2.5708  0.0837
18151TIP3    H275869   2.199   1.864   0.545 -1.9137  2.3725  1.0058
18152TIP3   OH275870   1.123   5.875  15.638 -0.3108 -0.1895  0.2145
18152TIP3    H175871   1.211   5.880  15.600 -0.3919  1.9071  0.1932
18152TIP3    H275872   1.078   5.952  15.605 -2.2591 -1.3361  0.0584
18153TIP3   OH275873   4.520   0.348  12.998 -0.3406 -0.1651  0.0680
18153TIP3    H175874   4.556   0.407  12.932  1.9644 -0.7726  0.6942
18153TIP3    H275875   4.441   0.311  12.957 -0.4214  1.3999 -1.2953
18154TIP3   OH275876   1.447   5.312   4.489 -0.3182 -0.4485 -0.1279
18154TIP3    H175877   1.486   5.370   4.553  0.1160 -0.7497 -0.1152
18154TIP3    H275878   1.354   5.334   4.490 -0.4745 -1.0950  1.2809
18155TIP3   OH275879   6.245   2.527  10.229 -0.4503 -0.1171  0.0196
18155TIP3    H175880   6.242   2.439  10.267  1.1372 -0.7893 -1.2871
18155TIP3    H275881   6.305   2.575  10.286  0.2174 -0.4730 -0.3766
18156TIP3   OH275882   2.693   2.844   4.824 -0.2254  0.3115  0.6588
18156TIP3    H175883   2.624   2.802   4.772  0.3452  0.5811 -0.3561
18156TIP3    H275884   2.742   2.771   4.861  0.8650 -0.0041 -1.2388
18157TIP3   OH275885   0.306   1.063   1.662 -0.1127 -0.2990  0.1749
18157TIP3    H175886   0.364   1.044   1.736 -0.3555 -0.2044  0.3893
18157TIP3    H275887   0.273   0.977   1.635 -0.6010 -0.2622  0.6473
18158TIP3   OH275888   5.376   0.605  15.052 -0.0424 -0.3486  0.1927
18158TIP3    H175889   5.370   0.562  15.137  1.6955 -0.0243  0.5152
18158TIP3    H275890   5.410   0.538  14.992 -1.7637 -0.7351 -0.4103
18159TIP3   OH275891   3.852   1.230  17.347  0.4688  0.2454  0.8420
18159TIP3    H175892   3.851   1.317  17.386 -2.2518  0.4079  0.5697
18159TIP3    H275893   3.808   1.174  17.411 -2.4761  0.1734 -1.0380
18160TIP3   OH275894   5.480   6.291   0.625 -0.3292 -0.1773  0.2948
18160TIP3    H175895   5.538   6.366   0.611  1.4389 -1.6394 -0.6549
18160TIP3    H275896   5.392   6.330   0.633  0.8424  2.2996  3.4615
18161TIP3   OH275897   6.592   0.052   2.802  0.5172  0.1238 -0.3411
18161TIP3    H175898   6.533  -0.023   2.808 -0.2637  0.7237 -0.3788
18161TIP3    H275899   6.574   0.090   2.716  1.3118  0.0300 -0.5513
18162TIP3   OH275900   5.441   5.108   0.659 -0.4892 -0.2438  0.5580
18162TIP3    H175901   5.379   5.177   0.636  0.0128 -0.3427 -1.2234
18162TIP3    H275902   5.512   5.116   0.595  0.2129 -1.5862  1.1178
18163TIP3   OH275903   2.939   1.542  12.724 -0.1660  0.5961 -0.1028
18163TIP3    H175904   2.861   1.556  12.670  0.0085  1.9999 -0.0119
18163TIP3    H275905   3.012   1.563  12.666  0.2306 -1.4929 -0.4422
18164TIP3   OH275906   3.202   2.794  13.058 -0.1472  0.5351  0.2151
18164TIP3    H175907   3.287   2.832  13.036 -0.5018  0.3710 -1.5375
18164TIP3    H275908   3.140   2.838  13.001 -1.0171 -0.4665  0.3562
18165TIP3   OH275909   6.510   1.655   0.759 -0.5828  0.2402  0.1014
18165TIP3    H175910   6.454   1.679   0.685 -0.0322  0.2864 -0.3044
18165TIP3    H275911   6.494   1.722   0.824  1.4022  2.1348 -1.2416
18166TIP3   OH275912   1.722   1.894  11.013 -0.6925  0.0739  0.6198
18166TIP3    H175913   1.707   1.973  10.962 -0.7981  0.9937  2.0194
18166TIP3    H275914   1.807   1.862  10.983 -0.5089  0.8787  0.2500
18167TIP3   OH275915   4.309   0.301   4.525  0.4059  0.2864  0.5793
18167TIP3    H175916   4.275   0.388   4.503 -0.0771 -0.2325 -0.8022
18167TIP3    H275917   4.349   0.313   4.612 -0.3127  1.7016  0.7541
18168TIP3   OH275918   5.816   0.332   1.336 -0.1672  0.7153 -0.1371
18168TIP3    H175919   5.733   0.317   1.381 -0.2747 -0.1753 -0.6105
18168TIP3    H275920   5.791   0.348   1.245  0.2483 -1.9117 -0.8181
18169TIP3   OH275921   1.303   3.400   5.649  0.5862 -0.6059  0.3658
18169TIP3    H175922   1.252   3.354   5.583  2.0305 -0.7249 -0.7208
18169TIP3    H275923   1.238   3.436   5.710 -0.7977 -0.3673 -1.1904
18170TIP3   OH275924   1.416   1.578  14.132 -0.0729  0.2981 -0.3349
18170TIP3    H175925   1.421   1.489  14.167  0.3444  0.9478  1.3421
18170TIP3    H275926   1.494   1.586  14.076  0.1252 -0.2584 -0.1443
18171TIP3   OH275927   6.382   4.229   2.714 -0.2915 -0.0979 -0.2932
18171TIP3    H175928   6.287   4.235   2.720 -0.3077  0.4126 -0.9194
18171TIP3    H275929   6.408   4.311   2.672  0.3626 -0.5436 -0.7680
18172TIP3   OH275930   5.098   5.965   2.811  0.1279  0.1279 -0.2926
18172TIP3    H175931   5.009   5.992   2.788  0.6297  2.6625  0.4624
18172TIP3    H275932   5.119   5.897   2.747 -1.4589  1.1964 -2.0752
18173TIP3   OH275933   6.425   0.869   6.304 -0.5342 -0.4313 -0.0610
18173TIP3    H175934   6.354   0.870   6.240 -0.3223 -1.3107 -0.3242
18173TIP3    H275935   6.402   0.797   6.363 -0.9481  0.6295  1.1251
18174TIP3   OH275936   4.010   0.948  14.662  0.8624 -0.2153 -0.0262
18174TIP3    H175937   4.019   1.002  14.583 -0.4771 -0.8327 -0.6566
18174TIP3    H275938   4.088   0.966  14.713  2.6803 -1.0932 -2.3109
18175TIP3   OH275939   4.041   1.852   4.811 -0.8154 -0.2350 -0.3816
18175TIP3    H175940   4.083   1.899   4.739 -1.2372 -0.6916 -0.9379
18175TIP3    H275941   4.007   1.921   4.869  1.3358  0.1616  0.5036
18176TIP3   OH275942   3.524   6.740   2.986  0.1621  0.4293 -0.1403
18176TIP3    H175943   3.534   6.666   2.927  0.0999 -0.3454  0.7981
18176TIP3    H275944   3.469   6.707   3.057 -1.3105  1.8823 -0.5478
18177TIP3   OH275945   0.584   2.672   0.808  0.5964 -0.2026  0.5476
18177TIP3    H175946   0.535   2.624   0.742 -0.7048 -1.3689  2.2679
18177TIP3    H275947   0.650   2.609   0.839  0.1549 -0.2432  1.4450
18178TIP3   OH275948   5.301   5.059   3.115  0.1884  0.4809  0.3983
18178TIP3    H175949   5.214   5.056   3.155 -0.0556 -0.4412 -0.1630
18178TIP3    H275950   5.356   5.003   3.170 -0.0100 -0.3284 -0.1982
18179TIP3   OH275951   4.915   3.108   6.216 -0.5719 -0.2220 -0.8459
18179TIP3    H175952   4.844   3.155   6.259  0.4699 -0.1354  0.9058
18179TIP3    H275953   4.929   3.153   6.133 -1.6009  0.6384 -0.5617
18180TIP3   OH275954   2.537   6.481  11.882  0.8437  0.0574  0.1931
18180TIP3    H175955   2.512   6.436  11.801 -0.2850  1.4943 -0.3172
18180TIP3    H275956   2.461   6.469  11.940  1.2631 -0.1852  0.6936
18181TIP3   OH275957   3.541   4.152   2.157 -0.1339 -0.2105 -0.0353
18181TIP3    H175958   3.555   4.061   2.129  1.2973 -0.1150  0.3068
18181TIP3    H275959   3.457   4.176   2.119 -1.4308 -2.2653  1.3419
18182TIP3   OH275960   1.394   4.432   1.226  0.4058 -0.2716  0.2061
18182TIP3    H175961   1.482   4.468   1.241  1.8795 -3.3305 -0.3583
18182TIP3    H275962   1.370   4.393   1.310  0.6857 -1.5187 -0.2694
18183TIP3   OH275963   4.823   6.174   1.049  0.4546  0.1548  0.5690
18183TIP3    H175964   4.787   6.113   1.113 -2.5279  0.5265 -0.5995
18183TIP3    H275965   4.752   6.236   1.031  1.3327  0.4586 -2.5975
18184TIP3   OH275966   3.344   1.115   5.694 -0.3391  0.0596  0.3990
18184TIP3    H175967   3.383   1.036   5.656 -0.3571 -0.0461  0.6010
18184TIP3    H275968   3.417   1.177   5.698 -0.2446 -0.0592  0.5566
18185TIP3   OH275969   1.273   6.177   5.185 -0.2918 -0.4862 -0.3254
18185TIP3    H175970   1.352   6.146   5.230 -1.3742  1.0729  3.0129
18185TIP3    H275971   1.209   6.108   5.199 -0.1697 -0.7638 -1.0800
18186TIP3   OH275972   6.687   4.806  17.393  0.3543 -0.4802 -0.3452
18186TIP3    H175973   6.690   4.879  17.455  0.7883 -0.4914 -0.3488
18186TIP3    H275974   6.711   4.729  17.446  2.0035 -0.3009 -0.7919
18187TIP3   OH275975   2.553   2.323  17.271 -0.1717 -0.2664  0.7027
18187TIP3    H175976   2.640   2.320  17.309 -0.1634 -1.5891  0.6335
18187TIP3    H275977   2.495   2.292  17.341 -0.7262  1.4628  1.0568
18188TIP3   OH275978   3.561   1.581  16.034  0.5206 -0.0107 -0.0043
18188TIP3    H175979   3.601   1.501  16.001 -0.0814 -0.1438 -0.4169
18188TIP3    H275980   3.604   1.652  15.986 -0.0218 -0.1775 -0.7534
18189TIP3   OH275981   0.951   2.458   4.568 -0.3837 -0.1405  0.9284
18189TIP3    H175982   0.881   2.520   4.587  0.4085  2.0104 -2.3013
18189TIP3    H275983   1.032   2.505   4.591  0.1474 -1.3394  1.6066
18190TIP3   OH275984   1.806   4.947  12.399  0.5225 -0.1225 -0.1113
18190TIP3    H175985   1.747   4.888  12.445 -0.0663  0.7531  0.2845
18190TIP3    H275986   1.872   4.971  12.465  0.5592 -0.0599 -0.1702
18191TIP3   OH275987   0.202   1.193   4.154 -0.5549  0.4722  0.1071
18191TIP3    H175988   0.135   1.125   4.149 -0.3789  0.3595 -2.2525
18191TIP3    H275989   0.156   1.274   4.136 -0.3668  0.6274  0.3311
18192TIP3   OH275990   4.806   0.042  11.568  0.3775 -0.1731  0.0166
18192TIP3    H175991   4.720   0.082  11.555  0.8597  0.6975 -0.6308
18192TIP3    H275992   4.810   0.025  11.662 -0.0838  0.7769  0.2259
18193TIP3   OH275993   0.059   4.088  16.356 -0.1022  0.0444  0.0794
18193TIP3    H175994   0.119   4.021  16.321 -0.1219 -0.6129  1.2446
18193TIP3    H275995  -0.019   4.082  16.299  1.3080  1.7302 -2.2113
18194TIP3   OH275996   0.258   1.498  14.836  0.0212  0.0436 -0.1288
18194TIP3    H175997   0.239   1.511  14.929 -1.8280  2.8246 -0.7703
18194TIP3    H275998   0.342   1.451  14.835  1.8803  2.8643  2.9698
18195TIP3   OH275999   6.604   4.961  12.143  0.0795  0.0849  0.9590
18195TIP3    H176000   6.698   4.943  12.138 -0.2408 -1.5983  0.1654
18195TIP3    H276001   6.583   4.958  12.236  0.9455  1.3156  1.2088
18196TIP3   OH276002   2.017   1.112  15.763  0.0140  0.0321 -0.4155
18196TIP3    H176003   1.983   1.158  15.686  0.9308 -0.3842 -1.0884
18196TIP3    H276004   1.973   1.027  15.761 -1.0666  0.5532  0.3675
18197TIP3   OH276005   0.660   5.097   3.277 -0.2784  0.1788 -0.1215
18197TIP3    H176006   0.650   5.098   3.182  1.4421 -0.8461 -0.3570
18197TIP3    H276007   0.642   5.006   3.301  0.8992  0.0430  0.3028
18198TIP3   OH276008   4.100   4.064   2.649 -0.0188 -0.3025  0.5163
18198TIP3    H176009   4.134   4.042   2.562  0.6365  0.3995  0.5812
18198TIP3    H276010   4.175   4.055   2.707 -0.4555 -0.7733  1.0249
18199TIP3   OH276011   6.089   0.536  17.424 -0.1615 -0.1621  0.1099
18199TIP3    H176012   6.102   0.568  17.514 -0.5859 -1.9036  0.8300
18199TIP3    H276013   6.127   0.449  17.424  0.4269  0.0494 -1.6259
18200TIP3   OH276014   1.962   4.662   2.237 -0.8140  0.2144  0.5144
18200TIP3    H176015   1.955   4.567   2.226 -3.0143  0.4247 -0.4153
18200TIP3    H276016   1.892   4.698   2.181  2.1537  2.5787 -2.0793
18201TIP3   OH276017   4.262   3.388   4.344  0.1550 -0.3804  0.1530
18201TIP3    H176018   4.193   3.386   4.277 -0.5132 -1.5581  0.8539
18201TIP3    H276019   4.256   3.476   4.381  0.4263  0.2404 -1.1921
18202TIP3   OH276020   4.909   1.343  16.512  0.1771 -0.1874  0.8266
18202TIP3    H176021   4.886   1.396  16.588  1.1048 -1.7634  2.2900
18202TIP3    H276022   5.000   1.316  16.528  0.3899 -0.5982 -0.8257
18203TIP3   OH276023   1.330   1.526   4.203 -0.5851 -0.4289  0.4913
18203TIP3    H176024   1.375   1.450   4.240  4.1756  1.4075 -0.7243
18203TIP3    H276025   1.294   1.496   4.120  0.3056 -1.5955  0.5054
18204TIP3   OH276026   2.422   3.460  16.821  0.2944 -0.7948 -0.1004
18204TIP3    H176027   2.345   3.405  16.805 -0.2139  0.2796 -1.5615
18204TIP3    H276028   2.466   3.419  16.896 -0.9243 -2.2479 -0.1391
18205TIP3   OH276029   0.957   0.198   0.666  0.2316  0.3751  0.3888
18205TIP3    H176030   0.939   0.264   0.733  0.9679  0.6400  0.3289
18205TIP3    H276031   0.983   0.248   0.589 -1.2605  0.1077 -0.3218
18206TIP3   OH276032   3.394   2.467  16.304 -0.2606  0.0440 -0.0970
18206TIP3    H176033   3.456   2.394  16.299  0.5415  0.7484 -0.7705
18206TIP3    H276034   3.308   2.426  16.316  0.1380 -1.0168 -0.8328
18207TIP3   OH276035   5.924   0.631   0.826  0.1286 -0.3841  0.5544
18207TIP3    H176036   5.991   0.695   0.801  0.0581 -0.3411  0.4716
18207TIP3    H276037   5.909   0.580   0.746 -0.5781  0.1860  0.3111
18208TIP3   OH276038   3.980   6.608   6.610 -0.5381 -0.0286  0.0232
18208TIP3    H176039   3.978   6.550   6.533  0.4530  0.2561 -0.2313
18208TIP3    H276040   4.045   6.569   6.668  3.0926  2.7534 -1.7868
18209TIP3   OH276041   0.335   6.295  15.463  0.0253  0.1152  0.4853
18209TIP3    H176042   0.322   6.338  15.547  2.3140  0.0766  0.9293
18209TIP3    H276043   0.422   6.254  15.470 -0.6465 -1.7647 -1.1156
18210TIP3   OH276044   1.542   6.146  12.938 -0.1941  0.5257  0.5998
18210TIP3    H176045   1.461   6.151  12.989 -0.5054 -0.2141  0.1864
18210TIP3    H276046   1.547   6.055  12.910  1.5248  0.1822  1.8419
18211TIP3   OH276047   5.379   1.080   2.244  0.1628 -0.1155 -0.2262
18211TIP3    H176048   5.395   1.064   2.151  0.9794 -0.4587 -0.0349
18211TIP3    H276049   5.415   1.003   2.288  1.3140  0.8080  0.5008
18212TIP3   OH276050   0.873   2.416  12.148 -0.0147 -0.4656 -0.1677
18212TIP3    H176051   0.868   2.506  12.117 -1.5346 -0.6963 -0.6529
18212TIP3    H276052   0.807   2.369  12.097  1.9106 -2.2573 -1.1757
18213TIP3   OH276053   0.615   2.691   1.959  0.2562  0.3842 -0.5722
18213TIP3    H176054   0.564   2.610   1.949 -1.3178  0.9689  1.7179
18213TIP3    H276055   0.706   2.664   1.944 -0.2203 -1.8174  0.0475
18214TIP3   OH276056   1.209   3.196   2.484  0.4633  0.2975  0.2823
18214TIP3    H176057   1.261   3.119   2.509  1.2560  0.0090 -2.0505
18214TIP3    H276058   1.118   3.164   2.485  0.6333 -0.2090  0.8261
18215TIP3   OH276059   4.324   4.230   2.330  0.0878 -0.0773  0.3616
18215TIP3    H176060   4.304   4.137   2.319 -1.2390  0.2994 -0.7802
18215TIP3    H276061   4.409   4.242   2.288  0.2752 -0.7668  0.5322
18216TIP3   OH276062   3.938   1.601   1.440  0.5186  0.4273 -0.3808
18216TIP3    H176063   3.885   1.532   1.481  0.5285 -0.9778 -2.5370
18216TIP3    H276064   3.891   1.682   1.460 -0.7020 -0.4343  0.4422
18217TIP3   OH276065   3.026   4.641   4.130  0.4252 -0.1657 -0.0277
18217TIP3    H176066   2.954   4.588   4.095  0.1363 -0.0658  0.4155
18217TIP3    H276067   3.096   4.578   4.148  1.2016 -0.0529 -2.2938
18218TIP3   OH276068   6.417   0.926  14.427  0.0167  0.6393  0.7753
18218TIP3    H176069   6.491   0.886  14.381 -0.9156  0.0419 -0.2774
18218TIP3    H276070   6.437   1.019  14.430  0.2752  0.6425 -0.5640
18219TIP3   OH276071   1.134   5.790  16.168  0.2559  0.4607 -0.7039
18219TIP3    H176072   1.163   5.835  16.089  0.3489  0.1198 -0.8654
18219TIP3    H276073   1.155   5.698  16.152  0.2912  0.3953 -0.2747
18220TIP3   OH276074   5.690   4.292  17.188  0.5222 -0.2354  0.1047
18220TIP3    H176075   5.625   4.349  17.146  0.6935  0.9662  1.3791
18220TIP3    H276076   5.637   4.224  17.230  0.1393  0.1811  0.3163
18221TIP3   OH276077   4.375   6.110  16.210  0.0281  0.5118 -0.0372
18221TIP3    H176078   4.454   6.055  16.212  1.0140  1.8295 -0.7626
18221TIP3    H276079   4.402   6.191  16.252 -1.0033  0.9290 -0.1551
18222TIP3   OH276080   4.359   2.196  13.294  0.3543  0.2354 -0.0100
18222TIP3    H176081   4.415   2.216  13.219  0.5081  1.5436  0.4410
18222TIP3    H276082   4.403   2.123  13.338 -1.1149 -2.4684 -2.6516
18223TIP3   OH276083   2.295   4.451   2.614  0.2498 -0.3874 -0.0232
18223TIP3    H176084   2.249   4.534   2.609  1.4899  0.2715 -1.2888
18223TIP3    H276085   2.277   4.419   2.703 -1.6600  0.3581 -0.0877
18224TIP3   OH276086   4.685   5.695   4.133 -0.4632 -0.4139 -0.0321
18224TIP3    H176087   4.728   5.615   4.102  0.6532  0.4390 -0.7712
18224TIP3    H276088   4.752   5.740   4.185 -0.4367  0.9174 -1.1598
18225TIP3   OH276089   6.616   6.477  11.961  0.1442  0.5391 -0.3021
18225TIP3    H176090   6.613   6.482  11.865 -0.7655  0.9025 -0.2637
18225TIP3    H276091   6.614   6.384  11.980  0.4388  0.4623 -0.6451
18226TIP3   OH276092   0.021   2.998  15.021 -0.3874  0.3444  0.2850
18226TIP3    H176093   0.078   3.072  14.999 -2.3128  1.4942 -1.1864
18226TIP3    H276094  -0.030   3.028  15.096  1.8754 -1.2777  2.6617
18227TIP3   OH276095   1.231   1.562  16.810 -0.0484  0.6483  0.5289
18227TIP3    H176096   1.210   1.553  16.717 -1.1483  1.1424  0.7094
18227TIP3    H276097   1.287   1.639  16.815  1.9661 -0.6887  0.0380
18228TIP3   OH276098   3.409   2.578  13.387 -0.2434  0.8141 -0.7385
18228TIP3    H176099   3.407   2.637  13.462 -1.0024  0.6691 -0.6327
18228TIP3    H276100   3.353   2.505  13.413 -1.4052  1.2664 -1.8326
18229TIP3   OH276101   6.214   1.286  14.940 -0.5600 -0.4949 -0.2984
18229TIP3    H176102   6.232   1.371  14.900 -0.5461  0.4591  1.6604
18229TIP3    H276103   6.124   1.292  14.971 -0.1147 -0.6450  1.1017
18230TIP3   OH276104   3.618   0.406   2.886 -0.3678 -0.4913  0.1044
18230TIP3    H176105   3.691   0.351   2.915 -0.2772 -2.4932 -3.3594
18230TIP3    H276106   3.540   0.352   2.898 -0.9068  0.3898  0.7474
18231TIP3   OH276107   4.044   1.966  13.757  0.0932 -0.2217 -0.5410
18231TIP3    H176108   4.105   2.037  13.737  0.0832  0.1691  0.7665
18231TIP3    H276109   4.096   1.903  13.807 -0.6316  0.2568  0.8491
18232TIP3   OH276110   2.896   5.456   2.753 -0.1296  0.3895 -0.0448
18232TIP3    H176111   2.839   5.476   2.827 -1.3629  2.3582 -1.4540
18232TIP3    H276112   2.973   5.511   2.767 -0.4326  0.8829 -0.2794
18233TIP3   OH276113   1.952   2.696   4.062  0.6103  0.4906  0.0326
18233TIP3    H176114   1.935   2.703   4.156  1.2601 -0.3542  0.2233
18233TIP3    H276115   1.884   2.637   4.030  1.0602 -0.1167  0.1791
18234TIP3   OH276116   4.251   4.207  15.151 -0.4599  0.0112  0.5972
18234TIP3    H176117   4.321   4.237  15.208 -1.0518  0.9011  0.8700
18234TIP3    H276118   4.242   4.275  15.084 -0.7909 -0.2933  0.3205
18235TIP3   OH276119   0.214   0.816   3.084 -0.5262  0.0094 -0.0137
18235TIP3    H176120   0.165   0.899   3.087 -1.5700 -0.4433 -2.3731
18235TIP3    H276121   0.156   0.756   3.037  1.3531 -1.2354 -0.8370
18236TIP3   OH276122   0.215   6.517   0.163 -0.4348  0.3346 -0.3623
18236TIP3    H176123   0.217   6.610   0.143 -1.6113  0.2594 -0.8960
18236TIP3    H276124   0.156   6.509   0.238 -0.4372  0.0027 -0.3960
18237TIP3   OH276125   0.935   3.387  13.753  0.1818  0.0874 -0.5307
18237TIP3    H176126   0.962   3.295  13.755  1.0518  0.2938  2.7397
18237TIP3    H276127   1.015   3.436  13.772 -0.7132  1.3574  0.1259
18238TIP3   OH276128   4.645   4.188  14.724 -0.1082  0.6937  0.0276
18238TIP3    H176129   4.668   4.124  14.791 -0.3707 -0.0535 -0.5846
18238TIP3    H276130   4.550   4.177  14.712 -0.0841  0.9098 -0.3680
18239TIP3   OH276131   2.522   3.419  13.409 -0.1950  0.3586  0.8600
18239TIP3    H176132   2.459   3.348  13.414 -0.9974  0.9503 -0.3884
18239TIP3    H276133   2.469   3.499  13.406  0.5399  0.8339 -0.9858
18240TIP3   OH276134   0.324   5.577   5.862 -0.0095 -0.3910 -0.8200
18240TIP3    H176135   0.348   5.541   5.948  3.6323  0.1382 -1.4472
18240TIP3    H276136   0.361   5.666   5.862 -1.6008  0.3219 -2.2786
18241TIP3   OH276137   5.744   0.968  10.660 -0.4246  0.1587 -0.0767
18241TIP3    H176138   5.788   0.886  10.684  2.9125  1.3193 -1.5073
18241TIP3    H276139   5.729   0.960  10.566  2.3265  1.9958 -0.8008
18242TIP3   OH276140   0.103   0.039   3.290  0.0618  0.0391 -0.3451
18242TIP3    H176141   0.050  -0.025   3.243 -3.0813  1.5177  0.8538
18242TIP3    H276142   0.137   0.096   3.222 -0.2363 -0.7302 -1.1650
18243TIP3   OH276143   1.994   2.368  15.394 -0.6992  0.1151  0.4126
18243TIP3    H176144   1.945   2.446  15.420 -1.2488  0.4626 -1.4516
18243TIP3    H276145   1.930   2.297  15.402 -1.1794  0.3735 -0.8063
18244TIP3   OH276146   4.266   1.198  16.231 -0.2054  0.0331  0.0398
18244TIP3    H176147   4.347   1.216  16.184 -0.1018  0.8373  0.5000
18244TIP3    H276148   4.276   1.109  16.265 -1.1794 -1.4671 -3.2507
18245TIP3   OH276149   2.406   4.047  12.922 -0.0694  0.5579 -0.1433
18245TIP3    H176150   2.481   3.997  12.891 -0.6825 -0.4348 -0.0744
18245TIP3    H276151   2.443   4.112  12.982  0.5751 -0.9912  1.1975
18246TIP3   OH276152   5.386   6.162  12.473  0.3100 -0.3888 -0.5130
18246TIP3    H176153   5.414   6.213  12.397  0.2248 -1.1453 -1.0651
18246TIP3    H276154   5.321   6.217  12.516  0.1506 -0.0712 -1.1510
18247TIP3   OH276155   2.943   1.002   0.119 -0.0453  0.2959  0.4657
18247TIP3    H176156   2.984   1.085   0.144  0.8424  0.1788 -0.5118
18247TIP3    H276157   3.015   0.947   0.089 -0.7257 -0.5272  0.2894
18248TIP3   OH276158   1.008   5.590  15.931 -0.5649  0.0239  0.0336
18248TIP3    H176159   1.078   5.525  15.930 -0.5411 -0.0067  1.6731
18248TIP3    H276160   1.036   5.657  15.868  0.4099 -0.5192 -0.1262
18249TIP3   OH276161   2.434   6.017  14.314 -0.2234 -0.0865 -0.0844
18249TIP3    H176162   2.475   6.101  14.291 -1.4149  0.6807  0.5028
18249TIP3    H276163   2.503   5.968  14.359  0.2389  0.9137  0.3172
18250TIP3   OH276164   0.219   5.513  17.377  0.5667 -0.1254  0.4588
18250TIP3    H176165   0.201   5.509  17.283  1.0334 -2.1966  0.4058
18250TIP3    H276166   0.309   5.544  17.383  0.4124  0.3760  0.2517
18251TIP3   OH276167   5.018   4.743   0.594  0.1775  0.3594  0.4366
18251TIP3    H176168   4.943   4.802   0.586 -0.1242  0.1895  1.7454
18251TIP3    H276169   5.016   4.714   0.686  3.2851  2.2609  1.2541
18252TIP3   OH276170   1.305   5.655   3.159 -0.1422 -0.1539 -0.6725
18252TIP3    H176171   1.388   5.677   3.115  0.2084 -0.2112 -0.0482
18252TIP3    H276172   1.241   5.714   3.119  0.6819  1.7556  0.6350
18253TIP3   OH276173   0.011   1.863  17.018 -0.1270  0.1928 -0.7158
18253TIP3    H176174   0.092   1.865  16.967 -0.4173  1.3773 -1.1482
18253TIP3    H276175  -0.055   1.833  16.956  0.1631 -2.0535 -0.0389
18254TIP3   OH276176   1.408   6.631   1.864  0.0367 -0.2341 -0.0254
18254TIP3    H176177   1.402   6.724   1.885 -0.8804 -0.3326  0.2218
18254TIP3    H276178   1.409   6.587   1.949  1.5064 -0.4214 -0.1150
18255TIP3   OH276179   6.210   2.797   3.303 -0.0485 -0.0002 -0.0131
18255TIP3    H176180   6.205   2.742   3.225 -0.4400 -0.5487  0.3938
18255TIP3    H276181   6.197   2.886   3.270  1.2982 -0.0489 -0.7759
18256TIP3   OH276182   0.463   4.435  16.451  0.1562  0.6222 -0.6858
18256TIP3    H176183   0.513   4.432  16.370  0.2800 -1.0645 -0.5757
18256TIP3    H276184   0.397   4.367  16.442  0.2330  0.3368  0.6460
18257TIP3   OH276185   4.179   5.485   2.276 -0.1496  0.2303 -0.2172
18257TIP3    H176186   4.245   5.416   2.278 -0.8875 -0.7096 -3.0067
18257TIP3    H276187   4.207   5.542   2.204 -1.7582  0.4502 -0.6990
18258TIP3   OH276188   0.928   6.738  16.746 -0.0243  0.4038 -0.2906
18258TIP3    H176189   0.916   6.643  16.746 -0.3508  0.3969  1.5115
18258TIP3    H276190   0.839   6.773  16.736  0.0417  0.5018 -0.5223
18259TIP3   OH276191   1.095   4.394   0.429  0.3938  0.6678  0.0162
18259TIP3    H176192   1.017   4.438   0.462  0.7937 -0.1388  2.1505
18259TIP3    H276193   1.061   4.330   0.366 -0.9289 -0.9226  2.1989
18260TIP3   OH276194   4.292   1.774  14.670  0.3492 -0.2975 -0.3998
18260TIP3    H176195   4.228   1.725  14.619 -0.2973  2.3635 -2.3686
18260TIP3    H276196   4.369   1.779  14.614  0.9237 -0.2756  0.3698
18261TIP3   OH276197   1.694   3.724   2.846  0.1613 -0.7843 -0.2416
18261TIP3    H176198   1.685   3.816   2.871  0.7601 -0.4966 -1.0497
18261TIP3    H276199   1.738   3.684   2.921  0.7822 -0.2013 -0.2817
18262TIP3   OH276200   1.098   5.854  13.676  0.2070 -0.6542  0.6960
18262TIP3    H176201   1.017   5.829  13.633  0.6353  0.6009 -0.9154
18262TIP3    H276202   1.165   5.799  13.634  0.3895 -0.7433  1.0952
18263TIP3   OH276203   6.579   2.387  13.557 -0.2045  0.0128 -0.1690
18263TIP3    H176204   6.522   2.372  13.482 -1.4112  2.0720  0.2634
18263TIP3    H276205   6.531   2.350  13.632  0.5714 -1.1887 -0.2301
18264TIP3   OH276206   2.472   2.674  12.194  0.1952  0.4341  0.2058
18264TIP3    H176207   2.464   2.694  12.287 -0.8356  1.5645 -0.0866
18264TIP3    H276208   2.412   2.736  12.152  1.9644  1.1957 -1.3509
18265TIP3   OH276209   1.575   1.590   5.082  0.4512 -0.1086 -0.1223
18265TIP3    H176210   1.665   1.587   5.048  0.7046  0.4706  0.4709
18265TIP3    H276211   1.579   1.652   5.155 -0.4174 -0.1370 -0.0381
18266TIP3   OH276212   2.076   4.455   5.550 -0.5336 -0.1986  0.8622
18266TIP3    H176213   2.087   4.392   5.479  0.0514 -1.2011  1.8124
18266TIP3    H276214   2.162   4.494   5.562 -0.7537  0.3525  0.6839
18267TIP3   OH276215   3.702   2.110   0.560  0.2015  0.7209  0.6863
18267TIP3    H176216   3.615   2.091   0.596 -0.1168  1.6371  0.4278
18267TIP3    H276217   3.762   2.061   0.616 -0.3770  1.1905  1.7496
18268TIP3   OH276218   6.056   2.700   4.265  0.0814 -0.1164 -0.5348
18268TIP3    H176219   6.019   2.730   4.182  1.1057  1.0644 -0.5870
18268TIP3    H276220   6.119   2.767   4.289 -2.4257  1.3245  2.8728
18269TIP3   OH276221   1.389   5.055   4.386 -0.2299  0.0044  0.0826
18269TIP3    H176222   1.308   5.049   4.336  1.8294  0.5293 -3.6137
18269TIP3    H276223   1.408   5.149   4.391  0.7772 -0.1774 -0.1804
18270TIP3   OH276224   5.737   3.111  15.544  0.2884 -0.5077 -0.3017
18270TIP3    H176225   5.702   3.197  15.568 -1.0285 -0.8187 -0.9897
18270TIP3    H276226   5.821   3.130  15.503 -0.3417  0.5445 -1.1843
18271TIP3   OH276227   0.531   0.754   2.616  0.0905 -0.1503 -0.5994
18271TIP3    H176228   0.499   0.730   2.703  0.6708 -0.5827 -0.5045
18271TIP3    H276229   0.492   0.689   2.557 -0.4406  0.2426 -0.6979
18272TIP3   OH276230   0.044   0.510  10.710 -0.1642  0.1114  0.5149
18272TIP3    H176231   0.076   0.462  10.786  1.4660  0.2843 -0.0053
18272TIP3    H276232   0.063   0.451  10.636 -1.8079 -0.0993  0.2378
18273TIP3   OH276233   0.253   5.993   2.300  0.3739 -0.0703  0.5422
18273TIP3    H176234   0.339   5.952   2.297  0.2148 -0.3795  0.0961
18273TIP3    H276235   0.235   6.019   2.210  1.2994  2.7754  1.0673
18274TIP3   OH276236   2.080   2.948   1.942  0.2697 -0.1735 -0.0418
18274TIP3    H176237   2.145   2.921   1.877  1.2209  1.7770  0.0450
18274TIP3    H276238   2.118   2.921   2.026  0.1841 -0.4790 -0.0969
18275TIP3   OH276239   2.531   3.957  16.731  0.5993 -0.2144  0.1437
18275TIP3    H176240   2.505   4.047  16.754  0.4271 -0.1520 -0.2867
18275TIP3    H276241   2.492   3.903  16.799 -1.0216 -0.1636 -0.6974
18276TIP3   OH276242   5.838   2.559  17.323  0.1512  0.1174  0.3689
18276TIP3    H176243   5.882   2.478  17.347  1.9139  0.3799 -1.6875
18276TIP3    H276244   5.907   2.625  17.321 -1.2540  1.7435  2.0429
18277TIP3   OH276245   0.842   0.473   0.809  0.0763 -0.0654 -0.1655
18277TIP3    H176246   0.913   0.534   0.827 -1.2773  1.6225 -0.3506
18277TIP3    H276247   0.804   0.455   0.895 -1.2047  1.4974 -0.3786
18278TIP3   OH276248   4.167   6.382   1.136 -0.0520 -0.2161 -0.5969
18278TIP3    H176249   4.163   6.478   1.145 -3.5566 -0.1275 -1.6294
18278TIP3    H276250   4.191   6.368   1.044  0.7323 -0.3758 -0.3775
18279TIP3   OH276251   5.733   3.302  16.815 -0.3845 -0.4927  0.3135
18279TIP3    H176252   5.801   3.293  16.748 -0.2700 -0.9575  0.4906
18279TIP3    H276253   5.713   3.395  16.815  1.4298 -0.0466  1.3982
18280TIP3   OH276254   2.026   0.481  16.115  0.0018 -0.2579  0.0163
18280TIP3    H176255   1.986   0.394  16.108 -0.0088 -0.4903  2.2382
18280TIP3    H276256   2.103   0.477  16.059 -0.4082 -1.4455 -0.4856
18281TIP3   OH276257   6.243   2.169   2.540 -0.6001 -0.1549  0.3449
18281TIP3    H176258   6.293   2.250   2.527 -0.8209 -0.2687 -1.3559
18281TIP3    H276259   6.269   2.112   2.468 -0.6479 -1.5197  1.3686
18282TIP3   OH276260   4.718   3.956  14.876 -0.1104  0.0773 -0.2522
18282TIP3    H176261   4.722   3.917  14.789 -0.0647 -1.7391  0.5154
18282TIP3    H276262   4.704   3.882  14.935 -0.4469  1.2928  1.2672
18283TIP3   OH276263   4.917   5.909  17.089  0.1139  0.6308 -0.6969
18283TIP3    H176264   4.970   5.974  17.044 -0.8519  0.1898 -2.5931
18283TIP3    H276265   4.967   5.827  17.081 -0.2625  0.4594 -1.4299
18284TIP3   OH276266   2.203   4.560  13.319  0.2396  0.7892 -0.3620
18284TIP3    H176267   2.124   4.614  13.325 -1.2108 -1.2501 -0.2579
18284TIP3    H276268   2.253   4.600  13.248 -1.2952  1.6418 -1.0191
18285TIP3   OH276269   0.134   5.015   1.977 -0.1988 -0.5543 -0.1067
18285TIP3    H176270   0.153   5.103   1.946  0.6109 -1.2002 -1.5787
18285TIP3    H276271   0.053   4.991   1.932 -1.1554 -0.0959  1.3261
18286TIP3   OH276272   2.368   4.136  17.171  0.2571  0.1716 -0.0579
18286TIP3    H176273   2.312   4.061  17.188  0.0611  0.4831  0.7035
18286TIP3    H276274   2.450   4.116  17.216 -0.5694  1.3976  2.1940
18287TIP3   OH276275   1.383   5.890   3.313 -0.2583 -0.1375  0.0831
18287TIP3    H176276   1.403   5.898   3.219 -1.0903  0.5695 -0.0534
18287TIP3    H276277   1.403   5.799   3.334  3.5410  0.5446  0.1390
18288TIP3   OH276278   2.642   6.577  16.730  0.3449 -0.1928 -0.1911
18288TIP3    H176279   2.660   6.489  16.762 -0.1219  0.2924  1.4686
18288TIP3    H276280   2.711   6.632  16.767  0.9170  0.0958 -1.6025
18289TIP3   OH276281   3.284   2.177   5.084 -0.2290 -0.1149 -0.5577
18289TIP3    H176282   3.292   2.241   5.014 -3.0891  0.0763 -0.8150
18289TIP3    H276283   3.205   2.202   5.131  0.3765 -1.5667  1.3869
18290TIP3   OH276284   4.622   1.595  16.940  0.5202  0.1091 -0.3210
18290TIP3    H176285   4.680   1.584  16.865 -0.5460 -2.4112 -0.8713
18290TIP3    H276286   4.542   1.632  16.902  0.3862 -0.0695 -0.2109
18291TIP3   OH276287   4.879   2.490  15.887 -0.4864  0.6582  0.2527
18291TIP3    H176288   4.813   2.555  15.911 -0.8922 -0.7306  3.5115
18291TIP3    H276289   4.874   2.424  15.957  3.6012 -0.0624  0.1391
18292TIP3   OH276290   2.558   0.433   2.046 -0.1346  0.2433  0.5630
18292TIP3    H176291   2.630   0.412   1.988 -1.7187  1.8889 -2.2254
18292TIP3    H276292   2.501   0.356   2.043  0.3612 -0.1470  0.9460
18293TIP3   OH276293   0.853   4.844   0.545 -0.0448  0.2479 -0.4590
18293TIP3    H176294   0.816   4.932   0.546 -2.1459 -0.5668 -0.0813
18293TIP3    H276295   0.779   4.787   0.522  1.0066 -1.4970  0.2524
18294TIP3   OH276296   2.913   6.638  14.047  0.3129  0.2804 -0.0723
18294TIP3    H176297   2.986   6.643  13.986  0.8934 -0.6685  0.5026
18294TIP3    H276298   2.920   6.550  14.085 -1.9015 -0.3419 -0.9458
18295TIP3   OH276299   4.464   5.926   4.158 -0.0320 -0.0626  0.2299
18295TIP3    H176300   4.402   5.964   4.220 -0.6743 -0.9847  0.1836
18295TIP3    H276301   4.537   5.896   4.212 -0.8716 -1.4400  0.6644
18296TIP3   OH276302   2.307   1.255   2.155 -0.6952 -0.3138 -0.3415
18296TIP3    H176303   2.397   1.288   2.152 -0.4513 -0.7980  1.0466
18296TIP3    H276304   2.295   1.213   2.070 -0.0955  0.9381 -1.0925
18297TIP3   OH276305   2.410   0.605  10.826  0.1559  0.6602  0.3017
18297TIP3    H176306   2.393   0.525  10.776 -2.2461  2.1878 -1.6068
18297TIP3    H276307   2.463   0.577  10.900  0.3130 -2.4844 -0.8551
18298TIP3   OH276308   1.479   5.638  12.610 -0.1987  0.7839 -0.3126
18298TIP3    H176309   1.423   5.598  12.676  1.3258 -1.1726 -0.1341
18298TIP3    H276310   1.493   5.727  12.642 -1.4413  0.6354  0.7294
18299TIP3   OH276311   5.123   1.643  11.940  0.1135 -0.2532  0.1249
18299TIP3    H176312   5.109   1.718  11.998  0.2619 -0.1510  0.0296
18299TIP3    H276313   5.169   1.579  11.994  1.0037  0.1699 -0.1140
18300TIP3   OH276314   2.508   0.948  15.788  0.6819 -0.2261 -0.7518
18300TIP3    H176315   2.555   0.878  15.742 -1.6046 -3.0435  0.8875
18300TIP3    H276316   2.477   1.006  15.717  1.7915 -1.3783 -2.2531
18301TIP3   OH276317   5.167   5.372   5.967  0.1772 -0.1293  0.4766
18301TIP3    H176318   5.123   5.313   6.027  0.1522 -1.0079 -0.3900
18301TIP3    H276319   5.252   5.389   6.009 -0.1980  0.0104  1.1968
18302TIP3   OH276320   6.184   0.578   4.017  0.3839 -0.8024 -0.1142
18302TIP3    H176321   6.117   0.512   4.032 -0.4951  0.3958  1.5912
18302TIP3    H276322   6.161   0.618   3.933 -1.1884 -0.3003  0.5156
18303TIP3   OH276323   3.686   3.423   3.914  0.2233  0.3686  0.2449
18303TIP3    H176324   3.639   3.486   3.860  0.1370 -0.8785 -1.1962
18303TIP3    H276325   3.777   3.450   3.909  0.2709  0.0485 -0.8695
18304TIP3   OH276326   6.613   3.199  12.810  0.7639 -0.1439 -0.3767
18304TIP3    H176327   6.545   3.185  12.744  0.3589  1.1481 -0.2597
18304TIP3    H276328   6.565   3.223  12.889  1.3352  0.3898 -0.1877
18305TIP3   OH276329   2.397   0.732  15.197 -0.0343 -0.3179  0.3373
18305TIP3    H176330   2.415   0.820  15.164 -2.6992  0.3440  0.4210
18305TIP3    H276331   2.398   0.677  15.119  1.1786 -0.1715  0.2236
18306TIP3   OH276332   5.474   2.984   0.503  0.7052 -0.7441 -0.3615
18306TIP3    H176333   5.456   2.942   0.587 -1.2145  0.5513 -0.0661
18306TIP3    H276334   5.480   2.912   0.440  0.2884 -1.6106  0.5737
18307TIP3   OH276335   3.460   3.874  14.899  0.3080  0.1528  0.2414
18307TIP3    H176336   3.454   3.940  14.829 -1.2361  1.9040  1.8999
18307TIP3    H276337   3.373   3.834  14.901 -0.1054  1.0584  1.9660
18308TIP3   OH276338   4.435   4.041   1.547  0.3019  0.0840 -0.0052
18308TIP3    H176339   4.486   3.971   1.505 -0.5645 -1.1319  0.8990
18308TIP3    H276340   4.384   4.079   1.476  0.6530 -0.3126 -0.4810
18309TIP3   OH276341   4.144   4.909   3.759  0.1116 -0.0431 -0.0708
18309TIP3    H176342   4.072   4.900   3.822  0.0379 -0.8068 -0.2443
18309TIP3    H276343   4.201   4.834   3.778 -0.2977 -0.7278 -1.4025
18310TIP3   OH276344   3.782   3.095  16.228 -0.2843  0.7686  0.2628
18310TIP3    H176345   3.818   3.024  16.174 -0.1096  2.2652 -1.7035
18310TIP3    H276346   3.859   3.140  16.263 -0.3966 -0.1203  1.7394
18311TIP3   OH276347   0.469   0.551  11.495  0.0758 -0.0724 -0.0414
18311TIP3    H176348   0.516   0.577  11.575  0.4425 -0.4448 -0.1312
18311TIP3    H276349   0.538   0.517  11.437 -0.2509 -0.2299 -0.3406
18312TIP3   OH276350   3.169   5.299  14.943 -0.0145  0.0242  0.1159
18312TIP3    H176351   3.205   5.385  14.921 -0.3168  0.0420 -0.3331
18312TIP3    H276352   3.189   5.245  14.866 -1.3771  0.1673 -0.3630
18313TIP3   OH276353   2.885   1.852  17.068 -0.5963 -0.6643  0.1852
18313TIP3    H176354   2.797   1.850  17.030  0.1964 -0.6207 -1.7399
18313TIP3    H276355   2.944   1.860  16.993  1.0291  0.1461  1.4768
18314TIP3   OH276356   1.420   5.745   3.705  0.3009  0.4270  0.4676
18314TIP3    H176357   1.416   5.835   3.674  0.2123  0.0893 -0.5445
18314TIP3    H276358   1.399   5.751   3.798  1.8332  1.6180  0.7690
18315TIP3   OH276359   4.967   4.497   5.847 -0.3004 -0.3048 -0.4651
18315TIP3    H176360   4.945   4.574   5.794  2.1839  2.0071  1.5975
18315TIP3    H276361   5.052   4.469   5.813 -0.2019 -0.8184  0.2045
18316TIP3   OH276362   2.755   1.554   4.797 -0.1545 -0.4053 -0.3257
18316TIP3    H176363   2.827   1.491   4.801 -2.0571 -2.6855 -0.5129
18316TIP3    H276364   2.763   1.593   4.710  1.2746 -0.0305 -0.0638
18317TIP3   OH276365   6.565   1.294   0.880  0.1441 -0.2403  0.4034
18317TIP3    H176366   6.590   1.317   0.791 -0.0643 -3.4508 -0.6093
18317TIP3    H276367   6.626   1.224   0.904 -1.0683 -0.8051  2.0014
18318TIP3   OH276368   0.351   1.137  14.123  0.0581 -0.7594 -0.0556
18318TIP3    H176369   0.368   1.090  14.041  1.2988 -0.6201  0.1053
18318TIP3    H276370   0.267   1.103  14.153  0.4331 -2.1197 -0.4782
18319TIP3   OH276371   0.692   1.200   1.813  0.3166 -0.0664  0.1986
18319TIP3    H176372   0.782   1.186   1.786  0.7018  1.6305  0.4927
18319TIP3    H276373   0.698   1.221   1.907 -0.6029 -1.9238  0.7227
18320TIP3   OH276374   6.485   6.489   3.908  0.3930  0.3102  0.0781
18320TIP3    H176375   6.496   6.525   3.996 -0.4742  0.5982  0.0779
18320TIP3    H276376   6.483   6.566   3.851  1.8275  0.0898 -0.3135
18321TIP3   OH276377   2.591   1.997   3.409 -0.0937 -0.0748  0.2132
18321TIP3    H176378   2.647   1.926   3.442  2.0302  1.0554 -0.7157
18321TIP3    H276379   2.640   2.077   3.429 -1.0683  0.9383 -1.2556
18322TIP3   OH276380   2.442   1.027  11.131 -0.0908  0.3900  0.0062
18322TIP3    H176381   2.372   1.026  11.067  0.7049 -1.2851 -0.9115
18322TIP3    H276382   2.441   0.939  11.169  2.5786 -0.3221 -1.3145
18323TIP3   OH276383   4.713   3.139   5.962 -0.2498 -0.1258 -0.1165
18323TIP3    H176384   4.755   3.205   5.906  3.0295 -0.7001  1.3913
18323TIP3    H276385   4.750   3.056   5.932 -2.1812 -1.0060 -0.1739
18324TIP3   OH276386   2.189   4.169   4.803  0.6386  0.1726 -0.2093
18324TIP3    H176387   2.279   4.173   4.771  0.1390 -0.2630 -1.7427
18324TIP3    H276388   2.162   4.261   4.810  0.4253  0.3054 -2.1324
18325TIP3   OH276389   4.374   3.241   6.034 -0.0451  0.5609  0.2495
18325TIP3    H176390   4.333   3.263   6.118  1.2305  2.0157  0.5436
18325TIP3    H276391   4.402   3.151   6.043 -1.5352  0.1196  0.6956
18326TIP3   OH276392   6.443   3.936   2.599 -0.2077 -0.3506  0.3467
18326TIP3    H176393   6.458   3.925   2.693 -2.2618  0.5767  0.8362
18326TIP3    H276394   6.495   4.012   2.575  0.3913 -0.6406  0.7118
18327TIP3   OH276395   1.063   4.334   4.831 -0.5382 -0.3822 -0.5918
18327TIP3    H176396   1.017   4.314   4.749  0.5968 -1.4730 -0.9986
18327TIP3    H276397   0.995   4.334   4.898 -1.3761 -0.2154 -1.4276
18328TIP3   OH276398   0.386   2.365  15.380  0.2718  0.2199 -0.1343
18328TIP3    H176399   0.295   2.392  15.390  0.2404  0.1775 -0.3106
18328TIP3    H276400   0.384   2.298  15.313  0.5610  0.9103 -0.8456
18329TIP3   OH276401   5.262   5.519  16.076 -0.1533 -0.1876  0.1068
18329TIP3    H176402   5.216   5.494  15.997  0.5605  0.6036 -0.5799
18329TIP3    H276403   5.235   5.455  16.141  0.4322 -1.8070 -1.1747
18330TIP3   OH276404   5.085   3.721   4.470 -0.1583  0.1202  0.2184
18330TIP3    H176405   5.116   3.811   4.477  0.6956 -0.2313  1.3858
18330TIP3    H276406   4.991   3.728   4.453  0.0813  1.2163 -0.7317
18331TIP3   OH276407   2.251   5.464   6.541  0.1553 -0.0913  0.7712
18331TIP3    H176408   2.293   5.389   6.497 -0.2461  0.2986 -0.3126
18331TIP3    H276409   2.324   5.519   6.567  0.3766  0.2740 -0.5419
18332TIP3   OH276410   4.696   6.537   1.859  0.3878 -0.1495  0.5607
18332TIP3    H176411   4.781   6.501   1.884 -0.4637 -1.3919  1.8049
18332TIP3    H276412   4.633   6.472   1.889 -1.0274  0.8795 -0.0867
18333TIP3   OH276413   4.802   6.274   0.230  0.7397 -0.0516  0.0728
18333TIP3    H176414   4.740   6.322   0.284  1.6452  0.3855  0.7572
18333TIP3    H276415   4.754   6.196   0.201 -0.9339  1.4597 -1.4643
18334TIP3   OH276416   4.632   6.665  16.032 -0.6721 -0.1755 -0.4834
18334TIP3    H176417   4.721   6.675  16.065  0.1701 -0.7161 -2.4514
18334TIP3    H276418   4.578   6.713  16.094  1.0830  0.8312  0.3352
18335TIP3   OH276419   5.968   4.646  11.287  0.2682  0.1695  0.0312
18335TIP3    H176420   5.987   4.733  11.321 -0.5781  0.6636 -0.7506
18335TIP3    H276421   5.945   4.659  11.195 -0.5649 -0.7805  0.0811
18336TIP3   OH276422   2.500   4.226  16.827  0.3594 -0.0716  0.3384
18336TIP3    H176423   2.519   4.272  16.909 -0.0146 -0.7027  0.7922
18336TIP3    H276424   2.555   4.269  16.762  0.8931  0.2411  0.9813
18337TIP3   OH276425   6.444   0.646  16.200  0.6705  0.0686 -0.6548
18337TIP3    H176426   6.522   0.591  16.210  1.5275  1.4531  0.8541
18337TIP3    H276427   6.418   0.666  16.290 -0.0020  1.5540 -1.1447
18338TIP3   OH276428   4.489   5.363  16.395  0.1737 -0.5453 -0.1600
18338TIP3    H176429   4.468   5.409  16.476  1.1123 -0.5691  0.1118
18338TIP3    H276430   4.468   5.425  16.325  2.1772  0.6511  0.2252
18339TIP3   OH276431   1.488   1.597   3.293  1.0091  0.0356  0.0994
18339TIP3    H176432   1.473   1.594   3.198 -1.2570 -1.5519  0.4274
18339TIP3    H276433   1.575   1.636   3.302  0.9252  1.0637 -2.5723
18340TIP3   OH276434   1.974   6.198   3.247 -0.7425 -0.4456 -0.1232
18340TIP3    H176435   1.966   6.103   3.260 -1.6659 -0.4002 -0.3242
18340TIP3    H276436   2.046   6.224   3.305 -1.1845 -1.0981  0.7384
18341TIP3   OH276437   2.332   0.336  15.106  0.0489  0.3710  0.3796
18341TIP3    H176438   2.356   0.372  15.020 -0.9923  0.5111  0.1309
18341TIP3    H276439   2.246   0.297  15.092 -0.4469  1.0188  1.5381
18342TIP3   OH276440   2.851   0.797  14.679  0.3191 -0.6473  0.4296
18342TIP3    H176441   2.829   0.755  14.596  1.7579 -0.2176 -0.1889
18342TIP3    H276442   2.770   0.790  14.731 -0.7717 -0.4866 -1.1618
18343TIP3   OH276443   0.913   5.336   5.472 -0.1407 -0.3253  0.5600
18343TIP3    H176444   0.855   5.318   5.398  0.8305  1.4115 -0.7023
18343TIP3    H276445   1.001   5.321   5.438  0.2614 -1.6033  2.0422
18344TIP3   OH276446   3.763   4.754  16.681 -0.4900  0.2586 -0.2043
18344TIP3    H176447   3.760   4.704  16.762  0.6685  0.0201 -0.2925
18344TIP3    H276448   3.777   4.844  16.708  1.2769  0.0034 -0.1522
18345TIP3   OH276449   0.665   4.014  15.237 -0.1048  0.4379 -0.0521
18345TIP3    H176450   0.570   4.023  15.233 -0.1983  0.4677  1.4114
18345TIP3    H276451   0.680   3.964  15.317  1.0556 -0.7897 -1.0016
18346TIP3   OH276452   1.704   1.782  17.313  0.0132  0.3670  0.2653
18346TIP3    H176453   1.715   1.689  17.292 -1.0993  0.5337 -1.2199
18346TIP3    H276454   1.778   1.802  17.370  1.1920 -1.0435 -0.6789
18347TIP3   OH276455   0.238   6.300   0.866  0.1333  0.4740  0.0907
18347TIP3    H176456   0.296   6.335   0.799 -0.5145 -0.0713 -0.7767
18347TIP3    H276457   0.150   6.315   0.832 -0.2188  0.5191  0.9937
18348TIP3   OH276458   4.409   6.418  15.463  0.1068 -0.0796  0.0341
18348TIP3    H176459   4.397   6.497  15.409  3.7030  0.3046 -0.4752
18348TIP3    H276460   4.427   6.452  15.551  0.5993 -0.3641  0.0450
18349TIP3   OH276461   2.437   4.868   1.394  0.3848 -0.0024  0.3221
18349TIP3    H176462   2.366   4.929   1.373 -0.8657 -0.4784  2.7095
18349TIP3    H276463   2.473   4.842   1.310 -2.3618  0.1727 -1.0057
18350TIP3   OH276464   4.941   4.815  17.210 -0.0680  0.2675  0.3888
18350TIP3    H176465   5.006   4.871  17.168  0.2854  0.0734  0.6788
18350TIP3    H276466   4.972   4.726  17.195 -0.4483  0.1586  0.2291
18351TIP3   OH276467   5.214   2.125  13.959  0.0587 -0.1525 -0.4876
18351TIP3    H176468   5.161   2.106  13.882  0.4783 -0.6483 -0.6587
18351TIP3    H276469   5.302   2.141  13.925  0.0292  0.6867 -0.2068
18352TIP3   OH276470   3.137   6.008   4.429  0.1581 -0.4156  0.3887
18352TIP3    H176471   3.056   5.963   4.404  1.2109 -1.2455 -1.7475
18352TIP3    H276472   3.109   6.097   4.449 -1.1636 -0.3297 -1.5470
18353TIP3   OH276473   4.870   2.436   4.084  0.3481  0.1144  0.0046
18353TIP3    H176474   4.939   2.433   4.017 -0.5249 -0.2460 -0.9032
18353TIP3    H276475   4.917   2.452   4.165  1.4157  0.8949 -0.7320
18354TIP3   OH276476   4.043   5.693   5.846  0.0897  0.0946  0.2411
18354TIP3    H176477   4.052   5.660   5.756  1.6230 -0.9086  0.7174
18354TIP3    H276478   4.068   5.785   5.840  2.1267 -0.4379 -0.0687
18355TIP3   OH276479   2.950   3.704  16.663  0.0493 -0.0836 -0.5093
18355TIP3    H176480   3.034   3.704  16.708  0.1739  0.4929 -0.7323
18355TIP3    H276481   2.922   3.796  16.664 -1.7882 -0.5646  1.7679
18356TIP3   OH276482   6.598   2.249  16.353 -0.0161 -0.1367  0.2109
18356TIP3    H176483   6.535   2.182  16.380 -0.9219  1.2327  1.6235
18356TIP3    H276484   6.683   2.215  16.381 -0.1260 -1.7224 -1.1818
18357TIP3   OH276485   4.245   5.437  13.210  0.1409 -0.2560 -0.7631
18357TIP3    H176486   4.335   5.463  13.228 -0.5634  2.3931 -0.5833
18357TIP3    H276487   4.192   5.498  13.262 -1.7620 -1.3027 -1.3872
18358TIP3   OH276488   6.355   6.157   4.180  0.2757 -0.1264 -0.6277
18358TIP3    H176489   6.395   6.164   4.267  0.5082  0.5350 -0.7788
18358TIP3    H276490   6.266   6.191   4.192  0.2976 -0.0634 -0.6427
18359TIP3   OH276491   5.700   1.229  14.787  0.2606 -0.3433 -0.2220
18359TIP3    H176492   5.726   1.273  14.706  1.2334  1.0422  0.8009
18359TIP3    H276493   5.746   1.145  14.785  0.4795 -0.2135 -0.9587
18360TIP3   OH276494   4.027   2.388  11.143  0.5671  0.1607 -0.1904
18360TIP3    H176495   3.994   2.452  11.080 -0.2623  0.3716  0.4435
18360TIP3    H276496   4.031   2.306  11.095 -1.0691  0.0930 -0.2436
18361TIP3   OH276497   2.615   0.050   6.002 -0.2482  0.0879 -0.1010
18361TIP3    H176498   2.601  -0.021   6.064 -0.7118  2.0496  2.1986
18361TIP3    H276499   2.693   0.095   6.035  0.4912  0.2522 -1.9379
18362TIP3   OH276500   6.692   2.240  11.805 -0.5943 -0.2122 -0.4682
18362TIP3    H176501   6.750   2.312  11.831 -1.1232  0.1146 -0.1778
18362TIP3    H276502   6.680   2.189  11.885  0.1829 -0.9263 -0.7869
18363TIP3   OH276503   0.775   4.681   2.713  0.3747 -0.0667  0.1199
18363TIP3    H176504   0.820   4.765   2.717  0.9074 -0.3752  0.9435
18363TIP3    H276505   0.796   4.639   2.797 -0.7886 -0.5588  0.1796
18364TIP3   OH276506   2.635   6.682  14.725 -0.1513 -0.0014 -0.0542
18364TIP3    H176507   2.600   6.738  14.655  0.7621  1.3573  0.5221
18364TIP3    H276508   2.559   6.663  14.780 -0.7049 -0.3188 -0.9064
18365TIP3   OH276509   0.444   6.710   2.927 -0.1874  0.1823 -0.1103
18365TIP3    H176510   0.481   6.758   2.853 -1.1526 -0.0046 -0.7210
18365TIP3    H276511   0.456   6.618   2.905  2.5376  0.0490  1.4926
18366TIP3   OH276512   3.576   4.476  16.690 -0.7577 -0.1556 -0.4437
18366TIP3    H176513   3.663   4.472  16.651 -0.4814 -0.9547  0.2081
18366TIP3    H276514   3.522   4.522  16.626 -0.0109 -0.2485 -1.1512
18367TIP3   OH276515   6.302   5.431  12.170 -0.5031 -0.0412 -0.5369
18367TIP3    H176516   6.351   5.372  12.228  0.4269 -0.7530 -1.9890
18367TIP3    H276517   6.221   5.450  12.219  0.6706  0.2127  1.4030
18368TIP3   OH276518   4.638   0.918   3.948 -0.5472  0.9624 -0.2103
18368TIP3    H176519   4.686   0.859   3.890  0.6850 -1.4321  2.9046
18368TIP3    H276520   4.698   0.990   3.965  0.1400  0.3645 -0.0044
18369TIP3   OH276521   4.118   1.082   6.653 -1.0789  0.2421  0.1297
18369TIP3    H176522   4.109   1.173   6.680 -1.1797  0.0029  0.9249
18369TIP3    H276523   4.028   1.051   6.643 -1.0449  0.2418 -0.1975
18370TIP3   OH276524   4.148   2.645   0.875 -0.4087  0.0128  0.5960
18370TIP3    H176525   4.126   2.596   0.796 -0.2356 -0.8454  1.0658
18370TIP3    H276526   4.193   2.581   0.931 -1.8737  0.1703  2.0335
18371TIP3   OH276527   1.812   5.076  13.109  0.3146 -0.5131 -0.3663
18371TIP3    H176528   1.811   5.038  13.197  3.1621 -0.9906 -0.4233
18371TIP3    H276529   1.867   5.016  13.058 -1.4129 -0.3675 -2.5916
18372TIP3   OH276530   5.468   4.098   3.080  0.0345  0.6525  0.4252
18372TIP3    H176531   5.543   4.041   3.097 -1.6070 -1.5326  0.7187
18372TIP3    H276532   5.505   4.186   3.076  2.9011 -0.4827 -1.2585
18373TIP3   OH276533   0.315   4.155  12.819 -0.2084 -0.0295 -0.6021
18373TIP3    H176534   0.385   4.214  12.846  1.3004 -2.0109  0.0951
18373TIP3    H276535   0.339   4.127  12.731 -1.1055  0.6325 -1.0760
18374TIP3   OH276536   5.952   0.710  11.439  1.0633 -0.0938 -0.0440
18374TIP3    H176537   5.877   0.660  11.409  0.3185  0.5138  0.7557
18374TIP3    H276538   5.973   0.673  11.525  0.2636  1.1713  0.7319
18375TIP3   OH276539   5.441   3.186   3.380  0.5346 -0.0336  0.0697
18375TIP3    H176540   5.423   3.111   3.438  0.4828  0.2796  0.4637
18375TIP3    H276541   5.529   3.214   3.405  0.0250  0.9026  0.9009
18376TIP3   OH276542   3.599   5.036   5.821 -0.4785 -1.1840 -0.0609
18376TIP3    H176543   3.689   5.010   5.839 -0.4230 -1.9464 -1.3200
18376TIP3    H276544   3.566   4.969   5.761 -2.0709 -1.2253  0.8211
18377TIP3   OH276545   5.284   1.288   4.433  0.6702  0.4770  0.5876
18377TIP3    H176546   5.308   1.373   4.396 -1.0381  0.8236  0.1685
18377TIP3    H276547   5.243   1.308   4.517 -0.0723  0.1324  0.3275
18378TIP3   OH276548   5.194   1.517  16.299 -0.4066 -0.2385  0.4842
18378TIP3    H176549   5.198   1.597  16.352 -1.0087 -0.4751  0.9075
18378TIP3    H276550   5.277   1.472  16.316 -0.5573 -0.2687  1.1682
18379TIP3   OH276551   3.374   1.198   3.416 -0.0927  0.5020  0.1428
18379TIP3    H176552   3.352   1.243   3.498  2.7496 -0.5775  1.6344
18379TIP3    H276553   3.402   1.269   3.357  0.6306  1.0656  1.1343
18380TIP3   OH276554   4.804   1.044   1.393 -0.2256 -0.1750  0.7482
18380TIP3    H176555   4.872   0.977   1.397 -0.0881  0.0232  2.3243
18380TIP3    H276556   4.741   1.019   1.461 -1.1065  0.3181  0.1404
18381TIP3   OH276557   0.235   5.192   3.250  0.5484  0.5168 -0.2748
18381TIP3    H176558   0.201   5.270   3.295 -2.3749  0.1909 -1.6782
18381TIP3    H276559   0.271   5.226   3.169  0.7891  0.5587 -0.1515
18382TIP3   OH276560   0.375   0.332   6.085 -0.6699  0.4012  0.0904
18382TIP3    H176561   0.414   0.287   6.159 -2.1330  0.2419  0.7923
18382TIP3    H276562   0.383   0.271   6.012  1.1571  0.7254 -0.0317
18383TIP3   OH276563   6.475   0.456   0.587 -0.4234  0.5380 -0.2944
18383TIP3    H176564   6.440   0.398   0.520 -0.7100 -0.2806  0.5495
18383TIP3    H276565   6.536   0.401   0.637 -1.5803  0.5861  1.2612
18384TIP3   OH276566   3.725   4.270   1.957  0.2072 -0.4239 -0.4073
18384TIP3    H176567   3.769   4.345   1.996 -0.4170 -0.6477  0.7750
18384TIP3    H276568   3.671   4.234   2.027  0.1641 -1.7281 -1.0645
18385TIP3   OH276569   6.618   5.993  15.449  0.2141  0.0002 -0.3078
18385TIP3    H176570   6.632   5.965  15.540  1.0867  0.2718 -0.3500
18385TIP3    H276571   6.704   5.983  15.407  0.1321  1.0979 -0.7683
18386TIP3   OH276572   1.461   1.982  13.666  0.1940  0.2530 -0.1312
18386TIP3    H176573   1.501   2.068  13.680  0.9698 -0.1666  0.3069
18386TIP3    H276574   1.447   1.948  13.754  1.2820 -0.6859 -0.3002
18387TIP3   OH276575   4.360   1.667   1.209 -0.7445  0.0975 -0.4097
18387TIP3    H176576   4.409   1.614   1.272  0.3604  0.3777 -1.0168
18387TIP3    H276577   4.276   1.621   1.201 -0.9513  0.1119  1.3198
18388TIP3   OH276578   0.536   3.074   2.278 -0.4202  0.2542 -0.0153
18388TIP3    H176579   0.486   2.993   2.291 -0.5039  0.3658  0.3911
18388TIP3    H276580   0.612   3.064   2.335  0.2238 -0.0767 -0.9195
18389TIP3   OH276581   3.276   1.565  13.468 -0.3843  0.0325 -0.1130
18389TIP3    H176582   3.372   1.556  13.467 -0.3429  0.4871 -0.4357
18389TIP3    H276583   3.244   1.486  13.424 -0.0310  1.2880 -2.7929
18390TIP3   OH276584   1.572   0.493  11.926  0.4382 -0.0141 -0.4694
18390TIP3    H176585   1.562   0.539  12.009 -0.8903  1.3888 -1.3410
18390TIP3    H276586   1.511   0.419  11.932  0.1446  0.2422 -0.2956
18391TIP3   OH276587   2.191   2.853  16.277 -0.4700  0.2177  0.1320
18391TIP3    H176588   2.234   2.869  16.361 -1.3804  3.0690  0.1646
18391TIP3    H276589   2.100   2.833  16.300 -0.6757  0.8104 -0.1450
18392TIP3   OH276590   2.529   2.283   2.919  0.5716  0.5581 -0.3166
18392TIP3    H176591   2.606   2.293   2.862 -0.0410 -0.0296 -1.2717
18392TIP3    H276592   2.462   2.246   2.862  0.1179 -0.6424  0.9446
18393TIP3   OH276593   4.274   0.425  13.258 -0.0784  0.2294  0.2786
18393TIP3    H176594   4.200   0.386  13.303  0.5371 -1.3556 -0.0139
18393TIP3    H276595   4.349   0.370  13.283  0.6709  0.7189 -0.8210
18394TIP3   OH276596   5.921   4.345  16.345 -0.1546  0.2897 -0.1222
18394TIP3    H176597   5.875   4.341  16.261  1.3891 -0.2960 -0.9757
18394TIP3    H276598   5.942   4.254  16.365  1.6239  0.6224 -0.3386
18395TIP3   OH276599   2.181   3.404   2.998 -0.0449 -0.6178 -0.1710
18395TIP3    H176600   2.184   3.435   3.089 -0.1038  1.2944 -0.7813
18395TIP3    H276601   2.273   3.397   2.972 -0.0108 -1.7459  0.1912
18396TIP3   OH276602   6.025   3.561   2.430 -0.8016 -0.1547 -0.8748
18396TIP3    H176603   6.051   3.650   2.405 -2.3260  1.4601  2.5075
18396TIP3    H276604   6.090   3.504   2.390  0.4572  2.5020 -2.8976
18397TIP3   OH276605   3.086   5.594   2.898  0.0876 -0.3790  0.1753
18397TIP3    H176606   3.108   5.677   2.940  1.0596 -0.3862 -0.2845
18397TIP3    H276607   3.142   5.529   2.941 -0.5818 -0.7846  0.4534
18398TIP3   OH276608   3.671   5.138   0.375 -0.4447 -0.4300 -0.0007
18398TIP3    H176609   3.656   5.199   0.447 -1.8422 -0.0484 -0.5739
18398TIP3    H276610   3.611   5.066   0.392 -1.6295  0.1833 -1.3277
18399TIP3   OH276611   6.327   4.366  16.605  0.9431  0.3518  0.0333
18399TIP3    H176612   6.420   4.353  16.622  0.7968 -0.1263  0.4824
18399TIP3    H276613   6.325   4.420  16.525  1.6048  0.7513  0.2781
18400TIP3   OH276614   0.976   5.084   4.041 -0.1508 -0.0211  0.4093
18400TIP3    H176615   1.012   5.098   3.954 -0.1252 -3.1050 -0.1829
18400TIP3    H276616   0.881   5.082   4.028 -0.1133 -1.5732  0.2022
18401TIP3   OH276617   0.658   4.865  15.522  0.0588 -0.2833 -0.5897
18401TIP3    H176618   0.658   4.855  15.427  0.1602  0.0853 -0.6321
18401TIP3    H276619   0.589   4.806  15.553 -0.5242  0.1902 -0.9617
18402TIP3   OH276620   1.125   1.628  14.084 -0.0804  0.3759  0.4820
18402TIP3    H176621   1.111   1.595  13.995 -0.0943 -2.1472  1.3386
18402TIP3    H276622   1.220   1.636  14.093  0.1550 -2.3125  1.1334
18403TIP3   OH276623   5.181   4.148  15.047  0.5272  0.1705  0.2748
18403TIP3    H176624   5.128   4.100  14.983  0.9656 -1.1790  0.9036
18403TIP3    H276625   5.134   4.231  15.058 -2.2702 -1.4486  1.7635
18404TIP3   OH276626   4.428   6.113   0.777 -0.0635  0.4287  0.6097
18404TIP3    H176627   4.485   6.169   0.723 -0.4601  0.7653  0.5396
18404TIP3    H276628   4.486   6.042   0.805  0.4369  0.8404  0.6566
18405TIP3   OH276629   3.778   6.686   1.328 -0.7951 -0.5693  0.0830
18405TIP3    H176630   3.780   6.688   1.424 -1.7494 -1.3216  0.1335
18405TIP3    H276631   3.811   6.599   1.305  0.7558  0.1011 -0.3424
18406TIP3   OH276632   5.823   0.336   4.478 -0.0212  0.0196 -0.4107
18406TIP3    H176633   5.761   0.398   4.441 -1.9376 -0.8513  1.0924
18406TIP3    H276634   5.807   0.341   4.573  0.3035 -2.1421 -0.1942
18407TIP3   OH276635   2.458   2.114   4.508 -0.0800  0.7626  0.0140
18407TIP3    H176636   2.537   2.063   4.528  0.2017  0.3480 -1.9673
18407TIP3    H276637   2.472   2.146   4.419 -2.0568  0.8474 -0.3060
18408TIP3   OH276638   3.393   3.402  11.442  0.0286  0.0396  0.2908
18408TIP3    H176639   3.439   3.375  11.521 -1.5055 -0.7475  0.9547
18408TIP3    H276640   3.444   3.363  11.370  2.5194  2.2845  0.6462
18409TIP3   OH276641   6.731   0.382  13.027  0.1548 -0.3794  0.2145
18409TIP3    H176642   6.734   0.287  13.035  1.2395 -0.5177 -1.3538
18409TIP3    H276643   6.727   0.398  12.933  1.4118  1.1333  0.3753
18410TIP3   OH276644   2.477   2.023   3.720  0.1957  0.2830 -0.0042
18410TIP3    H176645   2.461   1.929   3.732  1.3792  0.2315  1.3791
18410TIP3    H276646   2.547   2.044   3.782  0.9841  1.7813 -1.3205
18411TIP3   OH276647   0.793   3.237  16.713  0.2153 -0.2987 -0.2225
18411TIP3    H176648   0.805   3.143  16.703 -2.4191 -0.5876 -1.6313
18411TIP3    H276649   0.787   3.270  16.623 -1.6217  0.7384  0.2306
18412TIP3   OH276650   6.306   3.431   6.460  0.0835  0.1237  0.2950
18412TIP3    H176651   6.246   3.358   6.480 -0.2781  0.7225  1.4839
18412TIP3    H276652   6.391   3.389   6.445 -0.8177 -0.8736 -2.6899
18413TIP3   OH276653   2.429   5.918   2.768  0.1209 -0.1200  0.4127
18413TIP3    H176654   2.402   5.995   2.816  1.4538  1.1093 -0.7072
18413TIP3    H276655   2.442   5.949   2.678 -1.0541 -2.0458 -0.4773
18414TIP3   OH276656   2.953   6.200  15.121  0.0276  0.0895  0.7678
18414TIP3    H176657   2.896   6.158  15.057  0.8764 -0.1167  0.1345
18414TIP3    H276658   2.899   6.207  15.200 -1.2303  0.8662 -0.1084
18415TIP3   OH276659   3.180   6.359   4.296 -0.2343  0.2325  0.0927
18415TIP3    H176660   3.246   6.296   4.268 -0.6090 -0.2944  0.3821
18415TIP3    H276661   3.179   6.353   4.391 -1.5138 -0.6185  0.0449
18416TIP3   OH276662   5.070   2.250   5.593 -0.2597 -0.1614  0.0819
18416TIP3    H176663   4.995   2.282   5.543 -0.1848 -0.5576 -0.3007
18416TIP3    H276664   5.075   2.157   5.571  0.6217 -0.0447 -0.2735
18417TIP3   OH276665   3.338   1.666  16.915 -0.2353 -0.1118  0.2971
18417TIP3    H176666   3.310   1.706  16.998 -1.0788 -0.8931  0.4055
18417TIP3    H276667   3.284   1.709  16.848  0.3857  0.4588  0.1626
18418TIP3   OH276668   2.432   5.246  16.704  0.1135  0.1314  0.0543
18418TIP3    H176669   2.476   5.295  16.634 -1.1985 -0.6741 -1.4138
18418TIP3    H276670   2.371   5.189  16.657 -0.8833 -0.3747  1.8922
18419TIP3   OH276671   3.313   0.089   3.606  0.4294 -0.1351 -0.6473
18419TIP3    H176672   3.241   0.125   3.555 -0.0847  1.0024  0.7984
18419TIP3    H276673   3.366   0.165   3.631  2.4444 -0.9736 -2.0546
18420TIP3   OH276674   3.126   6.708   2.450  0.2518  0.0582 -0.6115
18420TIP3    H176675   3.084   6.634   2.405  0.0651 -0.6219  0.6400
18420TIP3    H276676   3.096   6.700   2.541  0.7813  1.2814 -0.3203
18421TIP3   OH276677   6.092   0.852  16.491 -0.8238  0.0150  0.9353
18421TIP3    H176678   6.171   0.907  16.494 -0.5651 -0.2670 -0.1672
18421TIP3    H276679   6.125   0.763  16.501 -0.8702 -0.1911 -0.5467
18422TIP3   OH276680   3.166   4.624   3.405 -0.1281  0.3706  0.4801
18422TIP3    H176681   3.121   4.689   3.351  0.7600 -1.1636 -2.2777
18422TIP3    H276682   3.153   4.541   3.360  0.6703 -1.0585  2.6765
18423TIP3   OH276683   2.641   0.869  16.545 -0.4749 -0.3248  0.7557
18423TIP3    H176684   2.643   0.810  16.620 -0.4920 -2.5852 -0.9185
18423TIP3    H276685   2.715   0.843  16.492 -0.5584  1.1235 -0.1193
18424TIP3   OH276686   4.016   1.911   6.121 -0.6365  0.5968 -0.1490
18424TIP3    H176687   3.982   1.910   6.210  0.4010 -0.3187  0.2578
18424TIP3    H276688   4.021   2.005   6.099  0.9261  0.9560  1.5027
18425TIP3   OH276689   4.006   3.541  15.308 -0.0212 -0.4733 -0.1610
18425TIP3    H176690   3.984   3.601  15.237  1.5832  0.5263  0.1362
18425TIP3    H276691   4.076   3.486  15.271  1.6641  0.8235  0.9397
18426TIP3   OH276692   3.590   1.391   0.673 -0.4595  0.7256  0.2481
18426TIP3    H176693   3.563   1.379   0.764 -2.5294  1.1714 -0.2610
18426TIP3    H276694   3.648   1.317   0.655 -0.9800 -0.0387  1.5762
18427TIP3   OH276695   1.335   5.724   1.562 -0.0782 -0.2931 -0.0680
18427TIP3    H176696   1.357   5.709   1.654 -0.9035 -0.1041  0.1695
18427TIP3    H276697   1.411   5.771   1.526  0.3303 -0.5354  0.4637
18428TIP3   OH276698   2.483   4.754  17.149 -0.0822  0.0316 -0.1523
18428TIP3    H176699   2.546   4.800  17.094 -1.3337 -1.8856 -3.5102
18428TIP3    H276700   2.536   4.691  17.198  0.8451 -0.7840 -2.0659
18429TIP3   OH276701   2.745   1.045  10.899 -0.0714  0.1866 -0.2707
18429TIP3    H176702   2.838   1.054  10.876  0.2245 -0.6894  0.5116
18429TIP3    H276703   2.715   0.969  10.848 -0.3574  0.4676 -0.5212
18430TIP3   OH276704   2.093   5.124  16.999 -0.2333 -0.4874  0.6911
18430TIP3    H176705   2.003   5.141  17.027 -0.6007 -0.4420 -0.4697
18430TIP3    H276706   2.123   5.209  16.965  0.5777 -0.2642  1.9290
18431TIP3   OH276707   4.617   5.717   5.547 -0.9428 -0.7137  0.3264
18431TIP3    H176708   4.689   5.762   5.503 -1.8541 -1.4022 -2.0493
18431TIP3    H276709   4.658   5.673   5.621  0.5191  1.2851  0.8110
18432TIP3   OH276710   0.656   3.407   2.601 -0.3928  0.0564 -0.4540
18432TIP3    H176711   0.619   3.405   2.513  0.9011  2.8441 -1.1706
18432TIP3    H276712   0.622   3.488   2.640  0.0716 -0.4799  1.1416
18433TIP3   OH276713   1.219   1.769  11.896 -0.5000 -0.4099  0.8282
18433TIP3    H176714   1.139   1.819  11.886  0.0504  0.5256  0.9532
18433TIP3    H276715   1.284   1.817  11.844  0.3214 -0.3245  1.8954
18434TIP3   OH276716   0.875   0.047  13.496 -0.2031 -0.1352 -0.0673
18434TIP3    H176717   0.809   0.110  13.525 -0.4184  0.5502 -1.8948
18434TIP3    H276718   0.932   0.097  13.439 -0.4760 -1.5944 -1.7159
18435TIP3   OH276719   3.211   1.490   1.212  0.5815 -0.7472  0.5910
18435TIP3    H176720   3.229   1.398   1.194 -1.0384 -0.9163 -0.4103
18435TIP3    H276721   3.118   1.492   1.236  0.3989  0.6936 -0.1344
18436TIP3   OH276722   0.036   3.847   4.591  0.2741  0.2345 -0.4453
18436TIP3    H176723   0.040   3.920   4.653 -1.0389  0.4027 -0.5334
18436TIP3    H276724  -0.055   3.819   4.593  0.9575 -2.1314  0.3769
18437TIP3   OH276725   6.646   5.197   1.717  0.0351 -0.5651  0.2960
18437TIP3    H176726   6.574   5.135   1.731 -0.4583 -0.0114  0.2378
18437TIP3    H276727   6.604   5.282   1.713  0.4327 -0.4117 -1.9080
18438TIP3   OH276728   3.679   3.875  16.981 -0.2318 -0.1376 -0.0080
18438TIP3    H176729   3.606   3.932  16.956  1.5521  1.0051 -3.2038
18438TIP3    H276730   3.748   3.936  17.008  0.6752 -0.9432 -0.4573
18439TIP3   OH276731   0.667   2.105   6.079  0.5043  0.1802  0.4453
18439TIP3    H176732   0.639   2.051   6.005  2.2150  0.4605 -0.4429
18439TIP3    H276733   0.754   2.072   6.101 -0.0606 -0.0772  2.5341
18440TIP3   OH276734   4.971   2.752  13.135  0.4841 -0.8844  0.3058
18440TIP3    H176735   5.016   2.667  13.128 -0.7200 -1.6496  1.5512
18440TIP3    H276736   4.997   2.799  13.055 -0.2166 -3.1042 -1.3211
18441TIP3   OH276737   6.495   1.348  15.421 -0.0947  0.4128 -0.1412
18441TIP3    H176738   6.482   1.261  15.460  0.6599  0.2473 -0.2343
18441TIP3    H276739   6.505   1.407  15.495 -0.6167  0.4220 -0.0770
18442TIP3   OH276740   2.712   3.071  17.275  0.1283  0.7248  0.1627
18442TIP3    H176741   2.667   3.146  17.315 -0.4134 -0.5383  2.0635
18442TIP3    H276742   2.642   3.008  17.258  0.6879  0.2954 -0.6087
18443TIP3   OH276743   1.615   4.560   1.305 -0.4530 -0.0447  0.4732
18443TIP3    H176744   1.708   4.577   1.318 -0.2772 -0.7957  0.2642
18443TIP3    H276745   1.584   4.533   1.392 -0.1562 -1.1535  0.2568
18444TIP3   OH276746   2.393   1.413   4.942  1.2615  0.1131 -0.1120
18444TIP3    H176747   2.465   1.361   4.978  1.8763  1.5148  0.7542
18444TIP3    H276748   2.338   1.434   5.017  0.2965 -0.3693 -0.6672
18445TIP3   OH276749   4.449   4.092   5.331  0.7111  0.3617  0.1096
18445TIP3    H176750   4.455   3.997   5.342  0.5700  0.2509 -0.6856
18445TIP3    H276751   4.519   4.127   5.386  1.1717 -0.2397 -0.0750
18446TIP3   OH276752   3.964   2.774  12.065  0.6165  0.1831 -0.5048
18446TIP3    H176753   3.893   2.741  12.120 -0.3595  0.5698 -1.5044
18446TIP3    H276754   3.985   2.702  12.006  0.3056  0.4427 -0.9332
18447TIP3   OH276755   4.184   6.125   2.900 -0.0887  0.1257  0.5210
18447TIP3    H176756   4.278   6.144   2.908 -0.0694 -0.1827  1.0865
18447TIP3    H276757   4.177   6.032   2.921 -0.2929 -0.3383 -1.3731
18448TIP3   OH276758   0.890   0.480  16.312  0.1889  0.2916 -0.1736
18448TIP3    H176759   0.906   0.422  16.386  0.6971  1.9483  1.0967
18448TIP3    H276760   0.917   0.431  16.235 -0.7025 -1.6346  0.6774
18449TIP3   OH276761   5.501   4.471  12.379 -0.1912  0.7078  0.1003
18449TIP3    H176762   5.426   4.478  12.320 -1.0051  1.8760  1.1915
18449TIP3    H276763   5.464   4.432  12.459  0.6940 -0.0600  0.1423
18450TIP3   OH276764   4.979   5.887  14.010 -0.6752 -0.8699  0.5017
18450TIP3    H176765   4.946   5.892  13.921 -0.6974  0.6999  0.5711
18450TIP3    H276766   5.071   5.860  14.001 -0.3053  0.5042 -0.1115
18451TIP3   OH276767   2.580   3.614  17.190 -0.2031  0.1128 -0.0672
18451TIP3    H176768   2.507   3.585  17.244  0.3450 -1.7855 -0.2731
18451TIP3    H276769   2.627   3.679  17.244 -2.4223  1.9895 -0.2375
18452TIP3   OH276770   0.275   3.271  14.318 -0.0739 -0.0189  0.2310
18452TIP3    H176771   0.264   3.273  14.413  1.6018 -0.9727  0.4966
18452TIP3    H276772   0.186   3.268  14.283 -0.7167  0.3524  1.7584
18453TIP3   OH276773   3.571   0.958   5.016 -0.3058 -0.1908 -0.9114
18453TIP3    H176774   3.547   1.030   4.958 -1.0589  0.1713 -0.1665
18453TIP3    H276775   3.496   0.948   5.074 -0.1149 -1.4339 -0.8626
18454TIP3   OH276776   4.850   0.263  11.357  0.4635  0.4037  0.3336
18454TIP3    H176777   4.843   0.224  11.445 -1.9182  1.5687  0.7384
18454TIP3    H276778   4.831   0.191  11.298  0.2329  0.0183  0.8663
18455TIP3   OH276779   2.595   4.183  14.881  0.3179 -0.0745  0.1044
18455TIP3    H176780   2.598   4.113  14.817  0.6291 -0.4827  0.5540
18455TIP3    H276781   2.556   4.143  14.959 -2.7916  1.1216 -0.6753
18456TIP3   OH276782   2.692   3.029  12.881  0.0124 -0.2951  0.0865
18456TIP3    H176783   2.752   3.007  12.952 -0.3133 -1.9763 -0.1151
18456TIP3    H276784   2.612   3.056  12.926  0.3153  0.1772  0.3502
18457TIP3   OH276785   6.034   5.656   5.856 -0.8949  0.0067 -0.9908
18457TIP3    H176786   5.963   5.719   5.870 -0.0437  0.3588  2.4786
18457TIP3    H276787   5.992   5.571   5.859 -1.1724  0.1182  2.6284
18458TIP3   OH276788   1.526   1.066  11.766  0.5561 -0.4925 -0.7023
18458TIP3    H176789   1.621   1.076  11.775  0.5660 -1.7655  1.4174
18458TIP3    H276790   1.504   0.997  11.828 -1.8801  0.3566 -0.5277
18459TIP3   OH276791   4.655   4.866   5.700  0.3113 -0.2552  0.5073
18459TIP3    H176792   4.633   4.881   5.608 -1.2898  0.9642  1.0445
18459TIP3    H276793   4.703   4.944   5.727 -0.0125 -0.1920  0.9229
18460TIP3   OH276794   2.781   2.366   0.058  0.8543  0.2973  0.3383
18460TIP3    H176795   2.849   2.299   0.053  0.4242 -0.1982  0.8877
18460TIP3    H276796   2.733   2.345   0.138  0.0571  0.6330 -0.0356
18461TIP3   OH276797   0.470   4.919  15.292  0.3170  0.1852  0.1752
18461TIP3    H176798   0.479   4.971  15.372 -0.5147  0.9779 -0.2153
18461TIP3    H276799   0.512   4.972  15.225  0.8941 -0.4159  0.0620
18462TIP3   OH276800   0.482   5.009   5.884  0.2391  0.1333 -0.1770
18462TIP3    H176801   0.521   4.922   5.896 -0.0682  0.0356  0.1640
18462TIP3    H276802   0.388   4.994   5.894  0.2442  0.6425  0.7777
18463TIP3   OH276803   2.520   5.721  13.355 -0.3408  0.0375 -0.3073
18463TIP3    H176804   2.468   5.727  13.435  0.0226 -0.9990  0.0194
18463TIP3    H276805   2.490   5.642  13.311  0.1161  0.0868 -0.7243
18464TIP3   OH276806   3.410   5.489  15.049 -0.7302  0.1666 -0.1060
18464TIP3    H176807   3.457   5.479  14.967  0.0688 -0.4057  0.4061
18464TIP3    H276808   3.461   5.552  15.099 -0.4279 -0.5405  0.4945
18465TIP3   OH276809   3.034   1.362   2.213 -0.7828 -0.1346 -0.3718
18465TIP3    H176810   3.084   1.293   2.257 -0.0785  0.2609 -0.5469
18465TIP3    H276811   3.046   1.439   2.268 -1.0458  0.0123 -0.5192
18466TIP3   OH276812   3.172   2.621   0.920 -0.7596  0.2149  0.3833
18466TIP3    H176813   3.256   2.620   0.965 -0.8674  0.9947  0.6047
18466TIP3    H276814   3.146   2.713   0.918 -1.4415  0.0229  0.0077
18467TIP3   OH276815   6.626   1.403  11.533 -0.3804  0.0469  0.3593
18467TIP3    H176816   6.605   1.392  11.440 -1.7423  0.8982  0.5353
18467TIP3    H276817   6.580   1.332  11.576 -0.5611  0.2254  0.4653
18468TIP3   OH276818   2.602   2.306   2.456  0.4446  0.4090 -0.1397
18468TIP3    H176819   2.577   2.396   2.479  1.0504  1.1150 -2.0933
18468TIP3    H276820   2.661   2.279   2.527 -0.4433  1.1961  0.9370
18469TIP3   OH276821   3.273   4.664   3.704 -0.4435 -0.3034 -0.3276
18469TIP3    H176822   3.256   4.653   3.610  0.9834  1.0680 -0.7868
18469TIP3    H276823   3.188   4.646   3.745 -1.4093  0.2252 -1.9798
18470TIP3   OH276824   4.516   2.597  13.834  0.4864  0.0368 -0.5235
18470TIP3    H176825   4.448   2.620  13.771 -1.8973 -1.4239  1.3046
18470TIP3    H276826   4.569   2.530  13.790 -1.3072 -1.1711 -0.9637
18471TIP3   OH276827   2.866   3.811   3.053  0.0133 -0.3059 -0.2242
18471TIP3    H176828   2.937   3.875   3.042 -1.1525  0.6371 -3.0186
18471TIP3    H276829   2.808   3.851   3.118  2.0636 -1.2463  2.3713
18472TIP3   OH276830   4.048   5.352  17.431 -0.2379  0.5621 -0.2937
18472TIP3    H176831   4.032   5.443  17.404 -0.3362  0.3216 -1.0487
18472TIP3    H276832   4.088   5.311  17.355  0.6925  0.2116  0.3695
18473TIP3   OH276833   1.387   6.472   6.702 -0.0275  0.0207 -0.4522
18473TIP3    H176834   1.305   6.428   6.725  0.1018 -0.7792 -1.4404
18473TIP3    H276835   1.368   6.517   6.620 -0.1653  1.9016  0.5547
18474TIP3   OH276836   2.535   3.372   1.393  0.2840 -0.5713  0.0256
18474TIP3    H176837   2.508   3.308   1.458  0.4191 -2.8372 -1.9992
18474TIP3    H276838   2.596   3.430   1.439 -0.5836 -1.2728  2.1699
18475TIP3   OH276839   3.650   4.163   3.512 -0.1676  0.0478 -0.1908
18475TIP3    H176840   3.654   4.212   3.594 -0.3241 -0.7368  0.2975
18475TIP3    H276841   3.738   4.173   3.474  0.4890 -1.0559  0.9583
18476TIP3   OH276842   1.076   4.688   6.332 -0.2653  0.2396  0.2325
18476TIP3    H176843   1.146   4.642   6.377 -0.6118  0.3811  0.9291
18476TIP3    H276844   1.064   4.768   6.382  0.0937  0.9296 -0.7665
18477TIP3   OH276845   5.080   4.648  12.505 -0.6297  0.4518  0.3990
18477TIP3    H176846   5.038   4.680  12.425  1.9273  2.1329 -0.3990
18477TIP3    H276847   5.053   4.557  12.511 -2.3652  0.7703 -1.3443
18478TIP3   OH276848   0.035   6.645  15.891  0.3100 -0.0876 -0.1704
18478TIP3    H176849  -0.042   6.654  15.834  1.2245  1.8210 -1.1702
18478TIP3    H276850   0.098   6.708  15.857  0.7186  1.6109  3.3026
18479TIP3   OH276851   4.354   1.634   2.048 -0.7544 -0.1717  0.6898
18479TIP3    H176852   4.437   1.680   2.064 -1.8223  1.7472  1.0661
18479TIP3    H276853   4.378   1.542   2.044  1.5968  0.4198 -0.6037
18480TIP3   OH276854   5.514   5.421  15.189  0.5017 -0.5687  0.4028
18480TIP3    H176855   5.511   5.462  15.102  1.8549 -0.4761  0.3782
18480TIP3    H276856   5.476   5.334  15.176  1.2644 -0.7939 -0.4325
18481TIP3   OH276857   1.298   1.508   5.272  0.3287  0.1528 -0.7710
18481TIP3    H176858   1.369   1.512   5.336 -1.1577 -1.4348  1.1345
18481TIP3    H276859   1.283   1.598   5.246  0.9539  0.8676  1.1970
18482TIP3   OH276860   0.684   6.336  14.415  0.2748  0.0172 -0.7358
18482TIP3    H176861   0.702   6.244  14.396  1.5044  0.4667 -1.8796
18482TIP3    H276862   0.691   6.380  14.330 -1.3007  1.0325 -0.3733
18483TIP3   OH276863   4.277   0.623  16.441 -0.5207  0.0554  0.2034
18483TIP3    H176864   4.344   0.665  16.388 -0.5109  0.7521  0.7643
18483TIP3    H276865   4.200   0.679  16.433 -0.3177  0.5327  1.4577
18484TIP3   OH276866   3.389   6.301   2.799 -0.4308  0.2649  0.4705
18484TIP3    H176867   3.383   6.289   2.704 -2.8595  0.3110  0.5727
18484TIP3    H276868   3.402   6.212   2.833  2.1320  0.4105  0.0627
18485TIP3   OH276869   5.723   4.050   6.186 -0.1058 -0.0068  0.0525
18485TIP3    H176870   5.632   4.025   6.199  0.4595 -1.8852  0.7816
18485TIP3    H276871   5.720   4.122   6.123 -2.1552  0.8109  1.0102
18486TIP3   OH276872   5.885   4.136  17.306 -0.4308 -0.2589  0.4792
18486TIP3    H176873   5.816   4.201  17.290  0.2523  0.8153  1.7114
18486TIP3    H276874   5.966   4.186  17.304  0.2387 -1.3426  0.0202
18487TIP3   OH276875   5.205   5.692   4.406  0.6603 -0.3549  0.3920
18487TIP3    H176876   5.159   5.776   4.413  0.4816 -0.3968 -0.2610
18487TIP3    H276877   5.156   5.633   4.463 -0.4061 -0.5348 -0.6906
18488TIP3   OH276878   1.722   0.073   6.539  0.1670  0.3612 -0.0524
18488TIP3    H176879   1.695   0.142   6.478 -0.4574 -0.1390 -0.3607
18488TIP3    H276880   1.651   0.009   6.535 -0.0247  0.4524  1.4322
18489TIP3   OH276881   3.720   3.554   2.006  0.1259 -0.2794 -0.6969
18489TIP3    H176882   3.632   3.518   1.996 -1.0305  2.0715  0.2123
18489TIP3    H276883   3.747   3.577   1.917 -0.6774  0.0556 -0.8568
18490TIP3   OH276884   6.614   6.444   3.506  0.0352  0.1271 -0.1532
18490TIP3    H176885   6.579   6.363   3.545  2.0725 -0.1192  1.3183
18490TIP3    H276886   6.709   6.431   3.506  0.3599  2.2498 -0.5311
18491TIP3   OH276887   1.612   1.666   1.413  0.5061 -0.1895 -0.4812
18491TIP3    H176888   1.684   1.604   1.401 -0.1721 -0.9228 -0.9284
18491TIP3    H276889   1.637   1.718   1.489  0.3606 -2.1626  1.0160
18492TIP3   OH276890   0.745   4.299  16.312 -0.6094 -0.5522 -0.2262
18492TIP3    H176891   0.683   4.335  16.249 -1.1749 -0.6251  0.2717
18492TIP3    H276892   0.699   4.224  16.350 -0.1411 -0.7177  0.0234
18493TIP3   OH276893   1.646   1.235   1.925  0.3689  0.3694 -0.7747
18493TIP3    H176894   1.646   1.161   1.986 -1.5508  0.5113 -0.5451
18493TIP3    H276895   1.738   1.261   1.919  0.8015 -0.6283  0.8634
18494TIP3   OH276896   6.582   4.131  15.120 -0.2918  0.2628 -0.2742
18494TIP3    H176897   6.509   4.191  15.107 -0.5359  0.0803  0.2444
18494TIP3    H276898   6.587   4.081  15.039  1.5740  2.7333 -1.8350
18495TIP3   OH276899   5.565   3.211   4.924 -0.3022  0.0915  0.4025
18495TIP3    H176900   5.482   3.216   4.970  0.9457  1.8233  2.7222
18495TIP3    H276901   5.567   3.124   4.886 -2.9307 -0.1579  0.6855
18496TIP3   OH276902   5.369   4.328  12.596 -0.2936 -0.7103  0.0637
18496TIP3    H176903   5.375   4.239  12.631  1.3239 -1.0294 -0.9074
18496TIP3    H276904   5.402   4.384  12.666  0.8480 -1.1266 -0.1165
18497TIP3   OH276905   1.254   4.371   4.184  0.0275  0.1320 -0.1696
18497TIP3    H176906   1.197   4.333   4.251  0.8666 -3.1839 -1.1768
18497TIP3    H276907   1.207   4.358   4.102  0.6542  0.6749 -0.6249
18498TIP3   OH276908   4.312   0.906   0.000 -0.5025  0.0102  0.2888
18498TIP3    H176909   4.265   0.942   0.076 -0.7560 -1.7790  1.0263
18498TIP3    H276910   4.373   0.975  -0.025 -0.9699  0.9539  1.6258
18499TIP3   OH276911   4.706   3.730  13.317  0.1336  0.1303  0.3541
18499TIP3    H176912   4.696   3.636  13.299  0.8546  0.1291 -0.0789
18499TIP3    H276913   4.785   3.736  13.370  0.8175  0.5919 -0.6840
18500TIP3   OH276914   5.016   4.525   0.406  0.3837  0.5270  0.2718
18500TIP3    H176915   5.033   4.603   0.459  1.9386  0.8948 -0.6819
18500TIP3    H276916   5.091   4.468   0.424  2.0573  1.4775 -2.8899
18501TIP3   OH276917   5.839   0.908   5.579 -0.2467 -0.5416 -0.0612
18501TIP3    H176918   5.904   0.884   5.512  0.5427 -0.0840  0.5230
18501TIP3    H276919   5.872   0.867   5.659  0.2849  1.1480  0.6248
18502TIP3   OH276920   6.150   4.139   0.731 -0.1719 -0.6364  0.1676
18502TIP3    H176921   6.143   4.206   0.663 -1.3240  0.9796  1.7678
18502TIP3    H276922   6.187   4.186   0.806 -1.7618 -1.5611  1.5982
18503TIP3   OH276923   6.411   1.991  12.228 -1.0473  0.5576 -0.1410
18503TIP3    H176924   6.323   1.997  12.190 -1.3775 -0.2491  0.4595
18503TIP3    H276925   6.396   1.995  12.322 -0.9659 -4.0452  0.2818
18504TIP3   OH276926   6.293   6.399   1.551 -0.2428 -0.2583  0.1898
18504TIP3    H176927   6.319   6.485   1.581 -0.9670  0.2246 -0.5168
18504TIP3    H276928   6.225   6.416   1.485  1.0877 -1.2548 -1.5447
18505TIP3   OH276929   4.203   4.523  17.045 -0.3279 -0.2546  0.2274
18505TIP3    H176930   4.203   4.555  16.955 -3.1839 -0.2383  0.1633
18505TIP3    H276931   4.230   4.599  17.097 -0.6963  0.3544 -0.4574
18506TIP3   OH276932   2.831   4.079  14.640 -0.0956 -0.0076 -0.3397
18506TIP3    H176933   2.922   4.050  14.640  0.2919  1.0794  1.6147
18506TIP3    H276934   2.783   4.007  14.681  0.1861  0.2055  0.3797
18507TIP3   OH276935   1.532   0.044   1.255  0.3809  0.5688  0.3970
18507TIP3    H176936   1.438   0.062   1.255  0.3226  0.3596  1.3809
18507TIP3    H276937   1.544  -0.018   1.327  0.9844 -1.0676 -1.0429
18508TIP3   OH276938   3.368   2.367  13.882 -0.3402 -0.2613  0.7333
18508TIP3    H176939   3.302   2.298  13.891 -1.6108  0.8844  0.5541
18508TIP3    H276940   3.451   2.321  13.888 -1.1044 -2.0830 -1.2783
18509TIP3   OH276941   1.012   4.122  16.664  0.0845 -0.2682  0.9103
18509TIP3    H176942   1.088   4.063  16.666 -0.0953 -0.4925  1.3443
18509TIP3    H276943   0.986   4.125  16.572  0.0959 -0.8749  0.8833
18510TIP3   OH276944   2.972   5.734  11.429 -0.3186 -0.1503 -0.5581
18510TIP3    H176945   3.060   5.707  11.401  0.7624  3.2183 -0.8724
18510TIP3    H276946   2.967   5.826  11.404 -2.9316  0.5005  1.9043
18511TIP3   OH276947   1.152   0.517  14.410 -0.0682 -0.9910 -0.2776
18511TIP3    H176948   1.225   0.552  14.462  0.2932 -1.2122 -0.6300
18511TIP3    H276949   1.186   0.436  14.372 -0.0971 -0.4950 -1.4039
18512TIP3   OH276950   4.737   3.362   0.867  0.4423  0.6147 -0.3762
18512TIP3    H176951   4.802   3.311   0.916 -0.4957  0.5010  0.8185
18512TIP3    H276952   4.787   3.408   0.800  1.5718 -0.4122 -0.2639
18513TIP3   OH276953   5.759   0.054   4.762 -0.5783  0.9019 -0.0338
18513TIP3    H176954   5.754  -0.040   4.779 -0.3903  1.1798  1.8100
18513TIP3    H276955   5.853   0.071   4.749 -0.7277  0.6788 -1.6456
18514TIP3   OH276956   3.002   5.404  15.144  0.1543  0.0620 -0.3736
18514TIP3    H176957   3.047   5.366  15.068  0.3956 -0.1483 -0.1265
18514TIP3    H276958   3.069   5.457  15.187  0.1381 -0.1617 -0.0674
18515TIP3   OH276959   0.866   2.177  12.302 -0.1363  0.1048 -0.2626
18515TIP3    H176960   0.903   2.176  12.390 -1.6677 -2.9426  0.4617
18515TIP3    H276961   0.867   2.270  12.277  3.0785  0.7429  1.6980
18516TIP3   OH276962   2.278   1.317  13.719  0.4648 -0.9899  0.2540
18516TIP3    H176963   2.315   1.403  13.738 -0.8535 -0.2659 -0.2397
18516TIP3    H276964   2.303   1.262  13.793  1.6237 -0.2840  0.4101
18517TIP3   OH276965   1.301   4.806  15.728 -0.0545 -0.0346  0.1791
18517TIP3    H176966   1.313   4.817  15.822 -0.2427  0.9508  0.0919
18517TIP3    H276967   1.215   4.843  15.710 -0.2139 -0.6331 -0.3125
18518TIP3   OH276968   6.506   0.187  16.285 -0.1114  0.2679 -0.4557
18518TIP3    H176969   6.512   0.102  16.240  1.7171  0.6418 -1.0003
18518TIP3    H276970   6.486   0.165  16.376 -1.6268 -0.6219 -0.9718
18519TIP3   OH276971   6.732   2.260   0.640 -0.3029 -0.0467 -0.0154
18519TIP3    H176972   6.727   2.340   0.586 -0.8578  1.2625  1.8614
18519TIP3    H276973   6.648   2.257   0.685 -0.8802 -2.5645 -1.1340
18520TIP3   OH276974   6.686   2.054  15.015  0.1285  0.0178 -0.4506
18520TIP3    H176975   6.630   2.128  14.995 -1.7276 -1.9351 -3.2054
18520TIP3    H276976   6.770   2.075  14.975  0.1289  1.2191  0.1404
18521TIP3   OH276977   5.060   4.144  12.023  0.3629  0.0967  0.4736
18521TIP3    H176978   4.992   4.210  12.039  0.0627  0.5485 -2.2846
18521TIP3    H276979   5.014   4.060  12.030 -0.1004  0.3282  0.2380
18522TIP3   OH276980   2.068   4.159  13.709  0.3706 -0.4355 -0.4128
18522TIP3    H176981   1.988   4.181  13.757 -0.2296 -0.1820 -1.5196
18522TIP3    H276982   2.081   4.231  13.648  1.3309 -0.5779 -0.3981
18523TIP3   OH276983   6.214   4.296  13.468 -0.3697  0.1013 -0.0048
18523TIP3    H176984   6.221   4.390  13.486 -1.7065  0.1032  0.6790
18523TIP3    H276985   6.175   4.290  13.381 -0.1867  0.1779 -0.0922
18524TIP3   OH276986   3.124   0.201   2.964  0.3655 -0.0534 -0.0269
18524TIP3    H176987   3.157   0.134   3.023  0.9979  1.2658  1.1815
18524TIP3    H276988   3.053   0.159   2.916  0.3979 -1.4153  1.0784
18525TIP3   OH276989   1.714   5.679   1.001 -0.5387  0.5144  0.4690
18525TIP3    H176990   1.630   5.719   1.021  0.0003  1.8949  0.0852
18525TIP3    H276991   1.740   5.717   0.917 -0.5357 -1.5520 -0.5273
18526TIP3   OH276992   5.506   3.812  12.427  0.4421 -0.2074  0.0473
18526TIP3    H176993   5.528   3.900  12.399  1.3025 -0.2905  0.4471
18526TIP3    H276994   5.486   3.765  12.345  1.6681 -0.1005 -0.3367
18527TIP3   OH276995   3.408   2.121  17.365  0.0704  0.3624  0.1646
18527TIP3    H176996   3.491   2.081  17.392 -0.9506 -1.2310  1.1193
18527TIP3    H276997   3.392   2.088  17.277  1.7455  2.8998 -1.2313
18528TIP3   OH276998   1.950   5.195   3.791  0.7175  0.2767  0.6192
18528TIP3    H176999   1.949   5.171   3.883  0.5684  0.6709  0.7226
18528TIP3    H277000   1.983   5.118   3.746 -2.1709 -1.0961  0.6423
18529TIP3   OH277001   2.644   1.212  11.104  0.4011  0.5532 -0.5052
18529TIP3    H177002   2.567   1.156  11.113  0.1086  0.8799 -0.9289
18529TIP3    H277003   2.679   1.192  11.017  3.2764 -2.6797  1.1235
18530TIP3   OH277004   5.061   2.213  11.248 -0.1708  0.0498 -0.3742
18530TIP3    H177005   5.074   2.307  11.264  2.8017 -0.6360  1.8598
18530TIP3    H277006   5.099   2.199  11.161  0.1549  0.7603 -0.3594
18531TIP3   OH277007   4.034   6.251   2.729 -0.0953  0.5180  0.4590
18531TIP3    H177008   3.955   6.267   2.780 -0.0556  0.9495  0.3876
18531TIP3    H277009   4.082   6.184   2.779  0.7577  2.1187  1.9033
18532TIP3   OH277010   4.759   2.426   0.686 -0.1634 -0.9461 -0.2804
18532TIP3    H177011   4.674   2.469   0.685 -0.0839 -0.7870 -1.2499
18532TIP3    H277012   4.807   2.467   0.614  0.6837 -1.1321  0.1630
18533TIP3   OH277013   5.134   1.706   1.928 -0.4282 -0.2152 -0.0552
18533TIP3    H177014   5.217   1.660   1.915 -0.2178 -0.3359  1.5492
18533TIP3    H277015   5.067   1.638   1.916 -0.1042 -1.1752  2.8132
18534TIP3   OH277016   3.810   2.252   6.059 -0.2132  0.8482 -0.6324
18534TIP3    H177017   3.808   2.182   6.125 -1.6918  1.2261 -0.2358
18534TIP3    H277018   3.900   2.285   6.062  0.2265 -0.3232 -0.0851
18535TIP3   OH277019   6.179   1.525   3.918 -1.1917 -0.3923 -0.3929
18535TIP3    H177020   6.183   1.599   3.979 -0.7217  0.2026 -1.1333
18535TIP3    H277021   6.261   1.478   3.932 -0.1971  0.8100 -1.8584
18536TIP3   OH277022   4.920   3.557  17.040  0.6559  0.0420  0.3444
18536TIP3    H177023   4.991   3.620  17.054  1.5768 -1.0433  0.8002
18536TIP3    H277024   4.937   3.521  16.953 -0.4787  1.1497 -0.3584
18537TIP3   OH277025   2.846   4.094  16.514  0.8413  0.6734  0.0197
18537TIP3    H177026   2.915   4.078  16.578  2.3131  1.7089 -1.2341
18537TIP3    H277027   2.784   4.151  16.558  0.6809 -0.3678  1.2055
18538TIP3   OH277028   2.507   6.552   6.120 -0.0378 -0.5919 -0.0726
18538TIP3    H177029   2.589   6.529   6.163 -0.4295  1.4023  1.9372
18538TIP3    H277030   2.444   6.485   6.148  0.0003  0.0335  1.6010
18539TIP3   OH277031   0.960   0.164  15.339  0.0828  0.0187  0.6165
18539TIP3    H177032   1.036   0.134  15.289 -1.5070 -0.1561 -1.8157
18539TIP3    H277033   0.954   0.257  15.319 -0.3566  0.0309  0.8090
18540TIP3   OH277034   4.782   1.109  15.290  0.0569 -0.2334 -0.3415
18540TIP3    H177035   4.823   1.193  15.311 -0.9497  0.2721 -0.3404
18540TIP3    H277036   4.707   1.132  15.235  1.1358 -1.3155 -2.3813
18541TIP3   OH277037   1.237   2.947   5.134 -0.0762 -0.0348 -0.0586
18541TIP3    H177038   1.326   2.922   5.159 -0.2984 -1.6291 -0.6826
18541TIP3    H277039   1.241   3.041   5.118  1.6246 -0.1577 -0.5579
18542TIP3   OH277040   3.315   2.153  14.367  0.0066 -0.3474  0.1036
18542TIP3    H177041   3.316   2.227  14.306 -1.1044  0.3798  0.9236
18542TIP3    H277042   3.232   2.108  14.349  0.4909 -1.1763 -0.1195
18543TIP3   OH277043   2.120   2.843  11.247 -0.0143 -0.0455 -0.5107
18543TIP3    H177044   2.164   2.773  11.199 -0.5361 -0.7923  0.0748
18543TIP3    H277045   2.065   2.797  11.311  1.7652  0.8866  1.8275
18544TIP3   OH277046   5.106   6.589   5.101  0.2306  0.2013  0.0939
18544TIP3    H177047   5.197   6.588   5.132  0.2155  2.7222  0.3893
18544TIP3    H277048   5.057   6.544   5.171  1.1419 -0.7516  0.1535
18545TIP3   OH277049   6.529   4.655   4.853 -0.4979  0.3823 -0.2447
18545TIP3    H177050   6.506   4.687   4.940  0.1791  1.0893 -0.3185
18545TIP3    H277051   6.625   4.662   4.849 -0.5639  0.9102 -1.2536
18546TIP3   OH277052   4.082   2.952   1.598 -0.3755 -0.4344  0.6727
18546TIP3    H177053   4.047   2.863   1.608  1.3419 -1.5048 -1.8255
18546TIP3    H277054   4.177   2.939   1.590  0.0034  1.7442  1.1620
18547TIP3   OH277055   5.291   5.021   0.030  0.0912  0.2200 -0.0671
18547TIP3    H177056   5.299   5.095   0.090  0.7300 -0.4902  0.7491
18547TIP3    H277057   5.199   5.021   0.003 -0.1950  0.5687  0.8853
18548TIP3   OH277058   3.308   1.199  11.482 -0.1271 -0.1173  0.1368
18548TIP3    H177059   3.301   1.280  11.430  1.2131  1.1262  1.7638
18548TIP3    H277060   3.275   1.130  11.424  0.4487  1.3090 -2.0059
18549TIP3   OH277061   3.044   2.384   0.831  0.8016 -0.0560  0.1237
18549TIP3    H177062   3.044   2.379   0.735  3.4816 -2.4136  0.1275
18549TIP3    H277063   3.070   2.473   0.850  0.4684  0.3864 -1.3251
18550TIP3   OH277064   4.154   3.570  16.927 -0.7470 -0.3577 -0.2894
18550TIP3    H177065   4.237   3.616  16.932  0.1089 -1.7929 -0.5854
18550TIP3    H277066   4.090   3.629  16.967  0.4693  0.6326  0.2290
18551TIP3   OH277067   6.670   6.422   2.873 -0.2025  0.7361  0.1849
18551TIP3    H177068   6.649   6.437   2.781 -1.5014 -0.5248  0.2541
18551TIP3    H277069   6.735   6.490   2.893 -0.0543  1.1844 -1.5807
18552TIP3   OH277070   0.080   0.776   5.424  0.3117  0.4381 -0.0820
18552TIP3    H177071  -0.010   0.791   5.453 -0.5874 -0.1641 -2.2880
18552TIP3    H277072   0.126   0.744   5.501 -2.2400 -2.5748  0.3815
18553TIP3   OH277073   2.376   4.299   3.628  0.0439  0.0833 -0.5622
18553TIP3    H177074   2.311   4.249   3.678 -0.7730  1.6724  0.0143
18553TIP3    H277075   2.353   4.390   3.642  0.5624  0.6343 -2.8400
18554TIP3   OH277076   5.752   4.527   5.641 -0.0363 -0.4459  0.0447
18554TIP3    H177077   5.817   4.490   5.582 -0.8101 -2.3401  0.3189
18554TIP3    H277078   5.709   4.595   5.590  1.4454  0.1464 -0.4716
18555TIP3   OH277079   1.412   0.208   4.893  0.2291  0.4842  0.7580
18555TIP3    H177080   1.369   0.240   4.813  0.5071  2.3354  1.3179
18555TIP3    H277081   1.372   0.122   4.908 -0.3902  0.4342 -0.9321
18556TIP3   OH277082   2.680   2.282  15.522 -0.1813  0.3822 -0.4858
18556TIP3    H177083   2.634   2.244  15.597 -0.1236  0.6208 -0.3277
18556TIP3    H277084   2.614   2.288  15.453 -0.4795  1.0432 -0.1517
18557TIP3   OH277085   5.996   6.236   0.812  0.4502  0.6028  0.3360
18557TIP3    H177086   5.904   6.232   0.838  0.7067  0.5191  1.2593
18557TIP3    H277087   6.011   6.154   0.764 -0.2807  1.2039 -0.9605
18558TIP3   OH277088   4.406   4.397   3.885  0.3230  0.2264 -0.1887
18558TIP3    H177089   4.494   4.422   3.855  1.0818 -1.8306  0.1984
18558TIP3    H277090   4.362   4.481   3.901  1.8057  1.3217 -1.5120
18559TIP3   OH277091   3.964   2.021  13.339  0.3798 -0.0710  0.5575
18559TIP3    H177092   3.926   2.101  13.376 -0.0985 -0.7208  1.4881
18559TIP3    H277093   3.980   2.043  13.247 -2.3125  0.2329  0.0695
18560TIP3   OH277094   4.113   6.638   4.980 -0.1881  0.1688 -0.0571
18560TIP3    H177095   4.128   6.673   4.892 -1.5349 -2.7304 -1.5721
18560TIP3    H277096   4.021   6.656   4.998 -0.5872 -1.4172 -0.3677
18561TIP3   OH277097   1.920   4.077   3.012  0.2304  0.1039  0.1927
18561TIP3    H177098   1.938   4.170   3.004  0.7161  0.0682  0.8015
18561TIP3    H277099   1.978   4.035   2.949  0.1363  0.1970  0.0429
18562TIP3   OH277100   2.932   2.442  15.569  0.5549 -0.3599  0.3236
18562TIP3    H177101   2.862   2.426  15.505  1.3821 -0.6132 -0.5421
18562TIP3    H277102   2.889   2.435  15.654 -0.5015 -0.3578 -0.1981
18563TIP3   OH277103   5.088   4.155   4.101 -0.2013  0.2695  0.2376
18563TIP3    H177104   5.046   4.198   4.027 -0.7787 -0.3144  0.2140
18563TIP3    H277105   5.167   4.207   4.117 -0.7300  1.1545  0.0380
18564TIP3   OH277106   1.816   5.673  12.699  0.0879  0.1541 -0.3437
18564TIP3    H177107   1.839   5.617  12.773 -1.3146  0.5936  0.4492
18564TIP3    H277108   1.798   5.613  12.627  0.4103 -0.3226 -0.0291
18565TIP3   OH277109   1.135   1.666  13.052 -0.6755  0.1198 -0.0617
18565TIP3    H177110   1.202   1.618  13.100  0.2924  1.7107  0.2387
18565TIP3    H277111   1.110   1.608  12.980 -0.9932 -1.6358  1.4134
18566TIP3   OH277112   1.742   2.681  14.570 -0.0123  0.0691  0.3434
18566TIP3    H177113   1.696   2.763  14.586 -1.0102 -0.4644  0.2886
18566TIP3    H277114   1.833   2.699  14.593 -0.6824  0.4267  2.9686
18567TIP3   OH277115   4.009   4.366  16.853 -0.6437 -0.0113 -0.3062
18567TIP3    H177116   4.010   4.285  16.803 -0.2202 -0.2508  0.0844
18567TIP3    H277117   4.051   4.344  16.936 -0.3984  0.6363 -0.2500
18568TIP3   OH277118   5.827   3.232  16.369  0.4311  0.1956  0.4104
18568TIP3    H177119   5.913   3.202  16.341  0.1514  1.1683 -1.6631
18568TIP3    H277120   5.840   3.262  16.459  1.7984 -1.4226  0.7923
18569TIP3   OH277121   2.189   3.924  15.205 -0.1119  0.5821  0.2674
18569TIP3    H177122   2.182   4.009  15.248 -1.1842  0.7448 -0.2051
18569TIP3    H277123   2.101   3.888  15.208  0.3432 -0.5627  0.5371
18570TIP3   OH277124   2.024   2.425   5.934 -0.2758  0.3239  0.0196
18570TIP3    H177125   2.074   2.507   5.939 -0.8494  0.6886 -0.2041
18570TIP3    H277126   1.979   2.419   6.018  0.3580 -0.1512  0.3347
18571TIP3   OH277127   0.141   2.151   2.470  0.7871 -0.1171  0.0295
18571TIP3    H177128   0.217   2.113   2.514  2.0230  1.4964 -0.5962
18571TIP3    H277129   0.076   2.081   2.468  0.3441 -0.1961  4.9878
18572TIP3   OH277130   6.649   3.153  14.611  0.5226  0.4706 -0.3296
18572TIP3    H177131   6.574   3.101  14.581  1.7455 -1.1062 -0.8337
18572TIP3    H277132   6.611   3.231  14.650 -1.3502 -0.0380 -1.0553
18573TIP3   OH277133   0.551   6.522  16.516 -0.2718 -0.5244 -0.3518
18573TIP3    H177134   0.481   6.457  16.510  0.8067 -1.8417  0.6707
18573TIP3    H277135   0.522   6.582  16.586 -0.7541 -0.5689 -0.5131
18574TIP3   OH277136   5.272   2.822  14.408 -0.2327 -0.2393  0.0831
18574TIP3    H177137   5.316   2.907  14.416 -0.5439  0.1405 -1.7265
18574TIP3    H277138   5.183   2.839  14.438 -0.1193 -0.0749  0.3264
18575TIP3   OH277139   2.762   2.522  15.336  0.6673 -0.5794 -0.4225
18575TIP3    H177140   2.786   2.614  15.337 -1.0650 -0.0215 -2.5587
18575TIP3    H277141   2.834   2.479  15.289  0.7240 -0.0546 -0.8184
18576TIP3   OH277142   4.831   5.226  12.665  0.1714 -0.2771  0.2708
18576TIP3    H177143   4.792   5.299  12.714  0.8201  0.0695  0.2914
18576TIP3    H277144   4.759   5.166  12.650  0.5391 -2.3747  5.0385
18577TIP3   OH277145   4.091   3.934   0.391  0.0783 -0.2864  0.2293
18577TIP3    H177146   4.109   4.020   0.430  0.3914 -1.0354  1.7896
18577TIP3    H277147   4.118   3.871   0.458  0.0638 -1.6169 -0.9822
18578TIP3   OH277148   3.804   3.609   5.017  0.1450  0.0572  0.0461
18578TIP3    H177149   3.807   3.548   5.091  0.3114 -0.6356 -0.5224
18578TIP3    H277150   3.895   3.614   4.987  0.8910  3.4707  2.3647
18579TIP3   OH277151   2.189   5.925   4.191  0.6518  0.2243 -0.0935
18579TIP3    H177152   2.260   5.883   4.238  1.8999  1.7664 -0.5089
18579TIP3    H277153   2.157   5.859   4.130  0.9301 -0.8578  0.9044
18580TIP3   OH277154   5.831   4.856  13.641 -0.6845 -0.0297 -0.7959
18580TIP3    H177155   5.858   4.947  13.634 -1.6110  0.4175  0.8982
18580TIP3    H277156   5.862   4.815  13.560 -0.1979  1.7599 -1.5510
18581TIP3   OH277157   1.797   5.346  14.447  0.0798  0.3146 -0.0062
18581TIP3    H177158   1.849   5.276  14.407 -0.3210  0.0898 -0.1481
18581TIP3    H277159   1.741   5.301  14.510  0.3183  0.6018  0.4117
18582TIP3   OH277160   0.275   1.963   5.171 -0.4732 -0.2195  0.2924
18582TIP3    H177161   0.198   2.015   5.193  0.4163  0.4466  2.0019
18582TIP3    H277162   0.340   2.028   5.142  0.2078 -0.5072  1.1532
18583TIP3   OH277163   1.364   2.081  10.454 -0.1544  0.7629 -0.2190
18583TIP3    H177164   1.422   2.097  10.380  0.6755 -0.3059  0.1682
18583TIP3    H277165   1.392   2.142  10.522  1.4426 -0.6325  0.4389
18584TIP3   OH277166   4.434   3.798  15.742 -0.4971 -0.1085  0.4067
18584TIP3    H177167   4.467   3.884  15.769  1.5562 -0.1092 -1.7928
18584TIP3    H277168   4.363   3.780  15.803  0.1255  2.3679  2.0247
18585TIP3   OH277169   1.766   1.186  12.732 -0.0916  0.4214  0.4331
18585TIP3    H177170   1.747   1.166  12.640  0.8424  0.8997  0.1285
18585TIP3    H277171   1.681   1.181  12.776 -0.5283  0.0931 -0.4363
18586TIP3   OH277172   3.985   6.255  13.222  0.0815  0.4245  0.4464
18586TIP3    H177173   3.990   6.191  13.293  1.0930  1.2646  1.1690
18586TIP3    H277174   3.916   6.315  13.249 -0.4916 -0.0356  0.0309
18587TIP3   OH277175   3.101   6.224   3.316 -0.0229 -0.2823  0.1946
18587TIP3    H177176   3.147   6.306   3.330 -0.0570 -0.2119 -0.1024
18587TIP3    H277177   3.008   6.248   3.312  0.1163  0.0809 -2.7187
18588TIP3   OH277178   5.173   3.747   3.876 -0.0864 -0.0732  0.1824
18588TIP3    H177179   5.147   3.836   3.853 -0.8620 -0.0268  1.1741
18588TIP3    H277180   5.240   3.724   3.812  1.0155  1.6685  0.6590
18589TIP3   OH277181   3.704   0.163  11.704  0.4142  0.5199  0.2736
18589TIP3    H177182   3.697   0.099  11.775  0.5340 -0.3591 -0.5001
18589TIP3    H277183   3.679   0.246  11.745 -0.0911 -0.0714  1.1968
18590TIP3   OH277184   6.427   6.209  12.784  0.1466  0.2048 -0.1189
18590TIP3    H177185   6.487   6.273  12.747 -0.0448 -0.2020 -1.1873
18590TIP3    H277186   6.423   6.230  12.877  1.4116  0.6589 -0.1439
18591TIP3   OH277187   6.247   3.867  14.531  0.5258 -0.5115  0.2493
18591TIP3    H177188   6.197   3.791  14.558 -0.4587  0.1510  0.3366
18591TIP3    H277189   6.310   3.881  14.601 -1.5508  0.7880  1.9914
18592TIP3   OH277190   2.784   4.938  12.958 -0.0549 -0.1608 -0.0688
18592TIP3    H177191   2.749   5.016  13.002 -0.4529  0.7044 -1.8322
18592TIP3    H277192   2.827   4.972  12.880  1.7004 -1.5452  0.2289
18593TIP3   OH277193   2.636   0.430   3.628 -0.4998  0.2079 -0.1303
18593TIP3    H177194   2.553   0.389   3.651 -1.5632  1.7432 -1.0569
18593TIP3    H277195   2.642   0.420   3.533  1.0630 -1.0400  0.0468
18594TIP3   OH277196   6.232   0.877  14.125  0.1720 -0.2378  0.6507
18594TIP3    H177197   6.250   0.822  14.049 -1.0655  0.6016 -0.2863
18594TIP3    H277198   6.171   0.826  14.178 -0.2279 -0.1679  0.2630
18595TIP3   OH277199   5.365   6.237   2.836  0.4343  0.3030 -0.1047
18595TIP3    H177200   5.304   6.309   2.848  0.6382  0.5046 -0.2620
18595TIP3    H277201   5.416   6.235   2.917  0.9646  0.8528 -0.4176
18596TIP3   OH277202   5.197   5.544   3.589  0.5073  0.3109 -0.0237
18596TIP3    H177203   5.167   5.592   3.512  0.4143  0.1456 -0.0890
18596TIP3    H277204   5.215   5.613   3.654  0.8445  0.4653 -0.2791
18597TIP3   OH277205   4.770   4.586   4.494 -0.4397  0.1750  0.2500
18597TIP3    H177206   4.804   4.655   4.436 -2.0095  0.1388 -0.7895
18597TIP3    H277207   4.688   4.623   4.528 -0.6549 -0.6913  0.6890
18598TIP3   OH277208   3.803   0.432   0.113  0.2471  0.3910 -0.1085
18598TIP3    H177209   3.721   0.413   0.067  0.1273 -0.6060  0.4959
18598TIP3    H277210   3.816   0.358   0.171  0.9052  1.1555  0.7559
18599TIP3   OH277211   4.222   1.467  14.795 -0.2343 -0.2563 -0.3932
18599TIP3    H177212   4.189   1.516  14.870 -0.5622  0.5559 -1.0489
18599TIP3    H277213   4.314   1.451  14.815 -0.4543 -0.5255  0.4181
18600TIP3   OH277214   3.018   4.572  14.927 -0.3034 -0.0261  0.0788
18600TIP3    H177215   2.935   4.541  14.889  0.0880 -1.1201  0.0906
18600TIP3    H277216   3.060   4.619  14.856 -1.4069  1.5060  0.3826
18601TIP3   OH277217   4.266   2.274  11.750 -0.1874 -0.4199  0.1088
18601TIP3    H177218   4.238   2.364  11.730  1.2685  0.2267  0.8067
18601TIP3    H277219   4.331   2.285  11.819 -0.2330 -2.0607  0.4346
18602TIP3   OH277220   2.259   3.936  11.741  0.1944 -0.4736  0.5663
18602TIP3    H177221   2.185   3.997  11.737 -0.8268 -1.7493 -1.0692
18602TIP3    H277222   2.332   3.990  11.771 -1.0492  1.1517  0.8413
18603TIP3   OH277223   6.066   5.713   2.893 -0.5185 -0.0520 -0.3192
18603TIP3    H177224   6.122   5.782   2.858 -1.2801 -0.1733 -1.8988
18603TIP3    H277225   6.021   5.678   2.816 -1.8089 -0.8093  0.7317
18604TIP3   OH277226   0.192   0.905  14.208  0.0433  0.1312  0.0442
18604TIP3    H177227   0.270   0.887  14.155 -0.1181  0.8132 -0.4228
18604TIP3    H277228   0.131   0.947  14.149  0.6734  2.9273  1.2468
18605TIP3   OH277229   0.257   6.517   4.771  0.4076  0.1394  0.1452
18605TIP3    H177230   0.231   6.524   4.862  2.3736  1.6612  0.6628
18605TIP3    H277231   0.346   6.554   4.768  0.7900 -0.7619 -2.2078
18606TIP3   OH277232   4.499   4.553  16.876 -0.7223 -0.2038  0.1239
18606TIP3    H177233   4.418   4.603  16.882 -0.2151  0.6395  0.0572
18606TIP3    H277234   4.534   4.554  16.965 -0.0134  0.7598 -0.1534
18607TIP3   OH277235   3.730   2.161   4.431 -0.3652  1.0074  0.3825
18607TIP3    H177236   3.695   2.081   4.391 -0.5087  1.5818 -0.6795
18607TIP3    H277237   3.664   2.187   4.495 -0.3209  0.2851  0.7285
18608TIP3   OH277238   6.238   0.872   1.706  0.2585 -0.1119 -0.2728
18608TIP3    H177239   6.196   0.858   1.621  0.3621 -1.9300 -0.0505
18608TIP3    H277240   6.180   0.934   1.751 -0.3920  0.0070 -1.2398
18609TIP3   OH277241   4.729   3.830  17.396  0.4367  0.3059 -0.9674
18609TIP3    H177242   4.709   3.917  17.430  0.2769  0.3136 -1.0825
18609TIP3    H277243   4.673   3.821  17.318 -0.8384 -0.5719  0.0088
18610TIP3   OH277244   1.753   4.324   5.878  0.3523  0.1527  0.1150
18610TIP3    H177245   1.710   4.238   5.876 -2.0926  1.2770  0.7588
18610TIP3    H277246   1.841   4.306   5.912 -1.0340 -1.7759  3.1271
18611TIP3   OH277247   3.287   5.418   1.906 -0.1605 -0.1840  0.0757
18611TIP3    H177248   3.377   5.411   1.938 -0.1428  0.2081  0.1185
18611TIP3    H277249   3.279   5.350   1.839 -0.4611 -1.6091  1.5051
18612TIP3   OH277250   1.323   6.550  16.071 -0.6673  0.1884 -0.1636
18612TIP3    H177251   1.301   6.626  16.125  0.1173  1.5697 -1.7058
18612TIP3    H277252   1.286   6.571  15.985 -1.6103 -1.8117 -0.2965
18613TIP3   OH277253   2.704   4.943  17.162  0.4257 -0.1527 -0.1470
18613TIP3    H177254   2.713   5.034  17.132  1.4284 -0.2649 -0.2236
18613TIP3    H277255   2.665   4.951  17.249 -0.2926  0.3001 -0.4970
18614TIP3   OH277256   1.437   2.104   2.745 -0.2799  0.0533 -0.6471
18614TIP3    H177257   1.358   2.109   2.799  0.2801 -0.1048  0.2047
18614TIP3    H277258   1.507   2.080   2.806  0.5575  0.8619 -1.2554
18615TIP3   OH277259   4.922   0.906   0.609  0.0954 -0.3268 -0.1881
18615TIP3    H177260   4.988   0.850   0.650 -0.7966 -0.7373  0.7361
18615TIP3    H277261   4.875   0.945   0.683 -0.1245  0.6578 -0.8282
18616TIP3   OH277262   6.027   1.596   5.854  0.6630  0.4464 -0.0258
18616TIP3    H177263   6.059   1.606   5.764 -0.5447 -1.3488 -0.7258
18616TIP3    H277264   6.106   1.581   5.906  1.2821  0.0208 -1.0471
18617TIP3   OH277265   1.270   1.554  14.524  0.3099  0.1238 -0.1922
18617TIP3    H177266   1.265   1.538  14.618  0.3959 -0.5723 -0.3017
18617TIP3    H277267   1.340   1.618  14.514  1.2698 -0.8608  0.0963
18618TIP3   OH277268   4.942   4.293   1.740 -0.6076  0.2269  0.6529
18618TIP3    H177269   4.916   4.230   1.673 -1.1389  0.3994  0.6884
18618TIP3    H277270   4.973   4.369   1.691  1.0575 -0.4475  0.6045
18619TIP3   OH277271   1.430   6.469  15.669  0.2444  0.5075  0.2585
18619TIP3    H177272   1.436   6.405  15.740  0.5249 -1.0501 -1.1256
18619TIP3    H277273   1.520   6.476  15.636 -0.0492  0.4894 -0.5543
18620TIP3   OH277274   3.129   2.342  11.173  0.4244 -0.2767  0.2537
18620TIP3    H177275   3.201   2.392  11.212 -0.2086  0.3008  0.7308
18620TIP3    H277276   3.161   2.316  11.087  1.3924 -0.4851  0.6679
18621TIP3   OH277277   0.094   5.227   4.503 -0.0001 -0.6859 -0.3744
18621TIP3    H177278   0.013   5.238   4.454 -1.2089  0.3290  1.7026
18621TIP3    H277279   0.163   5.257   4.444 -1.6691  3.7886 -0.4315
18622TIP3   OH277280   2.228   4.982   0.271 -0.3165  0.7440 -0.1743
18622TIP3    H177281   2.201   5.053   0.330 -1.9554  0.7225 -0.8306
18622TIP3    H277282   2.305   4.944   0.312 -0.0463  2.2175  0.7491
18623TIP3   OH277283   6.491   3.885   0.205  0.3815 -0.0669 -0.3272
18623TIP3    H177284   6.498   3.865   0.299  1.2914 -2.1204 -0.7651
18623TIP3    H277285   6.501   3.980   0.200 -0.9064  0.2468  1.7412
18624TIP3   OH277286   1.977   1.165  15.502 -0.4824 -0.1248 -0.3644
18624TIP3    H177287   1.903   1.167  15.442  0.2388  0.2455 -1.2573
18624TIP3    H277288   2.025   1.246  15.485  0.3597 -0.5522 -0.0942
18625TIP3   OH277289   0.483   3.182  16.759  0.5648  0.2296  0.1895
18625TIP3    H177290   0.527   3.097  16.753 -0.2372 -0.2164  0.4901
18625TIP3    H277291   0.398   3.162  16.799  0.6024  1.2525  0.8097
18626TIP3   OH277292   3.623   5.202  15.757 -0.6125  0.0852  0.3349
18626TIP3    H177293   3.647   5.112  15.737  1.7546  0.6919  0.1827
18626TIP3    H277294   3.687   5.231  15.822  0.1456  2.3462 -1.2843
18627TIP3   OH277295   3.730   2.398  11.070 -0.3137 -0.3175 -0.2961
18627TIP3    H177296   3.782   2.475  11.046  0.5269 -0.3956  1.1980
18627TIP3    H277297   3.667   2.389  10.998  1.0692  0.3723 -1.6375
18628TIP3   OH277298   3.015   6.027   2.945  0.7730  0.2007  0.5879
18628TIP3    H177299   3.087   6.084   2.920  0.2518  0.7199  0.2608
18628TIP3    H277300   3.057   5.943   2.967  1.3363  0.0209 -1.0561
18629TIP3   OH277301   4.927   6.596  11.919  0.6942  0.3624 -0.1846
18629TIP3    H177302   4.910   6.517  11.868 -0.7027  0.5707 -0.0707
18629TIP3    H277303   5.004   6.635  11.877  1.8687 -1.4168  0.2164
18630TIP3   OH277304   6.387   0.545   3.422  0.2144 -0.3681  0.0435
18630TIP3    H177305   6.457   0.554   3.358 -0.1659  0.1997 -0.3096
18630TIP3    H277306   6.424   0.491   3.491  0.5905 -1.1163 -0.7164
18631TIP3   OH277307   1.677   0.552  15.261  0.4623  0.2158 -0.0883
18631TIP3    H177308   1.599   0.542  15.206  1.1049  1.0322 -1.1722
18631TIP3    H277309   1.722   0.467  15.254 -0.3161 -0.2676  0.5580
18632TIP3   OH277310   6.665   6.491   6.026  0.3766  0.2460 -0.0052
18632TIP3    H177311   6.760   6.489   6.017  0.3739 -0.4613  0.1072
18632TIP3    H277312   6.646   6.581   6.055  0.8920  0.7710 -1.2173
18633TIP3   OH277313   5.613   1.425   0.602 -0.2888 -0.1588 -0.1011
18633TIP3    H177314   5.585   1.516   0.594  2.7155  0.8744  0.2418
18633TIP3    H277315   5.697   1.429   0.648  1.2792 -2.8428 -2.4225
18634TIP3   OH277316   6.535   4.970   4.472  0.5396 -0.1403 -0.4033
18634TIP3    H177317   6.561   4.964   4.564  0.6741  1.8062 -0.2686
18634TIP3    H277318   6.617   4.968   4.423  0.4537 -1.4442 -0.5258
18635TIP3   OH277319   4.671   5.627  17.233  0.0326 -0.1004 -0.2892
18635TIP3    H177320   4.612   5.700  17.217 -0.4946  0.4566  3.3563
18635TIP3    H277321   4.612   5.552  17.247  0.0136  0.3214  2.6904
18636TIP3   OH277322   4.691   2.093  12.294 -0.6879 -0.1864 -0.3882
18636TIP3    H177323   4.610   2.045  12.277 -2.6623  2.9286 -0.5796
18636TIP3    H277324   4.677   2.134  12.379 -0.8567  3.1005 -1.8756
18637TIP3   OH277325   2.908   4.667  16.204  0.5805  0.4463 -0.2483
18637TIP3    H177326   2.902   4.675  16.300  1.0779  0.8472 -0.2467
18637TIP3    H277327   2.996   4.632  16.189 -0.0315 -1.0349 -0.4929
18638TIP3   OH277328   1.629   0.882   4.882 -0.5407 -0.1547 -0.0681
18638TIP3    H177329   1.724   0.884   4.881 -0.5394  0.0249  0.2143
18638TIP3    H277330   1.606   0.792   4.903 -0.4366 -0.2864 -0.5244
18639TIP3   OH277331   3.359   6.091  17.177  0.4997  0.3418 -0.1316
18639TIP3    H177332   3.264   6.091  17.187  0.5844  0.4421  0.7509
18639TIP3    H277333   3.383   5.998  17.179  0.3268  0.2499 -1.4598
18640TIP3   OH277334   1.147   4.256   1.064  0.2626  0.3127 -0.3586
18640TIP3    H177335   1.171   4.343   1.034 -3.0400  1.7230  0.6392
18640TIP3    H277336   1.159   4.258   1.158 -3.0454  1.0594  0.1855
18641TIP3   OH277337   1.697   4.559  15.960  0.2413  0.2906  0.3718
18641TIP3    H177338   1.739   4.536  16.043 -2.5169 -0.3428  1.7178
18641TIP3    H277339   1.722   4.650  15.945  1.0745  0.3169  1.7154
18642TIP3   OH277340   0.392   6.634  12.462 -0.1991  0.4580  0.1012
18642TIP3    H177341   0.428   6.546  12.478  0.5808  0.6872 -0.3290
18642TIP3    H277342   0.469   6.688  12.445 -0.6488  1.3109  0.7284
18643TIP3   OH277343   3.526   6.111  14.549  0.5124 -0.3916  0.5852
18643TIP3    H177344   3.498   6.066  14.629  1.4364  0.6089  1.5081
18643TIP3    H277345   3.553   6.040  14.490  0.7221 -1.1124  1.5200
18644TIP3   OH277346   3.588   2.999  14.259  0.2770  0.3137 -1.0805
18644TIP3    H177347   3.558   2.909  14.271 -0.2986  0.4558 -1.4141
18644TIP3    H277348   3.613   3.004  14.167 -1.1897  0.9109 -1.4812
18645TIP3   OH277349   5.238   6.270   5.149 -0.2533 -0.8041 -0.2431
18645TIP3    H177350   5.177   6.222   5.094 -0.1577 -1.0763 -0.1137
18645TIP3    H277351   5.184   6.313   5.215 -0.4518  0.1873 -1.0274
18646TIP3   OH277352   1.907   3.345  11.213 -0.5661 -0.0031  1.2625
18646TIP3    H177353   1.870   3.321  11.128  0.0657 -2.2753  1.5625
18646TIP3    H277354   1.958   3.269  11.239  3.7426  2.5487  1.2747
18647TIP3   OH277355   0.043   5.844  12.028 -0.6242 -0.4258  0.0702
18647TIP3    H177356   0.097   5.815  12.102 -0.1515  0.5704  0.1256
18647TIP3    H277357  -0.031   5.889  12.070 -1.6883 -2.0264  0.0081
18648TIP3   OH277358   4.956   5.965   3.589  0.0053  0.3001  0.0364
18648TIP3    H177359   5.009   6.027   3.540  0.8598 -0.8419 -0.5541
18648TIP3    H277360   4.988   5.879   3.561 -2.7147 -0.4904 -1.0098
18649TIP3   OH277361   6.750   3.473  12.307 -0.4185  0.0241  0.1163
18649TIP3    H177362   6.686   3.516  12.250 -0.5510 -0.5125 -0.1482
18649TIP3    H277363   6.832   3.519  12.291 -0.1806 -0.8604 -1.3847
18650TIP3   OH277364   2.078   6.553   2.786 -0.0682 -0.5707  0.0056
18650TIP3    H177365   2.172   6.537   2.797 -0.3057 -1.7038  0.5317
18650TIP3    H277366   2.037   6.494   2.849 -1.1220  0.3483  0.2055
18651TIP3   OH277367   3.691   3.676  14.298  0.6316 -0.3783  0.1149
18651TIP3    H177368   3.639   3.643  14.225  1.3728 -1.1911 -0.0588
18651TIP3    H277369   3.627   3.718  14.356 -0.3844 -2.2470  0.4316
18652TIP3   OH277370   3.939   3.406  13.866 -0.0500 -0.0068  0.0523
18652TIP3    H177371   3.868   3.395  13.802 -0.5455  0.8204  0.4557
18652TIP3    H277372   3.942   3.322  13.912 -0.8734  0.0064  0.1433
18653TIP3   OH277373   3.824   6.119  11.862 -0.1564  0.4900 -0.1818
18653TIP3    H177374   3.802   6.208  11.892  0.1489  0.7436 -0.7027
18653TIP3    H277375   3.790   6.115  11.772 -1.2652 -0.3393  0.2470
18654TIP3   OH277376   0.291   5.960   0.794  0.0724  0.0677  0.9823
18654TIP3    H177377   0.197   5.970   0.781  0.6772  3.6617 -2.8550
18654TIP3    H277378   0.318   6.043   0.835  1.7824  0.1872 -0.2909
18655TIP3   OH277379   4.319   4.492   0.187 -0.1309 -0.0601  0.3959
18655TIP3    H177380   4.392   4.510   0.128  0.5897 -0.5779  1.1092
18655TIP3    H277381   4.242   4.490   0.130  0.5022 -0.2172 -0.4755
18656TIP3   OH277382   4.989   4.742  16.117  0.4971 -0.0145 -0.0568
18656TIP3    H177383   5.009   4.653  16.147  0.7709 -0.1156 -0.5243
18656TIP3    H277384   5.015   4.799  16.189 -2.4013 -0.4843  1.4705
18657TIP3   OH277385   6.218   0.093  15.412 -0.1242 -0.2362 -0.2868
18657TIP3    H177386   6.242   0.099  15.320 -2.1312 -0.0631 -0.8351
18657TIP3    H277387   6.123   0.083  15.412 -0.1789 -0.1512  1.7697
18658TIP3   OH277388   4.874   0.852  16.130  0.0724  0.2157 -0.6087
18658TIP3    H177389   4.932   0.875  16.203 -1.1190  2.8644 -0.3955
18658TIP3    H277390   4.861   0.758  16.139  1.5171  0.1368  1.4200
18659TIP3   OH277391   6.246   0.216  11.626  0.2283  0.3001 -0.2880
18659TIP3    H177392   6.269   0.297  11.579 -0.1966  0.9725  0.6186
18659TIP3    H277393   6.210   0.247  11.709 -0.0746 -0.8345  0.0133
18660TIP3   OH277394   3.527   1.131  15.294 -0.2112  0.3341 -0.0866
18660TIP3    H177395   3.509   1.204  15.235 -0.9369 -0.0310 -0.3281
18660TIP3    H277396   3.541   1.172  15.379  0.1384  0.8050 -0.3644
18661TIP3   OH277397   3.944   1.122  15.878  0.4335 -0.3697 -0.0632
18661TIP3    H177398   4.006   1.193  15.898  0.9870 -1.0664  0.7713
18661TIP3    H277399   3.888   1.158  15.809 -0.9121  1.8231  2.0257
18662TIP3   OH277400   2.288   3.434   5.268  0.1867  0.0945  0.3981
18662TIP3    H177401   2.347   3.369   5.230  0.4868  1.0061 -0.7662
18662TIP3    H277402   2.296   3.422   5.362  2.2441  0.1867  0.2831
18663TIP3   OH277403   2.917   6.219   2.759  0.0482 -0.2528 -0.0355
18663TIP3    H177404   2.944   6.143   2.811 -1.5026 -1.0089 -0.2718
18663TIP3    H277405   2.825   6.202   2.737 -0.6039  2.0951  0.6035
18664TIP3   OH277406   0.236   1.244  16.407  0.1435  0.5302 -0.0980
18664TIP3    H177407   0.172   1.197  16.353 -1.0899  2.3418 -0.3006
18664TIP3    H277408   0.261   1.181  16.474 -1.2933 -0.4851 -0.4629
18665TIP3   OH277409   0.432   6.740  16.277  0.5317 -0.6486  0.0414
18665TIP3    H177410   0.479   6.822  16.291  0.2844 -0.1768 -1.6025
18665TIP3    H277411   0.499   6.679  16.247  0.4455 -0.5419 -0.3824
18666TIP3   OH277412   2.358   4.682   5.056 -0.1371 -0.0687 -0.1284
18666TIP3    H177413   2.366   4.657   4.964  0.4249 -1.8043  0.3459
18666TIP3    H277414   2.267   4.665   5.078  0.3378 -2.4210  0.3154
18667TIP3   OH277415   2.140   6.408   3.371  0.1959  0.1673 -0.1421
18667TIP3    H177416   2.091   6.476   3.417 -1.0425 -0.1334 -0.9560
18667TIP3    H277417   2.172   6.350   3.440 -0.5800  0.3958  0.4279
18668TIP3   OH277418   2.471   1.312   3.699 -0.5785  0.2906  0.1631
18668TIP3    H177419   2.494   1.244   3.762 -0.4172  0.1939  0.0002
18668TIP3    H277420   2.380   1.292   3.674 -0.8695  0.7214  0.8663
18669TIP3   OH277421   5.587   0.565  14.646 -0.5576 -0.2117  0.6489
18669TIP3    H177422   5.601   0.536  14.556  4.2278  0.6832  0.8494
18669TIP3    H277423   5.567   0.659  14.638 -0.3766 -0.1858  0.4877
18670TIP3   OH277424   3.281   2.610   5.069 -0.4282  0.3386 -0.2078
18670TIP3    H177425   3.344   2.646   5.131  1.5471  0.2169 -2.0179
18670TIP3    H277426   3.236   2.541   5.117  2.3243 -1.0127  0.6061
18671TIP3   OH277427   6.453   6.189   5.783 -1.0326 -0.0855  0.0750
18671TIP3    H177428   6.407   6.131   5.722 -0.3915 -1.8694  1.1851
18671TIP3    H277429   6.444   6.145   5.868  1.5912  0.1300  0.5532
18672TIP3   OH277430   1.188   5.449  11.575  0.2487  0.7101 -0.1906
18672TIP3    H177431   1.237   5.518  11.531  0.0202  0.7913 -0.3173
18672TIP3    H277432   1.217   5.453  11.666 -0.3010  1.4611 -0.0357
18673TIP3   OH277433   0.580   1.261  15.671  0.1407 -0.2900 -0.6922
18673TIP3    H177434   0.485   1.260  15.679  0.2053  1.0137  0.6920
18673TIP3    H277435   0.610   1.317  15.743  1.9889 -1.0471 -0.8044
18674TIP3   OH277436   4.767   2.365   3.359 -0.3392  0.1972  0.1091
18674TIP3    H177437   4.705   2.304   3.398  0.6404 -1.7407 -1.1767
18674TIP3    H277438   4.851   2.345   3.401 -0.0965  1.0116  0.0333
18675TIP3   OH277439   0.997   3.283   0.922 -0.4145 -0.3244  0.1239
18675TIP3    H177440   0.928   3.303   0.985  0.9638  0.6915  1.3836
18675TIP3    H277441   1.022   3.368   0.886  0.5984 -0.5839  0.1786
18676TIP3   OH277442   1.412   2.027  11.679  0.3666 -0.1518 -0.0656
18676TIP3    H177443   1.441   1.943  11.715  1.2059  0.6226  1.1640
18676TIP3    H277444   1.441   2.025  11.588 -0.7264 -1.6855 -0.4158
18677TIP3   OH277445   3.303   0.513   0.023 -0.2609  0.1387  0.4980
18677TIP3    H177446   3.375   0.453   0.001 -0.3834  0.2460 -0.2203
18677TIP3    H277447   3.318   0.589  -0.033 -2.1942 -0.7713 -1.4328
18678TIP3   OH277448   3.809   6.403   6.051  0.4729  0.3518 -0.1511
18678TIP3    H177449   3.859   6.362   6.121  0.0983 -0.4144 -0.3189
18678TIP3    H277450   3.742   6.339   6.029 -0.3014  1.1683 -0.2399
18679TIP3   OH277451   5.444   1.397  16.240  0.2890 -0.3480  0.3362
18679TIP3    H177452   5.531   1.430  16.217 -1.0920  2.8085 -0.9027
18679TIP3    H277453   5.395   1.400  16.157 -1.1266 -1.7907  1.0602
18680TIP3   OH277454   1.492   0.857   4.536 -0.3552  0.0125  0.0549
18680TIP3    H177455   1.483   0.762   4.536 -1.5892  0.0874  1.5429
18680TIP3    H277456   1.464   0.883   4.448 -1.4784 -0.9093  0.1059
18681TIP3   OH277457   5.404   5.359   1.874  0.0174 -0.2713 -0.0197
18681TIP3    H177458   5.448   5.373   1.790 -0.4665  0.4746 -0.1639
18681TIP3    H277459   5.428   5.435   1.927  3.0190 -2.2830  1.7574
18682TIP3   OH277460   5.578   1.311  15.634  1.1392 -0.1637 -0.0042
18682TIP3    H177461   5.580   1.364  15.714 -1.4588 -0.0717  0.1071
18682TIP3    H277462   5.665   1.320  15.597  1.4706  2.4325  1.1512
18683TIP3   OH277463   3.739   3.130   5.850  0.3234 -0.3405  0.2540
18683TIP3    H177464   3.678   3.117   5.922 -0.3548 -0.9953 -0.4159
18683TIP3    H277465   3.776   3.218   5.865  0.3875 -0.5631  1.5102
18684TIP3   OH277466   4.515   1.217   0.838  0.0413 -0.5953 -0.2375
18684TIP3    H177467   4.567   1.289   0.872  0.2464 -1.1297  0.5965
18684TIP3    H277468   4.480   1.173   0.916  1.1858 -2.3330 -0.6511
18685TIP3   OH277469   0.490   0.189   6.743  0.1904  0.0987 -1.2031
18685TIP3    H177470   0.542   0.177   6.663  0.5617 -0.5629 -0.8768
18685TIP3    H277471   0.490   0.283   6.757  0.5917  0.1803 -1.6821
18686TIP3   OH277472   4.101   6.617  12.038  0.0005  0.5455  0.4923
18686TIP3    H177473   4.174   6.625  12.099  1.6725  1.8768 -1.5464
18686TIP3    H277474   4.081   6.707  12.013 -1.5842  0.1148  0.1264
18687TIP3   OH277475   4.471   6.086  11.422 -0.7668  0.2267  0.1972
18687TIP3    H177476   4.377   6.072  11.410 -0.7611  0.7908 -0.6003
18687TIP3    H277477   4.477   6.155  11.489 -0.9163  0.1691  0.2699
18688TIP3   OH277478   4.253   4.871  15.154 -0.2231  0.3544  0.1301
18688TIP3    H177479   4.265   4.952  15.105  3.7452  1.5875  2.6388
18688TIP3    H277480   4.339   4.829  15.154 -1.2282 -1.9763  2.0397
18689TIP3   OH277481   1.830   1.465  13.824 -0.1003 -0.3303 -0.3297
18689TIP3    H177482   1.853   1.504  13.739  1.2571  0.0893  0.2039
18689TIP3    H277483   1.914   1.450  13.867 -0.8016  1.3183  1.7642
18690TIP3   OH277484   2.787   4.259  16.003  0.2639 -0.3371  0.7882
18690TIP3    H177485   2.713   4.238  15.946  0.6795  2.8334 -1.1335
18690TIP3    H277486   2.850   4.190  15.986 -0.7314 -0.9855 -0.4895
18691TIP3   OH277487   1.063   5.288  14.579  0.4833  0.2294  0.0609
18691TIP3    H177488   1.006   5.225  14.535  0.3142  1.7566 -2.0567
18691TIP3    H277489   1.076   5.358  14.514 -0.1842  2.9198  2.6155
18692TIP3   OH277490   3.990   4.393   1.212  0.1883 -0.1175 -0.3421
18692TIP3    H177491   3.908   4.423   1.249 -0.1880  1.0849 -2.0284
18692TIP3    H277492   4.056   4.453   1.247  0.6571 -1.8881  2.0884
18693TIP3   OH277493   1.782   2.799   3.005 -0.0588 -0.7861  0.4419
18693TIP3    H177494   1.756   2.777   2.915  0.7840 -0.9152  0.2222
18693TIP3    H277495   1.771   2.894   3.010  0.6623 -0.6697 -0.0595
18694TIP3   OH277496   0.050   1.322  13.553  0.3040  0.2634  0.0501
18694TIP3    H177497   0.023   1.403  13.596 -2.1264  0.2056 -1.1860
18694TIP3    H277498   0.146   1.325  13.554  0.3117  1.7254  2.5839
18695TIP3   OH277499   5.742   4.806   3.922  0.1477  0.8370 -0.2522
18695TIP3    H177500   5.727   4.868   3.850 -0.3082 -0.8840 -1.7037
18695TIP3    H277501   5.720   4.720   3.885 -1.5112  0.0036  2.3481
18696TIP3   OH277502   4.021   6.599   6.964  0.1480 -0.5188 -0.3309
18696TIP3    H177503   4.074   6.577   6.888  0.0486 -1.2944 -0.1786
18696TIP3    H277504   4.054   6.685   6.993 -0.3336  0.1504 -1.7106
18697TIP3   OH277505   4.263   2.427  12.023  0.1398 -0.0660 -0.7233
18697TIP3    H177506   4.333   2.448  11.962 -1.1021  1.5081 -1.7005
18697TIP3    H277507   4.272   2.492  12.093  0.6850 -0.9542  0.0442
18698TIP3   OH277508   4.036   0.761  11.533  0.3579 -0.5573  0.2066
18698TIP3    H177509   4.014   0.845  11.493 -2.5295  0.5227  3.5072
18698TIP3    H277510   3.980   0.697  11.489 -1.3119  0.2612  1.0220
18699TIP3   OH277511   4.644   4.536  16.165 -0.1739 -0.0946  0.1840
18699TIP3    H177512   4.678   4.608  16.111  0.6805  0.9536  2.0447
18699TIP3    H277513   4.709   4.467  16.156  0.0209  0.1103 -0.0163
18700TIP3   OH277514   5.766   5.784  11.578  0.0611  0.5671 -0.2325
18700TIP3    H177515   5.810   5.756  11.659  0.8357  0.2620 -0.7507
18700TIP3    H277516   5.695   5.722  11.567 -0.2306  0.7791  0.3594
18701TIP3   OH277517   5.853   1.048  13.438 -0.4657  0.2261 -0.5202
18701TIP3    H177518   5.909   0.973  13.415 -0.7125 -0.3153  0.5805
18701TIP3    H277519   5.872   1.064  13.531 -2.2537 -0.0823 -0.0776
18702TIP3   OH277520   2.506   5.664   5.924  0.1300  0.8305  0.1932
18702TIP3    H177521   2.430   5.609   5.946 -0.4409  1.7733  0.6179
18702TIP3    H277522   2.575   5.601   5.901 -0.1327 -0.1006  1.8301
18703TIP3   OH277523   0.657   6.095  17.019 -0.6067 -0.3947  0.0345
18703TIP3    H177524   0.656   6.123  16.928 -0.8240  0.1500  0.1965
18703TIP3    H277525   0.718   6.155  17.062 -0.9868 -0.2368  0.3685
18704TIP3   OH277526   2.990   3.560   4.442 -0.6638 -0.3158 -0.4284
18704TIP3    H177527   3.009   3.643   4.399 -0.0817  1.1752  2.4085
18704TIP3    H277528   3.076   3.521   4.459 -0.9347 -1.7113 -1.9705
18705TIP3   OH277529   5.333   5.820   5.917  0.1321 -0.2723 -0.0356
18705TIP3    H177530   5.294   5.734   5.902  0.9696 -1.2769  2.8895
18705TIP3    H277531   5.259   5.878   5.934 -0.3425 -1.4097  2.1340
18706TIP3   OH277532   4.893   5.782  16.274  0.2783  0.0848 -0.0538
18706TIP3    H177533   4.945   5.852  16.312  1.2467 -1.0761  0.8492
18706TIP3    H277534   4.899   5.795  16.179 -0.0793  1.5590  0.1103
18707TIP3   OH277535   1.597   3.809  16.238  0.6013  0.3507 -0.2700
18707TIP3    H177536   1.556   3.804  16.152 -0.0872  1.6331 -0.0443
18707TIP3    H277537   1.627   3.900  16.245 -0.9999  0.7938  1.5572
18708TIP3   OH277538   0.113   3.342  12.569  0.3045 -0.0844 -0.0735
18708TIP3    H177539   0.057   3.298  12.505  1.6069 -0.5614 -0.9235
18708TIP3    H277540   0.197   3.295  12.564  0.5007 -0.0493  1.8870
18709TIP3   OH277541   6.652   0.915   4.883  0.4382 -0.0096  0.1929
18709TIP3    H177542   6.676   0.982   4.947  1.2000  1.2348 -1.3429
18709TIP3    H277543   6.564   0.941   4.854 -0.6821 -1.5868  1.9718
18710TIP3   OH277544   1.805   1.947  11.655 -0.4082 -0.5667  0.1652
18710TIP3    H177545   1.757   1.929  11.737  1.0144 -2.5590  0.6345
18710TIP3    H277546   1.871   2.012  11.680  1.8487 -3.1494  1.4200
18711TIP3   OH277547   3.063   6.310   4.851  0.4212  0.3138  0.2580
18711TIP3    H177548   3.095   6.400   4.855 -0.2223  0.5309  0.5438
18711TIP3    H277549   2.977   6.317   4.810  1.3116 -0.4242 -1.9205
18712TIP3   OH277550   2.418   0.250   3.684  1.0766 -0.0080 -0.1218
18712TIP3    H177551   2.431   0.213   3.771  0.5419  0.6870  0.2656
18712TIP3    H277552   2.372   0.182   3.636  0.2742  0.0644  0.5237
18713TIP3   OH277553   6.226   6.657  10.776 -0.4983  0.4988 -0.3755
18713TIP3    H177554   6.182   6.741  10.789 -0.9042  0.2509 -0.1362
18713TIP3    H277555   6.255   6.631  10.863 -4.5906 -1.9248  0.5680
18714TIP3   OH277556   0.575   4.212   2.715 -0.4729 -0.5184 -0.3113
18714TIP3    H177557   0.519   4.184   2.642 -2.8002  0.6102  0.9359
18714TIP3    H277558   0.587   4.306   2.700 -0.0735 -0.4814  0.2147
18715TIP3   OH277559   1.123   2.365  16.059  0.5679 -0.5024 -0.2682
18715TIP3    H177560   1.038   2.396  16.028 -0.2739 -0.1511  2.1763
18715TIP3    H277561   1.187   2.421  16.015 -0.4601 -0.6055 -1.9570
18716TIP3   OH277562   6.175   2.798   4.618 -0.3535  0.6747  0.2668
18716TIP3    H177563   6.252   2.855   4.617 -0.5305  0.9208  0.4977
18716TIP3    H277564   6.200   2.723   4.563 -0.3981  1.3358 -0.6792
18717TIP3   OH277565   2.870   2.303  11.872 -0.2865  0.0726 -0.1377
18717TIP3    H177566   2.906   2.322  11.785 -0.6276 -1.4099 -0.6266
18717TIP3    H277567   2.788   2.258  11.855 -1.6995  2.0929  0.9697
18718TIP3   OH277568   3.535   0.374  13.933  0.9556  0.8212  0.4147
18718TIP3    H177569   3.627   0.351  13.921  0.3016 -1.3951 -0.9054
18718TIP3    H277570   3.511   0.334  14.017  0.1939 -2.4155 -1.2066
18719TIP3   OH277571   5.971   0.081  16.990 -0.1094 -0.4273  0.0607
18719TIP3    H177572   6.046   0.056  16.936 -0.9323  0.9658 -1.8090
18719TIP3    H277573   5.896   0.077  16.931 -1.0428  1.2533  1.0598
18720TIP3   OH277574   5.820   6.275  17.414 -0.5360  0.1086 -0.2976
18720TIP3    H177575   5.803   6.196  17.363 -1.7453 -0.7990  1.3896
18720TIP3    H277576   5.910   6.265  17.445  0.2332  0.6993 -2.1944
18721TIP3   OH277577   3.788   3.741   1.770  0.1169 -0.5400  0.6607
18721TIP3    H177578   3.776   3.836   1.770  0.2757 -0.5125 -0.1963
18721TIP3    H277579   3.867   3.727   1.718  0.0335 -1.1477  0.6898
18722TIP3   OH277580   3.385   0.960   1.217 -0.2424 -0.1404 -0.1517
18722TIP3    H177581   3.316   0.895   1.205 -0.3800  0.0061 -0.1670
18722TIP3    H277582   3.453   0.915   1.267  0.4951 -0.8708 -1.7387
18723TIP3   OH277583   6.283   1.332   5.600  0.0084  0.1883 -0.3334
18723TIP3    H177584   6.333   1.395   5.652 -0.1719  1.4559 -1.6164
18723TIP3    H277585   6.202   1.378   5.578 -2.0074 -1.9423  2.0015
18724TIP3   OH277586   5.206   1.332   0.326 -0.5215 -0.5935  0.4729
18724TIP3    H177587   5.264   1.396   0.366 -0.5551  0.9027 -1.6790
18724TIP3    H277588   5.152   1.299   0.398  2.5120 -1.6011  2.4526
18725TIP3   OH277589   3.096   0.430  13.929  0.0829  0.2476  0.2840
18725TIP3    H177590   3.160   0.383  13.982  1.5270  0.4819 -1.1550
18725TIP3    H277591   3.040   0.362  13.892 -0.1353 -0.0084  1.0594
18726TIP3   OH277592   5.739   2.577   1.287 -0.4291  0.0072  0.1855
18726TIP3    H177593   5.713   2.577   1.195 -1.7808  0.8643  0.5573
18726TIP3    H277594   5.708   2.660   1.322  0.6495 -0.0157  1.2730
18727TIP3   OH277595   3.545   3.652   5.377  0.2114 -0.4874  0.2643
18727TIP3    H177596   3.604   3.728   5.378 -1.2976  0.7836 -1.3942
18727TIP3    H277597   3.604   3.577   5.386  2.2608  0.6435 -2.2567
18728TIP3   OH277598   1.409   2.566  16.845  0.6440 -0.3799  0.7067
18728TIP3    H177599   1.428   2.536  16.934 -0.2085 -1.8777  0.4089
18728TIP3    H277600   1.314   2.561  16.837  0.8062 -1.8370 -0.7908
18729TIP3   OH277601   3.765   3.956   5.973  0.0844  0.2987 -0.0321
18729TIP3    H177602   3.732   3.970   5.885  0.5820 -0.9124 -0.4282
18729TIP3    H277603   3.859   3.976   5.967 -0.3606  3.1319  0.9435
18730TIP3   OH277604   1.982   5.517   5.678 -0.4019  0.3065  0.2862
18730TIP3    H177605   1.887   5.525   5.669 -0.6141 -0.5439  1.5260
18730TIP3    H277606   1.994   5.458   5.753  1.1076  0.9467  0.5830
18731TIP3   OH277607   5.785   1.342  14.559 -0.2904 -0.7972 -0.5506
18731TIP3    H177608   5.878   1.358  14.544 -0.4677  0.8487 -0.0346
18731TIP3    H277609   5.740   1.406  14.504 -1.1157 -1.1217 -0.2743
18732TIP3   OH277610   6.657   3.543  13.630  0.8847  0.4012 -0.3808
18732TIP3    H177611   6.729   3.479  13.633 -0.3270 -1.0078 -0.0429
18732TIP3    H277612   6.596   3.507  13.565 -0.1408  0.8613  0.2990
18733TIP3   OH277613   1.894   5.591  15.672  0.0406 -0.1348  0.1942
18733TIP3    H177614   1.889   5.496  15.662  0.3401 -0.3003  1.4638
18733TIP3    H277615   1.869   5.625  15.586  1.0646 -1.3782 -0.6402
18734TIP3   OH277616   2.622   4.177   3.606  0.1455 -0.7560 -0.1180
18734TIP3    H177617   2.529   4.193   3.593  0.6611  1.0475 -2.2291
18734TIP3    H277618   2.636   4.088   3.572 -0.5541 -0.3816 -1.4700
18735TIP3   OH277619   6.137   3.562  16.787  0.2626 -0.4706  0.3109
18735TIP3    H177620   6.096   3.540  16.703 -0.5568 -0.1359  0.6204
18735TIP3    H277621   6.106   3.650  16.807 -1.5483 -1.4522  2.1690
18736TIP3   OH277622   6.062   1.830  13.712  0.0814 -0.6065 -0.1590
18736TIP3    H177623   6.098   1.747  13.682  3.1982 -0.4625  2.6183
18736TIP3    H277624   6.055   1.820  13.807  1.7326  2.5985  0.4427
18737TIP3   OH277625   2.171   2.483  14.449 -0.0284 -0.1081  0.3235
18737TIP3    H177626   2.263   2.489  14.475  0.2457  1.4485 -0.9290
18737TIP3    H277627   2.123   2.493  14.532  0.8958  0.6452  0.7922
18738TIP3   OH277628   0.039   4.709  14.070 -0.1051  0.6083  0.2556
18738TIP3    H177629  -0.055   4.721  14.061 -0.2851  0.6003  1.8418
18738TIP3    H277630   0.048   4.622  14.109  0.5909  0.4168 -0.3103
18739TIP3   OH277631   2.301   6.505   2.943  0.3559  0.1702 -0.4986
18739TIP3    H177632   2.303   6.469   3.032  0.3994 -1.1559 -1.0067
18739TIP3    H277633   2.392   6.525   2.923  0.3849  0.1924 -0.3392
18740TIP3   OH277634   1.671   6.366  11.064  0.7456 -0.3047  0.2508
18740TIP3    H177635   1.635   6.369  10.975  0.7423 -0.9864  0.2281
18740TIP3    H277636   1.598   6.392  11.120  0.8766  0.5964  0.0317
18741TIP3   OH277637   1.201   2.867  14.452 -0.4031  0.2825 -0.0343
18741TIP3    H177638   1.249   2.820  14.520 -0.3083  0.6176  0.1318
18741TIP3    H277639   1.269   2.904  14.395 -0.4451 -2.2616 -1.9331
18742TIP3   OH277640   0.166   0.439   4.031 -0.1688  0.3825 -0.1413
18742TIP3    H177641   0.148   0.410   4.120 -0.8218  2.4361  0.4576
18742TIP3    H277642   0.080   0.438   3.988 -0.4978  2.6893  0.3452
18743TIP3   OH277643   1.360   2.220  15.983  0.8995  0.3200 -0.3101
18743TIP3    H177644   1.269   2.245  16.000  0.7054 -1.1098  0.9271
18743TIP3    H277645   1.377   2.254  15.895 -0.1405  2.4383  0.2323
18744TIP3   OH277646   5.822   5.874   1.092 -0.6749  0.9704  0.0500
18744TIP3    H177647   5.884   5.858   1.163  0.8290  1.1106 -1.1647
18744TIP3    H277648   5.773   5.951   1.120  0.5537  1.6090  0.5314
18745TIP3   OH277649   6.409   2.055   5.526 -0.7144  0.2314 -0.8749
18745TIP3    H177650   6.368   1.990   5.583 -1.7075  1.2486 -0.4073
18745TIP3    H277651   6.491   2.013   5.498 -1.3603 -1.2437 -0.6579
18746TIP3   OH277652   4.734   4.307   2.657  0.4398 -0.3416  0.6357
18746TIP3    H177653   4.682   4.233   2.689 -0.2026  0.1947  0.8725
18746TIP3    H277654   4.670   4.366   2.618  1.1395 -0.6571 -1.0479
18747TIP3   OH277655   3.823   6.014  15.996 -0.3032 -0.5741  0.5423
18747TIP3    H177656   3.904   5.970  15.972 -0.1806  0.3869 -0.9936
18747TIP3    H277657   3.850   6.097  16.034 -0.5625 -0.5718  0.7278
18748TIP3   OH277658   2.338   6.134   5.529  0.2947 -0.3754 -0.2957
18748TIP3    H177659   2.408   6.194   5.503 -0.3930  0.0616 -1.2086
18748TIP3    H277660   2.336   6.140   5.625  0.2995  1.0100 -0.3653
18749TIP3   OH277661   0.015   0.097   4.432 -0.1233  0.3972  0.0466
18749TIP3    H177662   0.058   0.052   4.359 -0.9879  0.3042 -0.4272
18749TIP3    H277663   0.081   0.101   4.500 -0.3447 -2.7989  0.6199
18750TIP3   OH277664   2.808   0.899   2.588  0.1660 -0.1922  0.2096
18750TIP3    H177665   2.760   0.865   2.512  0.1232  0.8931 -0.2597
18750TIP3    H277666   2.799   0.994   2.581 -0.5492 -0.0893  2.0305
18751TIP3   OH277667   4.860   5.680   0.601 -0.4889 -0.0906 -0.4080
18751TIP3    H177668   4.918   5.608   0.626 -0.7994 -0.0661  0.3892
18751TIP3    H277669   4.907   5.759   0.626 -0.7806 -0.0653  0.0716
18752TIP3   OH277670   0.471   4.627  11.889 -0.0829 -0.8952  0.0535
18752TIP3    H177671   0.419   4.554  11.857 -1.7410 -0.2202  1.0542
18752TIP3    H277672   0.502   4.672  11.810 -3.5715  0.4113 -0.7269
18753TIP3   OH277673   4.597   5.167   2.253 -0.2114  0.5220  0.1428
18753TIP3    H177674   4.619   5.243   2.200 -0.3229  0.6021  0.2113
18753TIP3    H277675   4.544   5.112   2.195 -0.1132  0.4868  0.0866
18754TIP3   OH277676   0.627   3.360   5.562  0.5207  0.4645 -0.4232
18754TIP3    H177677   0.678   3.440   5.549  0.4034  0.5329 -0.4599
18754TIP3    H277678   0.537   3.385   5.543  0.5573  0.1817 -1.0017
18755TIP3   OH277679   5.948   2.468   2.305 -0.8823 -0.4122 -0.0530
18755TIP3    H177680   5.895   2.546   2.316  1.8574  1.5245  0.4150
18755TIP3    H277681   5.937   2.420   2.388 -1.7320  0.0043  0.0885
18756TIP3   OH277682   3.809   3.727   1.103  0.4040 -0.6226  0.0435
18756TIP3    H177683   3.859   3.793   1.152  0.7237 -0.5732 -0.3432
18756TIP3    H277684   3.859   3.646   1.113  0.5607 -0.5764 -0.3303
18757TIP3   OH277685   4.325   1.313  17.191  0.0098 -0.0760 -0.6141
18757TIP3    H177686   4.379   1.236  17.211  1.2025  1.2742  1.8999
18757TIP3    H277687   4.262   1.317  17.263  2.2433  3.1481  1.4220
18758TIP3   OH277688   1.186   2.642   4.612  0.1468  0.5516 -0.1725
18758TIP3    H177689   1.211   2.671   4.524  2.9838  0.9564  0.6538
18758TIP3    H277690   1.181   2.723   4.663  0.6018  0.1899  0.4656
18759TIP3   OH277691   6.234   3.230  12.386 -0.1428 -0.0421 -0.0128
18759TIP3    H177692   6.214   3.140  12.412 -0.6536 -0.5541 -2.0232
18759TIP3    H277693   6.187   3.284  12.450 -3.9292 -1.2162 -1.5171
18760TIP3   OH277694   3.793   2.092   6.893 -0.1229 -0.6555  0.4292
18760TIP3    H177695   3.731   2.102   6.821 -0.7988 -1.7239  0.8318
18760TIP3    H277696   3.809   2.182   6.924 -1.6446 -0.3605  0.4476
18761TIP3   OH277697   5.325   3.311   1.087  0.3809  0.1620  0.6472
18761TIP3    H177698   5.317   3.222   1.053 -0.4414  0.4496  0.0780
18761TIP3    H277699   5.323   3.301   1.182  1.7347 -0.5549  0.6270
18762TIP3   OH277700   2.708   5.150  15.431 -0.4366 -0.1442 -0.2588
18762TIP3    H177701   2.686   5.101  15.510 -0.1454  0.2642  0.0781
18762TIP3    H277702   2.655   5.109  15.362 -0.4001 -0.7487  0.0691
18763TIP3   OH277703   0.890   0.813   6.166 -0.7088  0.6071 -0.6497
18763TIP3    H177704   0.919   0.754   6.097  0.8215  0.0005  0.4433
18763TIP3    H277705   0.885   0.899   6.124 -0.7096  0.1094 -1.7081
18764TIP3   OH277706   4.248   2.298  14.439 -0.4587 -0.0005 -0.5517
18764TIP3    H177707   4.325   2.325  14.489 -1.1814  1.5711 -0.1980
18764TIP3    H277708   4.268   2.210  14.408  2.0635  0.8745 -1.6748
18765TIP3   OH277709   3.364   5.127   2.227 -0.5183 -0.9251 -0.2480
18765TIP3    H177710   3.376   5.036   2.253  1.3620 -0.0144  2.4141
18765TIP3    H277711   3.316   5.121   2.144 -0.8179 -4.2861  0.0128
18766TIP3   OH277712   3.341   5.540   4.529  0.2416 -0.2118 -0.1562
18766TIP3    H177713   3.293   5.468   4.569  0.6420 -2.0287 -2.6417
18766TIP3    H277714   3.277   5.584   4.473  0.2824  0.6785  0.4717
18767TIP3   OH277715   1.916   5.886   2.525  0.2818  0.0321 -0.3155
18767TIP3    H177716   1.924   5.981   2.532 -0.1138  0.1142 -0.9675
18767TIP3    H277717   2.003   5.853   2.550 -0.0258  0.4638  1.4696
18768TIP3   OH277718   6.536   1.304  13.532  0.4419 -0.5486 -0.0953
18768TIP3    H177719   6.628   1.278  13.527  0.1448 -1.5313 -1.0183
18768TIP3    H277720   6.504   1.294  13.442 -0.7960 -1.1761  0.3887
18769TIP3   OH277721   6.742   3.433  12.800  0.2181 -0.1822  0.3165
18769TIP3    H177722   6.793   3.426  12.719 -0.1258  0.8409 -0.0121
18769TIP3    H277723   6.676   3.364  12.793  0.6928 -0.6189  0.0997
18770TIP3   OH277724   6.082   3.565   5.935 -0.0074  0.0462  0.4309
18770TIP3    H177725   6.076   3.485   5.883 -1.4731  1.1244 -1.1541
18770TIP3    H277726   6.008   3.560   5.995  1.6855 -1.2013  2.5716
18771TIP3   OH277727   2.119   0.000  12.799 -0.1663 -0.0765  0.0814
18771TIP3    H177728   2.183  -0.030  12.863 -0.1583 -0.5248 -0.1412
18771TIP3    H277729   2.068  -0.078  12.776 -0.3233  0.1299 -0.2851
18772TIP3   OH277730   5.183   1.386   2.049  0.0838  0.1727  0.2061
18772TIP3    H177731   5.107   1.390   2.107  0.9309  0.0253  1.3664
18772TIP3    H277732   5.151   1.344   1.969 -0.5713 -1.9177  1.4897
18773TIP3   OH277733   5.670   1.953  15.591 -0.3736  0.1008  0.2018
18773TIP3    H177734   5.753   2.000  15.587  0.1702 -0.8302 -3.2591
18773TIP3    H277735   5.695   1.862  15.610 -0.2718 -0.5007 -2.3477
18774TIP3   OH277736   2.925   5.271  13.033 -0.2566 -0.0523  0.1555
18774TIP3    H177737   2.976   5.267  13.115  0.4412 -0.0209 -0.2638
18774TIP3    H277738   2.935   5.362  13.004 -0.2782 -0.1343 -0.1043
18775TIP3   OH277739   1.716   3.962  12.008 -0.0241  0.4210 -0.6069
18775TIP3    H177740   1.724   3.878  12.052  0.3851  0.0049 -1.4508
18775TIP3    H277741   1.803   3.978  11.971 -0.0557  1.2882 -0.3274
18776TIP3   OH277742   1.530   0.758   2.856  0.5787  0.7277  0.7233
18776TIP3    H177743   1.575   0.795   2.780  0.5882  2.2068  1.4115
18776TIP3    H277744   1.504   0.670   2.829  3.2285  0.0901  0.0491
18777TIP3   OH277745   3.524   5.063  15.023 -0.1889 -0.0644  0.1560
18777TIP3    H177746   3.457   4.995  15.013 -0.3255 -0.0252  0.7653
18777TIP3    H277747   3.494   5.115  15.096  0.4654  0.0139  0.3760
18778TIP3   OH277748   6.684   6.111  11.145 -0.0278 -0.4599  0.0188
18778TIP3    H177749   6.654   6.155  11.065 -1.6310 -2.1827 -0.3987
18778TIP3    H277750   6.773   6.083  11.125 -1.0161 -2.5126 -1.9817
18779TIP3   OH277751   4.922   2.244  16.432 -0.3130 -0.4291  0.0392
18779TIP3    H177752   4.854   2.303  16.462 -0.5424 -0.1978 -0.9051
18779TIP3    H277753   4.882   2.157  16.437  0.2492 -0.6266  2.0769
18780TIP3   OH277754   1.359   6.483   0.536  0.0574 -0.0211  0.3351
18780TIP3    H177755   1.391   6.552   0.594 -2.7779  1.9029 -0.1591
18780TIP3    H277756   1.325   6.416   0.595 -0.5051  0.7493  0.9146
18781TIP3   OH277757   3.676   6.337   1.066 -0.3774  0.7394  0.0265
18781TIP3    H177758   3.697   6.264   1.008  0.5996  0.4242  0.7593
18781TIP3    H277759   3.583   6.325   1.086  0.0050 -0.9635  1.0127
18782TIP3   OH277760   5.907   1.348  16.844  0.0405 -0.0590 -0.4884
18782TIP3    H177761   5.948   1.265  16.819  0.4636  0.2404 -0.7796
18782TIP3    H277762   5.931   1.360  16.936  0.2891 -0.0738 -0.5508
18783TIP3   OH277763   5.613   3.048  15.833 -0.2505  0.1956 -0.0001
18783TIP3    H177764   5.671   2.997  15.776 -0.1848 -0.9802  1.0688
18783TIP3    H277765   5.604   2.995  15.912 -1.7432  0.9576  0.3916
18784TIP3   OH277766   4.989   6.475   3.546 -0.0357 -0.0631 -0.0388
18784TIP3    H177767   5.063   6.507   3.496  0.3641 -3.0390 -1.5461
18784TIP3    H277768   4.914   6.525   3.513  0.7299  0.3557 -1.1800
18785TIP3   OH277769   3.746   0.357   5.805  0.1694 -0.0928 -0.0587
18785TIP3    H177770   3.783   0.269   5.809  1.5066  0.4752  1.1244
18785TIP3    H277771   3.782   0.394   5.724 -0.1704 -0.5393 -0.4158
18786TIP3   OH277772   1.341   2.607   1.973  0.3089 -0.3817 -0.4271
18786TIP3    H177773   1.434   2.629   1.970  0.8595 -2.5017 -0.6069
18786TIP3    H277774   1.296   2.690   1.960  2.1404  0.9811  1.3829
18787TIP3   OH277775   3.363   5.035   3.769  0.6213  0.8402  0.1593
18787TIP3    H177776   3.295   5.095   3.737 -1.2747 -0.5772  1.3261
18787TIP3    H277777   3.369   5.053   3.862 -0.4951 -1.1868  0.6754
18788TIP3   OH277778   5.290   2.417   0.615  0.3676  0.2108 -0.3841
18788TIP3    H177779   5.369   2.441   0.664  0.4553 -1.2511  0.2609
18788TIP3    H277780   5.320   2.404   0.525  0.5825  1.0244 -0.4366
18789TIP3   OH277781   5.965   2.395   5.577 -0.5600 -0.1765  0.3422
18789TIP3    H177782   5.921   2.422   5.496 -1.6489 -0.4515  0.8272
18789TIP3    H277783   6.025   2.467   5.597 -2.2541  1.1853  0.7579
18790TIP3   OH277784   5.710   1.015   1.680 -0.5257  0.1218 -0.3520
18790TIP3    H177785   5.699   0.920   1.692 -0.7115 -0.2226 -2.7520
18790TIP3    H277786   5.634   1.041   1.627  0.5233  1.2423 -1.3625
18791TIP3   OH277787   4.660   1.278  13.949 -0.1747  0.8366  0.0022
18791TIP3    H177788   4.704   1.270  13.865 -0.3156 -0.0919  0.0105
18791TIP3    H277789   4.725   1.251  14.014 -0.2122  1.1158  0.1623
18792TIP3   OH277790   2.349   1.914   1.714 -0.2921  0.3746  0.2837
18792TIP3    H177791   2.444   1.910   1.703 -0.2724  0.5014  0.4060
18792TIP3    H277792   2.334   1.988   1.773 -0.3457 -0.6751  1.6529
18793TIP3   OH277793   5.983   0.149  14.438 -0.1086  0.1851 -0.0359
18793TIP3    H177794   5.957   0.066  14.478  0.1691  0.2749  0.3372
18793TIP3    H277795   5.905   0.204  14.443 -0.3675 -0.1284 -0.5018
18794TIP3   OH277796   1.409   2.324  12.598  0.2548 -0.3916 -0.2427
18794TIP3    H177797   1.317   2.345  12.614  0.0013 -2.2020  1.0214
18794TIP3    H277798   1.417   2.325  12.502 -0.6160  1.4330 -0.3374
18795TIP3   OH277799   4.389   1.533   4.033 -0.4439 -0.3116 -0.0070
18795TIP3    H177800   4.446   1.460   4.012 -1.4004 -0.9478 -0.4700
18795TIP3    H277801   4.303   1.494   4.046 -1.2078  0.8184 -1.3282
18796TIP3   OH277802   3.520   1.019  15.932 -0.2308 -0.3406  0.0805
18796TIP3    H177803   3.580   1.024  15.859 -0.1220 -0.5985  0.1512
18796TIP3    H277804   3.575   1.032  16.010 -0.4418  0.5870  0.0879
18797TIP3   OH277805   0.633   0.021  17.138  0.2488  0.0911  0.2774
18797TIP3    H177806   0.561  -0.019  17.088 -0.4217  0.7846  0.6690
18797TIP3    H277807   0.702   0.033  17.073 -0.4872  0.6649 -0.4253
18798TIP3   OH277808   2.499   3.626  15.814  0.3770  0.7871 -0.0988
18798TIP3    H177809   2.536   3.623  15.902 -0.2948  0.3408  0.1726
18798TIP3    H277810   2.572   3.654  15.759  0.8997  0.7178  0.5420
18799TIP3   OH277811   4.936   3.474  13.804 -0.5361  0.1994 -0.5318
18799TIP3    H177812   4.849   3.435  13.791 -0.2202 -0.9367  0.5531
18799TIP3    H277813   4.922   3.540  13.872 -0.7856  0.9182 -1.2758
18800TIP3   OH277814   2.081   3.588   4.042  0.7792  0.2812 -0.4033
18800TIP3    H177815   2.091   3.509   3.989  0.6388  0.1353 -0.2145
18800TIP3    H277816   1.987   3.592   4.060  0.9054  0.0044  0.3310
18801TIP3   OH277817   5.538   2.606   4.662  0.2084 -0.4724  0.1402
18801TIP3    H177818   5.592   2.644   4.732  1.2493  1.6760 -1.6951
18801TIP3    H277819   5.484   2.541   4.707  0.7203  0.8693  2.9673
18802TIP3   OH277820   5.987   0.756  13.293  0.0185  0.6398  0.1987
18802TIP3    H177821   5.909   0.705  13.313  0.5824 -1.1581 -1.7341
18802TIP3    H277822   6.054   0.723  13.353  0.4558 -1.2491 -1.2242
18803TIP3   OH277823   2.204   2.286   0.399 -0.3551 -0.5868 -0.3474
18803TIP3    H177824   2.182   2.256   0.487 -1.8266 -1.5731 -0.9958
18803TIP3    H277825   2.164   2.373   0.393  1.0695  0.1498  0.4395
18804TIP3   OH277826   4.734   2.648  16.209  0.6368 -0.0430  0.3504
18804TIP3    H177827   4.752   2.721  16.268 -0.7844  0.0666  0.6923
18804TIP3    H277828   4.647   2.618  16.234  0.2776 -0.4345 -1.2526
18805TIP3   OH277829   1.206   2.212  13.016 -0.4459 -0.4287 -0.0606
18805TIP3    H177830   1.254   2.177  12.942  0.7424 -1.4293  1.1380
18805TIP3    H277831   1.188   2.136  13.072  1.5071  0.6681  2.2426
18806TIP3   OH277832   6.577   4.737  13.843  0.3736 -0.0693  0.1005
18806TIP3    H177833   6.593   4.669  13.909 -0.4118 -0.3972 -0.0314
18806TIP3    H277834   6.487   4.764  13.858 -0.2125 -0.9376 -1.5210
18807TIP3   OH277835   1.068   4.897  14.945 -0.2804  0.5742 -0.0913
18807TIP3    H177836   1.094   4.989  14.937  0.9883  0.4248  1.6640
18807TIP3    H277837   1.081   4.876  15.038  0.0106 -1.5259 -0.5447
18808TIP3   OH277838   1.267   4.779   5.697  0.4343  0.0845 -0.4493
18808TIP3    H177839   1.206   4.737   5.636  0.3713  0.1342 -0.4213
18808TIP3    H277840   1.350   4.782   5.650  0.3738  0.1670 -0.5511
18809TIP3   OH277841   0.200   3.594  12.537 -0.6748 -0.2856  0.5921
18809TIP3    H177842   0.173   3.503  12.541  2.4499 -1.3283  0.8068
18809TIP3    H277843   0.202   3.615  12.443  0.0493 -0.9638  0.4467
18810TIP3   OH277844   6.600   2.994  11.324  0.1242 -0.1371 -0.1750
18810TIP3    H177845   6.562   2.964  11.241 -0.5722  1.5203 -0.4822
18810TIP3    H277846   6.684   3.033  11.299  0.9228 -1.5219  0.2007
18811TIP3   OH277847   1.880   2.673   2.004  0.1115  0.0083  0.7289
18811TIP3    H177848   1.965   2.692   1.964  0.6434  0.0359  1.8439
18811TIP3    H277849   1.878   2.726   2.084 -0.3149 -1.1132  1.4849
18812TIP3   OH277850   5.095   1.281   5.179 -0.1962 -0.2382  0.5776
18812TIP3    H177851   5.091   1.328   5.262  0.2995  1.1948 -0.1756
18812TIP3    H277852   5.189   1.273   5.161 -0.2960 -0.8147  0.2988
18813TIP3   OH277853   0.697   2.346  12.621 -0.0953  0.0215 -0.0419
18813TIP3    H177854   0.733   2.432  12.643 -1.5944  0.2390  1.7676
18813TIP3    H277855   0.643   2.363  12.544  2.0384  0.0299 -1.6531
18814TIP3   OH277856   3.322   6.168   1.220 -0.1664  0.5375 -0.2008
18814TIP3    H177857   3.388   6.108   1.255 -1.0885 -1.7747 -2.0925
18814TIP3    H277858   3.242   6.147   1.269 -0.5787 -0.1050 -1.1069
18815TIP3   OH277859   4.161   0.846  16.692  0.5175 -0.2905  0.0162
18815TIP3    H177860   4.101   0.910  16.729  0.5323 -0.8953  1.1151
18815TIP3    H277861   4.223   0.827  16.762  1.0630 -0.8332 -0.5923
18816TIP3   OH277862   6.552   5.315  10.358 -0.1911  0.0714  0.0698
18816TIP3    H177863   6.596   5.248  10.411 -0.0075  0.9550  1.0641
18816TIP3    H277864   6.476   5.341  10.411  0.5158  1.6419  0.3533
18817TIP3   OH277865   3.238   5.934  14.479  0.2038 -0.2544  0.6247
18817TIP3    H177866   3.225   5.994  14.406 -0.1691  1.5571  2.1002
18817TIP3    H277867   3.258   5.850  14.438  1.1707  0.9447 -1.5453
18818TIP3   OH277868   5.940   0.011   6.348  0.3364  0.2040  0.7142
18818TIP3    H177869   5.979   0.098   6.359 -0.0985  0.3019  1.5799
18818TIP3    H277870   5.885   0.018   6.270  0.6412  0.5754  0.5288
18819TIP3   OH277871   4.315   6.152  15.657  0.4890 -0.9449  0.1643
18819TIP3    H177872   4.296   6.111  15.741 -0.0705 -1.0902 -0.0285
18819TIP3    H277873   4.367   6.087  15.610  1.2407 -0.6606  0.5857
18820TIP3   OH277874   6.111   2.739  12.606 -0.3640 -0.0895  0.0743
18820TIP3    H177875   6.201   2.711  12.624 -0.5910 -1.2301 -0.4677
18820TIP3    H277876   6.057   2.661  12.625 -1.2532  0.6003  0.4662
18821TIP3   OH277877   3.974   4.453   0.640  0.4163 -0.2454  0.6386
18821TIP3    H177878   4.063   4.464   0.672  0.2752  1.5619  0.5245
18821TIP3    H277879   3.918   4.486   0.711 -0.3148 -2.8901  1.4205
18822TIP3   OH277880   0.649   2.480  13.299 -0.4286 -0.7150 -0.1306
18822TIP3    H177881   0.680   2.431  13.222 -1.0752 -1.4826  0.0908
18822TIP3    H277882   0.645   2.415  13.369 -1.0667 -0.2953  0.2336
18823TIP3   OH277883   2.834   3.339   5.688 -0.4233 -0.5870  0.3903
18823TIP3    H177884   2.790   3.254   5.695 -2.1222  0.1485 -0.6648
18823TIP3    H277885   2.799   3.390   5.761 -0.4246 -0.3871  0.2515
18824TIP3   OH277886   0.472   1.726  17.054  0.1947 -0.3262  0.3227
18824TIP3    H177887   0.550   1.695  17.101  0.2711 -0.7290 -0.0665
18824TIP3    H277888   0.444   1.803  17.103  2.1105  1.1767 -0.7971
18825TIP3   OH277889   4.210   5.502   0.250 -0.0721 -0.4734 -0.0610
18825TIP3    H177890   4.240   5.503   0.159  0.7526  0.6710  0.1974
18825TIP3    H277891   4.121   5.540   0.246 -0.0222 -0.3884 -0.3888
18826TIP3   OH277892   6.534   5.670   4.736  0.1755  0.3996 -0.1198
18826TIP3    H177893   6.596   5.714   4.679  0.8942  1.3643  1.3474
18826TIP3    H277894   6.457   5.727   4.737 -0.1531 -0.0256 -0.7428
18827TIP3   OH277895   4.198   4.254   4.449 -0.5404  0.1124  0.3607
18827TIP3    H177896   4.260   4.253   4.376 -0.2801  1.2379  0.5359
18827TIP3    H277897   4.118   4.215   4.413 -0.2109  0.0552 -0.3321
18828TIP3   OH277898   5.812   1.424  12.849  0.5940 -0.2742  0.3445
18828TIP3    H177899   5.887   1.392  12.800  1.0444 -1.8102  1.9373
18828TIP3    H277900   5.756   1.348  12.860 -1.0763  0.7780 -0.5261
18829TIP3   OH277901   5.343   1.379   0.586  0.4682  0.4582  0.6233
18829TIP3    H177902   5.345   1.301   0.642  0.9331  0.0846  0.0934
18829TIP3    H277903   5.431   1.417   0.594  0.3122  0.8148  0.7059
18830TIP3   OH277904   0.969   2.672   1.696 -0.5778 -0.0170 -0.0339
18830TIP3    H177905   0.936   2.747   1.746 -1.4026 -0.7712  0.5901
18830TIP3    H277906   1.057   2.697   1.670 -0.6723  0.9820  0.5706
18831TIP3   OH277907   0.072   6.029  14.852 -0.4594 -0.4002 -0.5080
18831TIP3    H177908   0.154   5.984  14.870  0.4115  0.8238 -1.2993
18831TIP3    H277909   0.004   5.967  14.880  0.7184 -1.1733  0.7595
18832TIP3   OH277910   3.121   5.804   4.610  0.0689  0.9960 -0.1631
18832TIP3    H177911   3.143   5.880   4.555 -2.2390  1.4096 -0.5943
18832TIP3    H277912   3.079   5.841   4.687 -0.6352  0.1892 -0.1497
18833TIP3   OH277913   0.284   3.218  16.997  0.0263 -0.1462 -0.1376
18833TIP3    H177914   0.281   3.156  17.070 -0.7347 -0.8457 -0.7495
18833TIP3    H277915   0.330   3.295  17.033 -1.0011 -0.1665  1.3205
18834TIP3   OH277916   0.077   6.058   2.020  0.0929  0.0123  0.0188
18834TIP3    H177917   0.084   6.147   2.056  0.5325  0.0480 -0.1472
18834TIP3    H277918   0.166   6.036   1.994 -0.2003 -0.0193 -1.0325
18835TIP3   OH277919   5.206   0.092   5.113 -0.1645  0.4009 -0.0732
18835TIP3    H177920   5.270   0.023   5.130 -0.0627  0.6375  0.5087
18835TIP3    H277921   5.129   0.045   5.080 -0.1507 -0.0079  0.4684
18836TIP3   OH277922   1.711   1.095   2.398 -0.2673  0.3969  0.0492
18836TIP3    H177923   1.758   1.164   2.445 -2.2154  1.2761  0.8138
18836TIP3    H277924   1.622   1.099   2.431 -1.3846  0.0013 -2.6121
18837TIP3   OH277925   4.863   5.150   0.393 -0.0150 -0.3304 -0.5740
18837TIP3    H177926   4.838   5.241   0.379 -0.1111 -0.4717 -1.3115
18837TIP3    H277927   4.959   5.152   0.401 -0.0134 -0.1740 -0.6420
18838TIP3   OH277928   1.243   4.747   3.927  0.4544  0.6106 -0.1569
18838TIP3    H177929   1.311   4.686   3.900 -0.1797  0.2724 -1.0034
18838TIP3    H277930   1.255   4.755   4.022  1.8481  0.7817 -0.3300
18839TIP3   OH277931   6.488   1.796   3.311  0.1994  0.2462 -0.0987
18839TIP3    H177932   6.397   1.786   3.340  0.3216 -0.1947  0.1461
18839TIP3    H277933   6.488   1.761   3.222 -0.4033  2.5697 -1.0787
18840TIP3   OH277934   4.527   0.513   0.944 -0.7170 -0.3573  0.0611
18840TIP3    H177935   4.473   0.566   0.886  0.2150  2.3653  1.5236
18840TIP3    H277936   4.477   0.509   1.026  1.6807  3.6498  2.0389
18841TIP3   OH277937   3.009   6.099  15.365  0.0829  0.1552 -0.0893
18841TIP3    H177938   3.009   6.191  15.390 -0.9285 -0.0790  0.8447
18841TIP3    H277939   3.102   6.075  15.359  0.3485  1.0116  0.5129
18842TIP3   OH277940   0.939   4.983  13.172  0.3537  0.4560 -0.4346
18842TIP3    H177941   0.951   5.078  13.178 -0.1221  0.4869  0.0777
18842TIP3    H277942   1.029   4.949  13.172  0.5284  0.7782  1.7949
18843TIP3   OH277943   1.767   6.597   2.846  0.7424  0.2565 -0.5074
18843TIP3    H177944   1.820   6.640   2.778  1.8956 -0.5550 -0.1582
18843TIP3    H277945   1.693   6.559   2.799  1.6582 -0.5009 -1.3571
18844TIP3   OH277946   0.000   3.505   2.943  0.5726  0.4242  0.8419
18844TIP3    H177947  -0.020   3.434   2.882  0.1865  0.5926  0.7695
18844TIP3    H277948   0.055   3.565   2.893  1.5590 -0.1935  1.1358
18845TIP3   OH277949   0.391   2.789  15.969 -0.6590 -0.2121 -0.3298
18845TIP3    H177950   0.316   2.799  16.027 -0.7668  0.2548 -0.5440
18845TIP3    H277951   0.369   2.841  15.891 -0.0348  0.0964 -0.3104
18846TIP3   OH277952   5.277   5.143   1.971  0.4258 -0.0195  0.0109
18846TIP3    H177953   5.274   5.083   1.896 -1.1309  1.0433 -0.8673
18846TIP3    H277954   5.337   5.212   1.943 -1.1590  1.0667 -0.8944
18847TIP3   OH277955   4.149   3.094   4.481  0.6731  0.0849 -0.2934
18847TIP3    H177956   4.214   3.055   4.539  1.5841  1.0846 -0.6028
18847TIP3    H277957   4.150   3.187   4.503 -0.5368  0.1494 -0.4338
18848TIP3   OH277958   4.150   2.764  12.935  0.1832 -0.1204  0.4074
18848TIP3    H177959   4.201   2.695  12.977  1.3480  0.2483 -0.3323
18848TIP3    H277960   4.073   2.720  12.900  0.5483 -0.9079  0.5795
18849TIP3   OH277961   2.442   1.600   2.328 -0.4629  0.5609 -0.1456
18849TIP3    H177962   2.415   1.513   2.356 -0.8832  0.9679  0.7499
18849TIP3    H277963   2.537   1.599   2.334 -0.4694  0.1755 -0.1033
18850TIP3   OH277964   5.654   2.529  12.685  0.1646 -0.1736  0.3339
18850TIP3    H177965   5.701   2.599  12.730  0.9999 -0.5899  0.1227
18850TIP3    H277966   5.631   2.567  12.600  0.5111 -0.1215  0.2639
18851TIP3   OH277967   1.010   3.488   2.977 -0.5689 -0.1539  0.0582
18851TIP3    H177968   0.934   3.498   2.920  0.1092  1.1214 -0.6625
18851TIP3    H277969   1.012   3.567   3.030 -0.7547 -0.9923  1.3517
18852TIP3   OH277970   5.100   2.145   1.855  0.4334 -0.3567 -0.5258
18852TIP3    H177971   5.057   2.083   1.796  1.8173 -0.9735 -0.9438
18852TIP3    H277972   5.107   2.098   1.938 -1.2268  0.3921  0.0656
18853TIP3   OH277973   1.568   3.501  16.543 -0.7008  0.5337 -0.0930
18853TIP3    H177974   1.606   3.434  16.486  1.3151 -0.3624  2.1718
18853TIP3    H277975   1.607   3.583  16.513 -0.3090  0.1967 -0.5170
18854TIP3   OH277976   0.813   5.079  11.488  0.4783  0.4277  0.3789
18854TIP3    H177977   0.830   4.990  11.458  0.2966  0.7619 -0.7559
18854TIP3    H277978   0.863   5.087  11.569  1.1417 -0.4428  0.0647
18855TIP3   OH277979   6.667   0.306  11.435  0.1430  0.0579 -0.0263
18855TIP3    H177980   6.672   0.259  11.517  2.6935 -0.4578 -0.4111
18855TIP3    H277981   6.682   0.398  11.458 -0.7104  0.1509  0.2205
18856TIP3   OH277982   3.762   0.824   5.638 -0.6866 -0.0291 -0.1665
18856TIP3    H177983   3.752   0.803   5.731 -1.3911  2.1483  0.3115
18856TIP3    H277984   3.828   0.893   5.636 -1.3988  0.6535 -1.1648
18857TIP3   OH277985   3.275   5.173  14.160  0.3514  0.3296 -0.2978
18857TIP3    H177986   3.260   5.167  14.254  1.3177 -0.0145 -0.1503
18857TIP3    H277987   3.236   5.256  14.134 -0.2286  0.2618  0.3465
18858TIP3   OH277988   1.932   0.394   3.373 -0.2623 -0.0079  0.1237
18858TIP3    H177989   1.973   0.316   3.336  0.4362 -0.1659  1.1946
18858TIP3    H277990   1.853   0.362   3.416 -1.6166  0.3003 -1.9647
18859TIP3   OH277991   2.736   6.015  15.363 -0.2600 -0.1142 -0.9242
18859TIP3    H177992   2.748   5.966  15.444  1.3351 -2.1929 -2.3065
18859TIP3    H277993   2.825   6.033  15.332 -0.6920 -1.9869 -3.6368
18860TIP3   OH277994   4.018   1.037   4.420  0.4374  0.1514  0.2777
18860TIP3    H177995   4.022   1.129   4.395 -2.4778  0.6899  1.4763
18860TIP3    H277996   4.099   0.999   4.384  0.1132  2.3884 -3.2430
18861TIP3   OH277997   6.367   6.169  11.528  0.5591 -0.0612 -0.1047
18861TIP3    H177998   6.373   6.074  11.529  0.5189 -0.1011 -1.5866
18861TIP3    H277999   6.453   6.199  11.499  0.9015  0.4207  1.3198
18862TIP3   OH278000   0.160   0.603  13.414  0.6274 -0.2774 -0.0983
18862TIP3    H178001   0.092   0.535  13.416 -2.4955  2.5825  0.1459
18862TIP3    H278002   0.197   0.602  13.502 -0.2226 -0.8773  0.2731
18863TIP3   OH278003   3.832   4.148  16.422 -0.0693 -0.1405 -0.9552
18863TIP3    H178004   3.736   4.147  16.421 -0.1382 -0.1531  1.3690
18863TIP3    H278005   3.855   4.237  16.395 -0.7837  0.2515 -0.3076
18864TIP3   OH278006   4.724   5.406  11.551  0.7854 -0.0362 -0.0643
18864TIP3    H178007   4.652   5.405  11.488  0.6509 -0.0899  0.0891
18864TIP3    H278008   4.803   5.392  11.498  0.5687 -1.3763 -0.0828
18865TIP3   OH278009   4.099   5.907   3.031 -0.4845  0.3656 -0.7197
18865TIP3    H178010   4.009   5.932   3.010 -0.3998  1.8632  0.4935
18865TIP3    H278011   4.089   5.845   3.104 -0.5490  0.5238 -0.5913
18866TIP3   OH278012   4.404   3.275  10.835  0.2896 -0.0364 -0.4635
18866TIP3    H178013   4.332   3.330  10.866  0.2448 -0.1546 -0.3520
18866TIP3    H278014   4.403   3.199  10.894  1.2285  0.4977  0.2643
18867TIP3   OH278015   3.421   1.395  15.731 -0.7652  0.6513  0.2021
18867TIP3    H178016   3.380   1.315  15.766 -0.0880  0.6335  0.9733
18867TIP3    H278017   3.424   1.455  15.805 -1.6597  1.5715 -0.4787
18868TIP3   OH278018   5.167   6.103   3.480  0.2197  0.6356  0.1064
18868TIP3    H178019   5.228   6.030   3.488 -1.2658 -0.7191 -0.3227
18868TIP3    H278020   5.158   6.117   3.386 -0.9545  0.0705  0.1215
18869TIP3   OH278021   3.203   6.265  15.217  0.0417 -0.2107  0.4436
18869TIP3    H178022   3.258   6.192  15.187 -0.8902 -0.0542 -1.8051
18869TIP3    H278023   3.116   6.244  15.184 -0.6443  1.0055  1.4252
18870TIP3   OH278024   6.166   4.473  11.263 -0.1666 -0.8107  0.0424
18870TIP3    H178025   6.106   4.546  11.277  1.2603  0.2492  0.9486
18870TIP3    H278026   6.172   4.464  11.168  0.1701  0.7428 -0.1040
18871TIP3   OH278027   0.197   0.450   5.928  0.3566  0.9638  0.0990
18871TIP3    H178028   0.116   0.453   5.980 -0.6005 -1.3634 -1.1076
18871TIP3    H278029   0.266   0.435   5.992 -0.6668 -0.8380  0.8688
18872TIP3   OH278030   0.399   3.567   5.747  0.6824 -0.1119  0.1288
18872TIP3    H178031   0.329   3.509   5.777  0.1391  0.7487  0.5683
18872TIP3    H278032   0.457   3.575   5.823 -0.7738  2.1912  1.0781
18873TIP3   OH278033   2.527   6.181  12.260  0.0506  0.9203 -0.0375
18873TIP3    H178034   2.436   6.178  12.230  0.0840  2.0432 -0.3179
18873TIP3    H278035   2.536   6.106  12.319 -0.8115  0.3065 -0.6653
18874TIP3   OH278036   2.958   2.297   2.485  0.3649 -0.0894 -0.1333
18874TIP3    H178037   2.936   2.267   2.397  0.8474 -1.9580  0.3462
18874TIP3    H278038   3.044   2.259   2.503  0.2615  0.2393  1.1730
18875TIP3   OH278039   3.910   3.516  15.785  0.0440  0.6902  0.3191
18875TIP3    H178040   3.852   3.587  15.759  0.2229  0.6312 -0.2531
18875TIP3    H278041   3.996   3.556  15.791  0.3597  0.2826 -1.1894
18876TIP3   OH278042   5.961   4.971   2.494  0.1029  0.4663  0.0007
18876TIP3    H178043   5.942   4.953   2.586  2.4370  0.2248  0.5124
18876TIP3    H278044   5.964   5.066   2.488 -1.5073  0.5277 -0.2000
18877TIP3   OH278045   0.538   5.098  13.342 -0.3269 -0.4887 -0.1376
18877TIP3    H178046   0.622   5.055  13.350 -1.2408 -2.2574  0.3820
18877TIP3    H278047   0.559   5.186  13.310  1.6989 -0.8352  0.1254
18878TIP3   OH278048   5.730   5.971   2.782  0.6476  0.0791  0.3141
18878TIP3    H178049   5.689   6.057   2.768  0.9441  0.2322  0.3773
18878TIP3    H278050   5.799   5.988   2.846  0.6719 -0.2184  0.3660
18879TIP3   OH278051   0.628   1.154  12.718  0.2894 -0.6381 -0.3073
18879TIP3    H178052   0.664   1.114  12.797 -1.1067  0.3708  0.8838
18879TIP3    H278053   0.685   1.230  12.701 -0.2402 -0.0450  0.5531
18880TIP3   OH278054   6.278   3.741   0.450 -0.1114 -0.5131  0.0169
18880TIP3    H178055   6.337   3.811   0.477 -0.9658 -0.4088  1.7530
18880TIP3    H278056   6.192   3.782   0.449 -0.4738 -1.2700 -0.0352
18881TIP3   OH278057   2.289   4.713  14.006 -0.1371 -0.0407  0.6408
18881TIP3    H178058   2.216   4.668  14.049 -0.1474  1.2749  2.0722
18881TIP3    H278059   2.248   4.788  13.962  0.2680  0.3446  0.9178
18882TIP3   OH278060   3.405   3.922  12.862  0.0876  0.3135 -0.0957
18882TIP3    H178061   3.401   3.903  12.768 -1.8901 -0.5997  0.1207
18882TIP3    H278062   3.432   3.839  12.901 -2.4673 -0.3846  0.3634
18883TIP3   OH278063   1.682   6.076  11.343  0.3925  0.2233 -0.3550
18883TIP3    H178064   1.614   6.015  11.372 -0.6317  1.2239 -0.5834
18883TIP3    H278065   1.636   6.159  11.331  1.5670  0.8020 -1.0028
18884TIP3   OH278066   5.351   2.885  13.980 -0.0240 -0.0419  0.3672
18884TIP3    H178067   5.276   2.826  13.992  1.1012 -1.4971  0.5392
18884TIP3    H278068   5.426   2.832  14.006  0.9061  1.9928  2.0287
18885TIP3   OH278069   5.323   1.294  11.886  0.1236  0.5213 -0.5184
18885TIP3    H178070   5.316   1.339  11.802  0.1445 -0.7121 -1.2092
18885TIP3    H278071   5.284   1.354  11.949  0.1910  1.5107 -1.3923
18886TIP3   OH278072   4.633   1.001   6.506  0.1486  0.7340  0.0551
18886TIP3    H178073   4.711   1.035   6.549  0.8769 -0.2619 -0.4330
18886TIP3    H278074   4.664   0.924   6.458 -1.1356  0.3212 -0.1481
18887TIP3   OH278075   0.879   5.537   1.187 -0.1799 -0.3673 -0.5870
18887TIP3    H178076   0.875   5.475   1.114  0.3211 -3.1585  1.5906
18887TIP3    H278077   0.787   5.549   1.213 -0.6931  2.7856 -3.1365
18888TIP3   OH278078   0.289   5.673  16.181 -0.5482  0.1068 -0.2155
18888TIP3    H178079   0.265   5.673  16.089 -0.3605  0.2997 -0.2662
18888TIP3    H278080   0.382   5.648  16.181 -0.4176  0.5848 -0.1157
18889TIP3   OH278081   2.607   4.063   5.159  0.4902  0.3030 -0.4922
18889TIP3    H178082   2.528   4.041   5.210 -0.1373  1.4356 -0.9387
18889TIP3    H278083   2.591   4.152   5.129  1.4390  0.1164 -1.5816
18890TIP3   OH278084   1.621   2.672   0.346  0.0578  0.9818 -0.8627
18890TIP3    H178085   1.677   2.596   0.363  1.6381  1.9330 -1.5324
18890TIP3    H278086   1.633   2.691   0.253  1.2556  3.1470 -0.3645
18891TIP3   OH278087   2.444   4.176   1.651 -0.0902  0.0258  0.4458
18891TIP3    H178088   2.350   4.193   1.646  0.2867  2.1212 -0.8245
18891TIP3    H278089   2.471   4.214   1.735 -0.0809  1.4182 -0.1515
18892TIP3   OH278090   3.558   2.181  12.288 -0.1421  0.4028  0.4818
18892TIP3    H178091   3.599   2.146  12.367 -0.6799 -1.0748  0.1346
18892TIP3    H278092   3.631   2.203  12.231  0.2411 -1.3626  0.2268
18893TIP3   OH278093   4.882   6.699  14.777 -0.0260  0.4774 -0.3106
18893TIP3    H178094   4.943   6.760  14.819  0.2801  0.0151 -0.0836
18893TIP3    H278095   4.913   6.694  14.686 -0.3478  1.0350 -0.4582
18894TIP3   OH278096   2.176   5.997   3.883 -0.2149  0.6081 -0.0949
18894TIP3    H178097   2.148   5.973   3.795 -1.4103 -0.0783  0.4607
18894TIP3    H278098   2.108   5.964   3.940  0.8326  0.5375  1.1542
18895TIP3   OH278099   5.918   0.468  15.538 -0.2696 -0.1030 -0.0267
18895TIP3    H178100   5.998   0.491  15.585 -0.8289 -0.5796  1.2120
18895TIP3    H278101   5.854   0.534  15.564 -0.3732  0.1026 -0.7728
18896TIP3   OH278102   5.081   3.479  12.440  0.1863  0.4475 -0.2176
18896TIP3    H178103   5.095   3.412  12.374 -0.0337 -1.1334  1.2602
18896TIP3    H278104   5.160   3.477  12.494  0.0215  1.1313  0.0684
18897TIP3   OH278105   5.536   2.029  13.269 -0.2550  0.2764  0.1580
18897TIP3    H178106   5.570   2.117  13.286 -0.7284  0.3261  0.8799
18897TIP3    H278107   5.518   2.028  13.175 -0.5897  1.0751  0.2050
18898TIP3   OH278108   6.328   4.203   0.384  0.4954 -0.0756  0.3972
18898TIP3    H178109   6.260   4.270   0.391  2.9378  2.6218  0.2426
18898TIP3    H278110   6.307   4.155   0.304 -2.2344 -0.7047  1.3770
18899TIP3   OH278111   1.700   4.069  16.286  0.1475  0.1220 -0.2841
18899TIP3    H178112   1.684   4.133  16.356 -2.1199 -0.7114  0.0223
18899TIP3    H278113   1.773   4.016  16.319  1.1702  1.6417  0.0376
18900TIP3   OH278114   0.079   5.673  11.845 -0.3230  0.4532  0.4958
18900TIP3    H178115   0.043   5.741  11.901 -1.3762  0.3796 -0.0798
18900TIP3    H278116   0.101   5.602  11.905 -1.5200  0.3356  0.8190
18901TIP3   OH278117   4.088   6.685  15.540  0.1511 -0.3559  0.1450
18901TIP3    H178118   4.024   6.617  15.520 -0.2464 -0.2605  1.0467
18901TIP3    H278119   4.036   6.762  15.560  0.6123  0.3339 -1.2226
18902TIP3   OH278120   5.097   5.750   1.406  0.2662  0.4914  0.0957
18902TIP3    H178121   5.089   5.751   1.501  1.0486 -0.1484  0.1743
18902TIP3    H278122   5.118   5.841   1.383 -1.4034  0.9744  0.3773
18903TIP3   OH278123   5.775   5.404   4.192  0.0321  0.3067  0.0632
18903TIP3    H178124   5.738   5.484   4.227  1.0255  1.3663 -1.2196
18903TIP3    H278125   5.854   5.389   4.243 -0.1885  0.1037  0.3460
18904TIP3   OH278126   1.726   4.620  12.912  0.3211 -0.7279 -0.0490
18904TIP3    H178127   1.634   4.625  12.939  0.6747 -0.4001  1.1603
18904TIP3    H278128   1.737   4.530  12.881 -1.1434  0.0401 -3.1463
18905TIP3   OH278129   1.344   1.293  15.668 -0.0848 -0.2344 -0.2824
18905TIP3    H178130   1.342   1.336  15.583 -0.0852 -2.2287 -1.3303
18905TIP3    H278131   1.436   1.272  15.683 -0.3897 -2.5491 -1.2477
18906TIP3   OH278132   4.604   5.907  15.653 -0.4521 -0.2041  0.4567
18906TIP3    H178133   4.650   5.978  15.697 -0.5890  0.9648 -1.1981
18906TIP3    H278134   4.673   5.856  15.612 -0.3205 -1.3252  1.9778
18907TIP3   OH278135   3.177   4.922  15.318  0.2873  0.2243 -0.2744
18907TIP3    H178136   3.144   4.913  15.228  1.1686  0.3266 -0.6208
18907TIP3    H278137   3.129   4.996  15.354  0.3894  0.5903 -0.8838
18908TIP3   OH278138   2.409   3.999   0.915 -0.0729  0.0776 -0.5166
18908TIP3    H178139   2.452   4.070   0.963 -2.1954  1.4498 -0.4771
18908TIP3    H278140   2.373   3.943   0.984 -2.3357  1.5542 -0.3701
18909TIP3   OH278141   1.134   3.778   0.865 -0.2416 -0.2737 -0.4156
18909TIP3    H178142   1.181   3.783   0.948  0.9947 -0.5298 -1.0738
18909TIP3    H278143   1.127   3.868   0.836 -1.8820 -0.0412  0.5886
18910TIP3   OH278144   4.214   2.171   6.990 -0.5385 -0.1045 -0.1622
18910TIP3    H178145   4.171   2.257   6.993  0.6608  0.5473 -0.5311
18910TIP3    H278146   4.174   2.127   6.915  0.1723  0.9255 -1.1864
18911TIP3   OH278147   2.718   6.087   4.260 -1.1216 -0.0676 -0.0826
18911TIP3    H178148   2.781   6.157   4.241 -2.1246  0.3797 -1.9845
18911TIP3    H278149   2.635   6.133   4.273 -1.3949 -0.7733  0.7033
18912TIP3   OH278150   5.119   2.061   4.511  0.6139 -0.9969 -0.4292
18912TIP3    H178151   5.112   1.995   4.581  1.4457 -0.5967  0.0487
18912TIP3    H278152   5.116   2.010   4.430  1.1596 -1.6217 -0.0699
18913TIP3   OH278153   4.241   2.554  12.450  0.1169  0.9230  0.2345
18913TIP3    H178154   4.197   2.629  12.410  1.4131  2.4279  1.4819
18913TIP3    H278155   4.334   2.570  12.437  0.4324 -1.4693 -1.1095
18914TIP3   OH278156   5.965   6.325  13.798 -0.5046 -0.4250  0.1407
18914TIP3    H178157   5.941   6.242  13.841  2.9184 -0.9116  1.4526
18914TIP3    H278158   6.031   6.300  13.733 -0.2305  1.1570 -0.2269
18915TIP3   OH278159   2.816   5.875   3.055  0.2935  0.1683  0.6056
18915TIP3    H178160   2.848   5.848   3.142  0.2888  0.9216  0.8541
18915TIP3    H278161   2.863   5.957   3.037  2.4139 -1.3572 -1.3532
18916TIP3   OH278162   0.016   5.350  14.365  0.1595 -0.2328  0.0767
18916TIP3    H178163  -0.037   5.280  14.403  0.6178 -0.1873  0.8094
18916TIP3    H278164  -0.010   5.353  14.273 -1.3591  0.0295  0.5006
18917TIP3   OH278165   2.046   3.245  17.183 -0.1316  0.3385  0.1759
18917TIP3    H178166   2.008   3.213  17.101 -1.2500  0.7903  0.4964
18917TIP3    H278167   1.984   3.217  17.251  1.1175 -0.6151  0.9557
18918TIP3   OH278168   0.478   5.777   2.928  0.2246 -0.5350  0.3421
18918TIP3    H178169   0.396   5.786   2.977 -0.4687 -0.6041 -0.7746
18918TIP3    H278170   0.527   5.857   2.949 -0.2730 -0.3341  0.7632
18919TIP3   OH278171   3.093   0.954  11.767  0.3561  0.4318 -0.1048
18919TIP3    H178172   3.118   0.913  11.684  0.6804  1.1143 -0.3516
18919TIP3    H278173   3.062   1.041  11.743  2.2592  1.3831  0.6320
18920TIP3   OH278174   3.244   3.110  14.177  0.2516  0.4919 -0.0915
18920TIP3    H178175   3.169   3.111  14.237  1.3043 -0.9574  1.3369
18920TIP3    H278176   3.295   3.033  14.204  1.4643  0.5548 -2.0186
18921TIP3   OH278177   4.526   5.991   4.958  0.6485 -0.2263  0.0758
18921TIP3    H178178   4.502   6.029   5.043  1.5877 -1.9271  1.1462
18921TIP3    H278179   4.517   5.897   4.970  5.4642 -0.9160 -0.1117
18922TIP3   OH278180   0.169   1.667  15.432  0.8145 -0.0401  0.6058
18922TIP3    H178181   0.241   1.614  15.468  0.6347 -1.2596 -0.7251
18922TIP3    H278182   0.206   1.710  15.356 -0.1579 -1.7726 -0.9274
18923TIP3   OH278183   6.643   0.806   3.876  0.0125 -0.5438 -0.2445
18923TIP3    H178184   6.580   0.785   3.807 -1.3267 -1.3615  1.1547
18923TIP3    H278185   6.727   0.813   3.831 -1.0975  1.0429 -2.2702
18924TIP3   OH278186   5.387   6.200   5.905  0.1432 -0.0353 -0.4429
18924TIP3    H178187   5.409   6.293   5.909  0.7757 -0.1239 -1.3626
18924TIP3    H278188   5.402   6.176   5.813 -1.0326 -0.8042 -0.4557
18925TIP3   OH278189   5.304   5.917  15.902  0.3197  0.5770 -0.5249
18925TIP3    H178190   5.355   5.948  15.826 -0.7118  0.9976 -1.0607
18925TIP3    H278191   5.225   5.879  15.864 -0.2377  0.8329  0.3420
18926TIP3   OH278192   4.866   4.090   1.555  0.3019 -0.2801  0.2195
18926TIP3    H178193   4.819   4.137   1.486 -1.0224  2.1360  2.6016
18926TIP3    H278194   4.809   4.018   1.579  0.1661 -0.3409 -0.2646
18927TIP3   OH278195   1.833   1.663   3.658  0.2576 -0.3422  0.5658
18927TIP3    H178196   1.792   1.629   3.737  0.0753  0.8648  1.0204
18927TIP3    H278197   1.917   1.698   3.687  0.6129 -0.7568  0.0506
18928TIP3   OH278198   4.623   5.959   4.704  0.0029 -0.4429  0.2042
18928TIP3    H178199   4.549   5.899   4.695  0.2362 -0.7052  0.0170
18928TIP3    H278200   4.630   5.975   4.798  1.5040 -2.7072  0.5554
18929TIP3   OH278201   0.489   2.775  11.397  0.6138  0.6716  0.2288
18929TIP3    H178202   0.539   2.856  11.397 -0.0770  1.1591 -1.5684
18929TIP3    H278203   0.455   2.768  11.308  1.1455 -1.9021  0.1259
18930TIP3   OH278204   3.541   1.715  16.623  0.1556  0.0633 -0.6009
18930TIP3    H178205   3.532   1.630  16.580 -1.6640  0.0753 -0.3019
18930TIP3    H278206   3.469   1.718  16.686  1.0930  1.2072  0.4742
18931TIP3   OH278207   3.349   2.369   1.077 -0.1865  0.2827 -0.1375
18931TIP3    H178208   3.392   2.325   1.003 -1.6249 -0.1371 -0.7472
18931TIP3    H278209   3.259   2.338   1.075 -0.2215  0.1055  1.9424
18932TIP3   OH278210   0.474   3.312   6.075 -0.2659  0.1462 -0.1792
18932TIP3    H178211   0.533   3.371   6.123 -1.9760  1.0545  0.8930
18932TIP3    H278212   0.446   3.363   5.999 -0.4043  0.0665 -0.1815
18933TIP3   OH278213   5.227   3.534   0.023 -0.1531  0.8579 -0.6539
18933TIP3    H178214   5.178   3.453   0.030  2.0924 -0.4910  0.8909
18933TIP3    H278215   5.292   3.517  -0.045  1.1123  0.8486  0.5086
18934TIP3   OH278216   3.149   0.619   2.475 -0.3872  0.1542 -0.5381
18934TIP3    H178217   3.127   0.532   2.509 -1.3906  0.0325 -1.4413
18934TIP3    H278218   3.236   0.637   2.509 -0.5295 -0.8298  0.3881
18935TIP3   OH278219   3.551   1.968   2.122  0.1798 -0.2414  0.2079
18935TIP3    H178220   3.473   1.995   2.072 -0.3911 -1.6214  0.3029
18935TIP3    H278221   3.622   1.971   2.059  0.0400  0.9331  0.0866
18936TIP3   OH278222   3.655   5.225  14.255 -0.3720  0.4817  0.6030
18936TIP3    H178223   3.650   5.131  14.237 -2.0337  0.6812 -0.1511
18936TIP3    H278224   3.674   5.230  14.349  3.3819 -0.5747  0.0512
18937TIP3   OH278225   2.458   5.486   2.972  0.1843  0.0599 -0.0998
18937TIP3    H178226   2.451   5.536   3.053  1.7565 -1.5550  1.1087
18937TIP3    H278227   2.441   5.550   2.903 -1.8289  1.3589  1.4747
18938TIP3   OH278228   2.769   2.176  12.180 -0.5170  0.3961  0.5082
18938TIP3    H178229   2.711   2.116  12.227 -0.0758 -0.7610 -0.3742
18938TIP3    H278230   2.723   2.260  12.181 -2.2024 -0.4752 -0.1535
18939TIP3   OH278231   4.891   5.399  13.744 -0.6148 -0.2149  0.0220
18939TIP3    H178232   4.924   5.349  13.670  0.4737  0.2130  0.2005
18939TIP3    H278233   4.869   5.332  13.810 -1.1569 -0.5669 -0.5049
18940TIP3   OH278234   4.022   5.854  12.871 -0.3774  0.0214  0.1232
18940TIP3    H178235   3.980   5.929  12.914  1.3705  2.0417 -1.4366
18940TIP3    H278236   3.960   5.827  12.803 -1.1821 -0.2146  0.9343
18941TIP3   OH278237   1.649   2.113  16.920  0.2677 -0.0617 -0.1722
18941TIP3    H178238   1.563   2.144  16.888  0.6651  0.7644 -0.4854
18941TIP3    H278239   1.639   2.110  17.015 -0.1975 -0.2438 -0.2212
18942TIP3   OH278240   3.269   6.661  13.401  0.0912  0.1376  0.1961
18942TIP3    H178241   3.352   6.612  13.398 -0.0380 -0.0983  0.4217
18942TIP3    H278242   3.289   6.738  13.455 -0.1865 -0.6090  1.4209
18943TIP3   OH278243   6.208   1.390  17.155 -0.4334 -0.1475  0.0386
18943TIP3    H178244   6.114   1.405  17.147 -0.1480  1.0629 -1.6300
18943TIP3    H278245   6.241   1.468  17.202 -0.2418 -0.5231  0.5370
18944TIP3   OH278246   0.735   4.917   0.294 -0.0881 -0.1578 -0.5316
18944TIP3    H178247   0.688   4.951   0.370 -1.3725  0.7267 -1.6549
18944TIP3    H278248   0.779   4.839   0.325 -0.4127  0.2995  1.1600
18945TIP3   OH278249   2.472   4.478  13.432  0.0190 -0.3433 -0.1018
18945TIP3    H178250   2.397   4.491  13.373 -0.3577 -0.6962  0.2878
18945TIP3    H278251   2.544   4.455  13.375  0.0114  0.6746 -0.5541
18946TIP3   OH278252   2.893   3.500   4.736  0.3166 -0.4389  0.2989
18946TIP3    H178253   2.891   3.567   4.668  0.5971  0.2650  0.9654
18946TIP3    H278254   2.985   3.494   4.760  0.1641 -0.3482  0.9279
18947TIP3   OH278255   0.355   1.557   0.040  0.3548 -0.1240  0.5090
18947TIP3    H178256   0.276   1.611   0.031  0.6836  0.3404  0.4207
18947TIP3    H278257   0.325   1.480   0.089  0.3931  1.2680  2.8948
18948TIP3   OH278258   2.646   3.923  14.808  0.4590 -0.6218  0.0059
18948TIP3    H178259   2.588   3.896  14.736  2.3654 -0.9229 -1.5233
18948TIP3    H278260   2.640   3.853  14.872 -0.4602 -0.8968 -0.3697
18949TIP3   OH278261   1.009   1.201   3.317  0.0133  0.1306  0.1363
18949TIP3    H178262   1.026   1.289   3.284 -0.6576  0.5482  0.8725
18949TIP3    H278263   1.042   1.143   3.248 -0.9495  0.9756 -1.0835
18950TIP3   OH278264   4.588   2.741   6.111  0.6769  0.3877  0.2819
18950TIP3    H178265   4.654   2.793   6.156 -0.1073  0.1197  1.8164
18950TIP3    H278266   4.613   2.650   6.128  0.8760  0.2622 -0.6234
18951TIP3   OH278267   6.244   4.972  14.144  0.6213  0.1625 -0.0458
18951TIP3    H178268   6.155   4.983  14.180  0.4857 -0.7121 -0.0807
18951TIP3    H278269   6.262   4.878  14.154  1.2637  0.2085 -0.6918
18952TIP3   OH278270   5.103   2.995   3.059  0.6303 -0.4217  0.4222
18952TIP3    H178271   5.181   3.047   3.076 -0.8085  1.9747  0.1569
18952TIP3    H278272   5.070   2.972   3.146  0.1581  0.9585  0.6354
18953TIP3   OH278273   6.124   2.245   2.892 -0.2446 -0.1889  0.8779
18953TIP3    H178274   6.166   2.326   2.861 -0.9577  0.7212  2.1929
18953TIP3    H278275   6.047   2.275   2.940 -0.4769 -1.6684  1.4812
18954TIP3   OH278276   2.684   2.688  14.151 -0.0344 -0.3585 -0.0130
18954TIP3    H178277   2.652   2.703  14.240 -1.8941  1.4208 -0.9164
18954TIP3    H278278   2.775   2.660  14.163 -0.0440  0.4169  2.4111
18955TIP3   OH278279   6.055   2.168   3.667  0.6626 -0.4036 -0.6362
18955TIP3    H178280   6.035   2.133   3.580 -0.3777  2.2831 -1.5861
18955TIP3    H278281   6.134   2.221   3.653 -0.0233  0.7755 -0.1910
18956TIP3   OH278282   4.834   5.300  15.413  0.1089  0.0823  0.4853
18956TIP3    H178283   4.819   5.340  15.327 -0.3987 -0.3212  0.3781
18956TIP3    H278284   4.850   5.208  15.395  2.2990  0.3834  0.6507
18957TIP3   OH278285   0.870   6.038  17.248  0.3409  0.4864 -0.1583
18957TIP3    H178286   0.883   6.122  17.202  0.3035  0.8056  0.4063
18957TIP3    H278287   0.944   6.032  17.308 -0.2842  0.6886  0.6492
18958TIP3   OH278288   3.779   4.564  12.236 -0.6224  0.5531 -0.1522
18958TIP3    H178289   3.748   4.521  12.316  1.2322 -1.0809 -0.2165
18958TIP3    H278290   3.874   4.552  12.239 -0.3491  2.0822 -1.7133
18959TIP3   OH278291   4.128   6.147  16.817  0.5328 -0.2895  0.7834
18959TIP3    H178292   4.143   6.080  16.750  1.5929  1.3859 -0.7337
18959TIP3    H278293   4.212   6.152  16.864  2.2272  3.1603 -2.1962
18960TIP3   OH278294   2.898   6.500  16.071 -0.7011  0.1952 -0.5827
18960TIP3    H178295   2.852   6.524  15.990 -1.6696  0.5570  0.0420
18960TIP3    H278296   2.827   6.481  16.133 -0.0181  1.0378  0.4987
18961TIP3   OH278297   0.688   5.143  13.012 -0.0524  0.4198  0.0405
18961TIP3    H178298   0.666   5.229  13.048 -0.6002  0.6902 -0.9097
18961TIP3    H278299   0.605   5.097  13.006  0.1264  0.1249 -0.2165
18962TIP3   OH278300   5.598   6.542  11.790  0.1101 -0.1449  0.9990
18962TIP3    H178301   5.654   6.585  11.855  1.7444  2.4485 -1.8674
18962TIP3    H278302   5.648   6.467  11.760  1.3457  1.0787 -0.1731
18963TIP3   OH278303   4.193   1.424   1.086  0.7376  0.6067  0.4729
18963TIP3    H178304   4.241   1.399   1.165  0.8140  1.7179  0.8052
18963TIP3    H278305   4.131   1.491   1.116 -0.6318 -0.3935 -0.0666
18964TIP3   OH278306   6.747   2.020   3.071  0.5342  0.2358  0.3488
18964TIP3    H178307   6.684   1.952   3.049 -0.8947  1.1391  1.4309
18964TIP3    H278308   6.788   2.044   2.988 -1.4418  0.4620 -0.6164
18965TIP3   OH278309   3.912   0.542   5.665 -0.8040  0.4192  0.4995
18965TIP3    H178310   4.002   0.512   5.669 -0.3190  1.8484  1.1723
18965TIP3    H278311   3.892   0.570   5.754 -2.1693 -0.5248  0.5261
18966TIP3   OH278312   3.893   4.827   1.668 -0.2661 -0.1989 -0.2585
18966TIP3    H178313   3.821   4.862   1.720 -1.9607 -0.6562 -2.1491
18966TIP3    H278314   3.866   4.843   1.577  1.0529 -2.2468 -1.0727
18967TIP3   OH278315   2.441   5.542   0.557 -0.3692  0.3067  0.4612
18967TIP3    H178316   2.531   5.547   0.524 -0.5159 -0.0654 -0.0100
18967TIP3    H278317   2.387   5.569   0.482 -0.6035  1.5991  1.0588
18968TIP3   OH278318   1.844   3.226  11.835  0.2613  0.5078 -0.0370
18968TIP3    H178319   1.913   3.224  11.901  0.6067 -0.1593 -0.4126
18968TIP3    H278320   1.876   3.286  11.768  1.8142 -1.9151 -1.6148
18969TIP3   OH278321   6.300   6.620   5.604 -0.0923  0.3990  0.2825
18969TIP3    H178322   6.357   6.683   5.648  0.0743  0.8395 -0.5407
18969TIP3    H278323   6.350   6.594   5.526 -0.5341 -0.0877  0.1582
18970TIP3   OH278324   5.844   2.735  11.261  0.0956  0.0626 -0.0357
18970TIP3    H178325   5.770   2.765  11.209 -0.7848  0.7016  1.5292
18970TIP3    H278326   5.815   2.652  11.299  0.8634 -0.5812 -0.8035
18971TIP3   OH278327   5.973   3.945   1.224  0.0145 -0.0144  0.3132
18971TIP3    H178328   6.012   3.926   1.138 -0.2414  0.1859  0.1481
18971TIP3    H278329   6.047   3.963   1.281  0.2477 -1.2079  0.4090
18972TIP3   OH278330   4.374   3.055  16.826  0.3997 -0.0717 -0.5592
18972TIP3    H178331   4.327   3.109  16.889 -0.5173 -0.7459 -0.6507
18972TIP3    H278332   4.359   3.098  16.742  2.9964  1.7847 -0.1911
18973TIP3   OH278333   0.104   4.426  12.667  0.3546  0.1494 -0.2648
18973TIP3    H178334   0.070   4.394  12.583 -1.0029 -0.5812  0.5211
18973TIP3    H278335   0.108   4.348  12.723  3.6831  0.1281 -0.3379
18974TIP3   OH278336   2.338   2.974   5.941  0.0988  0.4725 -0.4554
18974TIP3    H178337   2.411   2.926   5.981  1.2862  1.2254 -1.6182
18974TIP3    H278338   2.363   2.982   5.849 -1.5011  0.7071 -0.8905
18975TIP3   OH278339   2.120   0.874   4.684  0.0357  0.1048 -0.5162
18975TIP3    H178340   2.181   0.809   4.720 -0.2172 -0.2681 -0.7541
18975TIP3    H278341   2.164   0.958   4.697 -0.4418  0.0984  1.5280
18976TIP3   OH278342   3.792   0.867   3.303 -0.2857  0.4276  0.0978
18976TIP3    H178343   3.851   0.899   3.235  0.2981 -0.2860  0.2590
18976TIP3    H278344   3.751   0.947   3.338  1.4026  1.0578  0.7423
18977TIP3   OH278345   3.616   6.069   2.296 -0.1345  0.2207 -0.3813
18977TIP3    H178346   3.643   6.058   2.387 -1.6890 -2.1579 -0.1156
18977TIP3    H278347   3.684   6.024   2.246  1.7715  3.1430 -0.7020
18978TIP3   OH278348   1.725   1.713  16.023  0.0673 -0.3089 -0.3826
18978TIP3    H178349   1.818   1.732  16.032 -0.1751  0.6937  0.1935
18978TIP3    H278350   1.681   1.784  16.070 -0.9769 -1.0500 -0.1850
18979TIP3   OH278351   5.327   2.101  11.899  0.3808  0.1641  0.5828
18979TIP3    H178352   5.324   2.009  11.873 -2.7749  0.5609 -0.9854
18979TIP3    H278353   5.388   2.142  11.838  2.3329 -0.8819  1.7110
18980TIP3   OH278354   2.869   3.231  12.205 -0.3118  0.0240 -0.0598
18980TIP3    H178355   2.944   3.184  12.167 -0.4058  0.0955 -0.3349
18980TIP3    H278356   2.871   3.317  12.162 -0.3015  0.1752  0.2430
18981TIP3   OH278357   1.377   5.608   1.287 -0.2763 -1.0888  0.0497
18981TIP3    H178358   1.301   5.556   1.261 -2.0081  0.9465  0.7222
18981TIP3    H278359   1.410   5.645   1.205 -0.5311 -1.3308 -0.1617
18982TIP3   OH278360   6.431   2.536  16.977  0.2967 -0.5424 -0.1347
18982TIP3    H178361   6.463   2.621  16.946  0.8100 -0.9050 -0.6193
18982TIP3    H278362   6.487   2.515  17.051  1.2691 -1.2174 -1.0369
18983TIP3   OH278363   1.822   4.378  11.150 -0.1915  0.4537  0.0852
18983TIP3    H178364   1.803   4.284  11.151  1.7461  0.0345  1.2694
18983TIP3    H278365   1.890   4.388  11.083 -0.1176  0.9511  0.2284
18984TIP3   OH278366   5.633   3.062   5.973 -0.1078 -0.0478 -0.0495
18984TIP3    H178367   5.660   3.011   6.049 -0.9638 -2.1111 -1.0481
18984TIP3    H278368   5.604   2.997   5.909  0.7123  1.5878 -2.2270
18985TIP3   OH278369   2.245   6.066   3.135 -0.4585 -0.2609  1.0001
18985TIP3    H178370   2.251   5.979   3.096 -0.1325  0.1825  0.0248
18985TIP3    H278371   2.295   6.122   3.075 -1.6617  0.8074  0.9642
18986TIP3   OH278372   0.652   1.516  14.497 -0.2819  0.7212  0.7025
18986TIP3    H178373   0.599   1.577  14.548  0.0325 -0.1926  2.1858
18986TIP3    H278374   0.673   1.563  14.416 -1.7097  1.8036  0.9355
18987TIP3   OH278375   5.895   3.075  14.857  0.3469 -0.2882  0.5276
18987TIP3    H178376   5.845   3.118  14.787 -0.0306 -1.5318  0.0158
18987TIP3    H278377   5.830   3.024  14.905  0.5120  0.9493  2.1381
18988TIP3   OH278378   0.538   4.005   4.164 -0.5177 -0.2942 -0.4388
18988TIP3    H178379   0.479   3.941   4.123 -0.6473 -1.2590  1.1396
18988TIP3    H278380   0.623   3.961   4.166 -0.5872 -0.4091  0.5862
18989TIP3   OH278381   2.816   4.284   1.082 -0.3271  0.3486 -0.3371
18989TIP3    H178382   2.886   4.340   1.050  1.1517 -1.3614 -0.2771
18989TIP3    H278383   2.747   4.344   1.111  1.0639  2.0805 -0.4931
18990TIP3   OH278384   3.961   3.047  12.097  0.9671 -0.2159 -0.0426
18990TIP3    H178385   4.014   2.970  12.074  0.7105 -0.0148 -1.4131
18990TIP3    H278386   3.977   3.109  12.026 -0.3812  0.2043 -0.0155
18991TIP3   OH278387   4.140   1.387  12.525  0.6276  0.3115  0.0305
18991TIP3    H178388   4.165   1.306  12.479 -1.0957 -0.0453 -0.3639
18991TIP3    H278389   4.114   1.357  12.612  1.0560  0.6087  0.2653
18992TIP3   OH278390   4.296   0.700  14.788  0.4861  0.0251 -0.4484
18992TIP3    H178391   4.304   0.793  14.809 -0.7389  0.1479 -0.4642
18992TIP3    H278392   4.261   0.661  14.868  2.7783 -0.7768  0.2382
18993TIP3   OH278393   5.366   4.694  14.693 -0.4867 -0.1990  0.0562
18993TIP3    H178394   5.342   4.688  14.600  1.6272  1.4363 -0.6810
18993TIP3    H278395   5.301   4.753  14.731  0.2753  1.4715 -1.1137
18994TIP3   OH278396   0.735   4.785  16.772 -0.1123  0.4227  0.1747
18994TIP3    H178397   0.658   4.792  16.716  2.3030  2.0863 -3.2958
18994TIP3    H278398   0.734   4.695  16.803 -2.5333 -0.0773 -1.0803
18995TIP3   OH278399   6.078   1.223  16.557  0.9602 -0.2520 -0.4205
18995TIP3    H178400   6.026   1.202  16.635 -0.8034  0.5379 -1.3060
18995TIP3    H278401   6.138   1.149  16.548  0.1651 -1.1000  0.8327
18996TIP3   OH278402   4.987   3.391  12.885  0.3729  0.1941 -0.3273
18996TIP3    H178403   5.043   3.467  12.872  0.2758  0.3427  0.1242
18996TIP3    H278404   4.966   3.391  12.978 -0.1133 -0.0425 -0.4288
18997TIP3   OH278405   2.198   0.625  12.942 -0.7147 -0.5167 -0.6378
18997TIP3    H178406   2.284   0.605  12.905 -0.2005 -0.4097  0.4499
18997TIP3    H278407   2.152   0.671  12.872  0.5425  0.4670 -0.8571
18998TIP3   OH278408   5.891   1.760  17.385  0.0969 -0.1917 -0.7721
18998TIP3    H178409   5.874   1.785  17.476  0.8751 -0.1864 -0.6191
18998TIP3    H278410   5.881   1.665  17.384 -2.3737  0.0109 -1.2447
18999TIP3   OH278411   4.465   1.947   0.185 -0.2133 -0.1609 -0.1348
18999TIP3    H178412   4.449   1.857   0.215 -0.6898 -0.0187  0.0384
18999TIP3    H278413   4.560   1.955   0.185 -0.1902 -0.0754  1.6142
19000TIP3   OH278414   1.004   5.074   2.831 -0.3681  0.4464 -0.4175
19000TIP3    H178415   0.996   5.121   2.914  1.9014  0.6957 -0.2838
19000TIP3    H278416   1.017   5.142   2.765 -3.5142  0.3664 -1.3110
19001TIP3   OH278417   0.881   2.128   1.271 -0.6132  0.9399 -0.2043
19001TIP3    H178418   0.819   2.195   1.244 -0.9941  0.7312  0.1350
19001TIP3    H278419   0.871   2.124   1.367  1.1482  2.1206  0.0784
19002TIP3   OH278420   1.715   1.689   1.787 -0.1114  0.5176  0.0281
19002TIP3    H178421   1.625   1.660   1.794  0.7482 -2.2279  0.7653
19002TIP3    H278422   1.710   1.772   1.739 -2.9343  0.1675 -0.4199
19003TIP3   OH278423   0.503   6.123  16.732  0.8028 -0.3774  0.1836
19003TIP3    H178424   0.427   6.178  16.714 -0.7181 -2.4284  0.0601
19003TIP3    H278425   0.564   6.143  16.661 -0.1070  0.4328 -0.3969
19004TIP3   OH278426   2.386   5.799   4.329 -0.3474  0.1851 -0.0815
19004TIP3    H178427   2.356   5.725   4.381  0.1579  0.0191 -0.0128
19004TIP3    H278428   2.416   5.863   4.394  1.3411 -0.4740 -0.1489
19005TIP3   OH278429   0.940   0.544  17.091 -0.3276  0.5480  0.3517
19005TIP3    H178430   0.935   0.554  17.186 -0.5572 -1.3938  0.5735
19005TIP3    H278431   1.019   0.493  17.076 -0.2515  0.9060 -0.5235
19006TIP3   OH278432   5.653   3.333   3.577  0.1764  0.3990 -0.0426
19006TIP3    H178433   5.574   3.364   3.621  0.0573  0.1996 -0.1131
19006TIP3    H278434   5.716   3.320   3.648 -0.6848 -1.9935  0.3657
19007TIP3   OH278435   4.375   0.635   4.192 -0.1581  0.1894  0.6208
19007TIP3    H178436   4.377   0.557   4.137 -1.6901  0.1412  0.5718
19007TIP3    H278437   4.349   0.705   4.132 -2.0996  0.0897  1.2600
19008TIP3   OH278438   5.639   1.304  17.072 -0.1605 -0.1376 -0.0389
19008TIP3    H178439   5.642   1.386  17.023 -0.6322 -0.7718 -1.1887
19008TIP3    H278440   5.730   1.276  17.078 -0.1094 -0.1291 -0.7143
19009TIP3   OH278441   4.383   6.434  12.365  0.6384 -0.8433 -0.6139
19009TIP3    H178442   4.463   6.458  12.411  1.0527 -2.6061 -0.3315
19009TIP3    H278443   4.407   6.432  12.273  0.3915  0.4915 -0.7293
19010TIP3   OH278444   2.156   1.504   2.144 -0.3990 -0.1157  0.3236
19010TIP3    H178445   2.208   1.425   2.157 -0.8117 -0.2182  1.4129
19010TIP3    H278446   2.175   1.530   2.053  0.4836 -0.9121  0.2620
19011TIP3   OH278447   4.600   4.495  14.776  0.0783 -0.5519  0.2386
19011TIP3    H178448   4.604   4.494  14.871 -1.3695  0.2772  0.3375
19011TIP3    H278449   4.590   4.403  14.751 -1.0075 -0.6508  0.9790
19012TIP3   OH278450   3.409   3.281   0.262  0.0625  0.5930  0.1569
19012TIP3    H178451   3.328   3.259   0.307 -0.6332  2.5513 -0.0241
19012TIP3    H278452   3.478   3.257   0.323 -0.8473  3.5269  2.6213
19013TIP3   OH278453   3.659   3.292   6.166 -0.0891  0.4831  0.3753
19013TIP3    H178454   3.721   3.364   6.178 -1.4941  1.7968  0.1090
19013TIP3    H278455   3.584   3.332   6.123 -1.1083 -1.0575  0.6307
19014TIP3   OH278456   5.026   3.274   1.421 -0.3767  0.3144  0.0592
19014TIP3    H178457   5.033   3.370   1.427  1.2915  0.1955  0.7627
19014TIP3    H278458   5.035   3.256   1.327  1.2589  0.7829  0.0824
19015TIP3   OH278459   1.877   5.544   0.649 -0.6972 -0.0332  0.0373
19015TIP3    H178460   1.922   5.535   0.733  1.4448 -0.0980 -1.0585
19015TIP3    H278461   1.923   5.616   0.605 -1.9689  0.1927 -0.9743
19016TIP3   OH278462   0.247   2.103  14.351  0.0069  0.9030 -0.3927
19016TIP3    H178463   0.266   2.196  14.339  1.4366  0.6756 -0.0630
19016TIP3    H278464   0.243   2.068  14.261 -1.7072  1.4801 -0.5601
19017TIP3   OH278465   1.166   6.258   5.461 -0.4133 -0.3211  0.2298
19017TIP3    H178466   1.210   6.238   5.544 -0.0922  0.8009  0.3547
19017TIP3    H278467   1.222   6.219   5.394 -0.8688 -1.5573  0.5390
19018TIP3   OH278468   3.274   2.393   4.331 -0.0438 -0.3691 -0.3507
19018TIP3    H178469   3.291   2.301   4.313 -1.6026 -0.5571 -1.1152
19018TIP3    H278470   3.192   2.412   4.284 -0.0958  1.2385  0.2947
19019TIP3   OH278471   6.567   1.547   1.353  0.2813  0.3726 -0.6691
19019TIP3    H178472   6.486   1.548   1.404  0.8672  1.2364  0.2831
19019TIP3    H278473   6.539   1.564   1.263 -0.4936  1.8933 -0.1698
19020TIP3   OH278474   5.761   1.640   5.701  0.0018 -0.3472  0.0602
19020TIP3    H178475   5.704   1.677   5.768  0.0963 -0.5310  0.2424
19020TIP3    H278476   5.849   1.648   5.737  0.4322  2.4309 -1.3117
19021TIP3   OH278477   3.874   4.653   3.342  0.4217 -0.8470  0.1121
19021TIP3    H178478   3.895   4.599   3.419 -0.9158 -1.1499  0.2861
19021TIP3    H278479   3.844   4.590   3.276 -2.3206 -0.3063  0.7160
19022TIP3   OH278480   3.319   2.425  14.728 -0.0377  0.2917  0.3372
19022TIP3    H178481   3.259   2.389  14.662 -1.4973  2.5940  0.2927
19022TIP3    H278482   3.287   2.390  14.811 -0.2765  0.0283  0.1369
19023TIP3   OH278483   4.279   3.825   2.842 -0.0539  0.0678  0.1681
19023TIP3    H178484   4.305   3.831   2.934 -0.0381 -0.0907  0.1746
19023TIP3    H278485   4.185   3.837   2.843 -0.0256  0.2948  0.1813
19024TIP3   OH278486   6.353   0.055   1.899  0.0274  0.7009 -0.4238
19024TIP3    H178487   6.390   0.034   1.984 -0.0790 -1.0790 -0.7707
19024TIP3    H278488   6.347   0.151   1.897 -1.6836  0.7471  2.3010
19025TIP3   OH278489   6.554   1.569   4.106  0.3878 -0.5089 -0.1796
19025TIP3    H178490   6.529   1.659   4.128 -0.1288 -0.8324  0.5940
19025TIP3    H278491   6.649   1.573   4.095  0.5189 -0.0964  0.9865
19026TIP3   OH278492   1.489   1.732  11.711 -0.1589 -0.4444 -0.3514
19026TIP3    H178493   1.558   1.680  11.752  0.3083  0.2071 -0.3057
19026TIP3    H278494   1.458   1.678  11.639  2.6649  0.5819 -2.4832
19027TIP3   OH278495   1.486   3.624  11.373  0.4052 -0.1205 -0.3250
19027TIP3    H178496   1.393   3.639  11.354  0.1084 -0.5076  0.7776
19027TIP3    H278497   1.506   3.686  11.443  1.2604  0.6858 -1.2526
19028TIP3   OH278498   6.317   5.889  12.081  0.1731  0.4932 -0.4803
19028TIP3    H178499   6.296   5.973  12.122 -1.3103 -0.8696  1.8871
19028TIP3    H278500   6.244   5.873  12.021 -0.1972  0.3676 -0.0038
19029TIP3   OH278501   6.737   4.657   0.925 -0.0499 -0.0751  0.1698
19029TIP3    H178502   6.667   4.723   0.924 -1.3417 -1.1102  4.6202
19029TIP3    H278503   6.695   4.576   0.952  2.5115 -1.3014  0.8232
19030TIP3   OH278504   2.575   0.925   4.506 -0.3844  0.6766  0.7943
19030TIP3    H178505   2.629   0.857   4.545  0.5031  0.3569 -0.8937
19030TIP3    H278506   2.526   0.881   4.436 -0.2188  1.6321  0.0422
19031TIP3   OH278507   5.381   2.099  14.379 -0.8265 -0.1715 -0.0665
19031TIP3    H178508   5.310   2.088  14.316 -0.2672  1.7507 -1.1440
19031TIP3    H278509   5.430   2.174  14.346  1.2694 -0.9631  1.0565
19032TIP3   OH278510   1.843   5.628  13.156 -0.1678  0.1961 -0.2963
19032TIP3    H178511   1.838   5.716  13.118 -0.0108 -0.2502 -1.3702
19032TIP3    H278512   1.867   5.572  13.083  1.1692 -0.5383  0.6738
19033TIP3   OH278513   0.319   5.721  11.246  0.0761 -0.0824  0.1852
19033TIP3    H178514   0.383   5.787  11.217  1.8721 -1.2992  1.1949
19033TIP3    H278515   0.252   5.722  11.177  0.3402  2.3206 -0.1563
19034TIP3   OH278516   5.949   2.531  12.607  0.2510 -0.0351  0.1418
19034TIP3    H178517   6.014   2.478  12.562  0.2113  0.4543 -0.4990
19034TIP3    H278518   5.865   2.501  12.573  0.3267  2.7414 -2.8829
19035TIP3   OH278519   2.285   6.440  12.612 -0.0301  0.2968  0.5822
19035TIP3    H178520   2.234   6.468  12.536 -0.5728 -2.0285 -0.0011
19035TIP3    H278521   2.369   6.486  12.603 -1.3423  2.8254  0.5938
19036TIP3   OH278522   0.032   4.851   6.131  0.4405  0.3980  0.2102
19036TIP3    H178523  -0.058   4.818   6.130  0.8172 -0.6719 -0.1870
19036TIP3    H278524   0.043   4.889   6.218 -0.0542 -0.4557  0.6589
19037TIP3   OH278525   0.012   3.575  11.853  0.0675  0.0621  0.0386
19037TIP3    H178526   0.075   3.509  11.822 -0.0816 -0.3838  0.6653
19037TIP3    H278527   0.062   3.629  11.914 -0.0610 -0.0737  0.2656
19038TIP3   OH278528   0.272   3.231   3.813  0.1510  0.1970 -0.3259
19038TIP3    H178529   0.304   3.321   3.819  0.5837  0.0281 -0.0522
19038TIP3    H278530   0.238   3.212   3.900  2.7324 -0.8831  0.5534
19039TIP3   OH278531   1.848   4.681   0.653  0.2346  0.1124  0.0325
19039TIP3    H178532   1.928   4.686   0.601 -0.1148  1.6319 -0.4224
19039TIP3    H278533   1.780   4.715   0.594 -0.6654 -0.6758  0.5854
19040TIP3   OH278534   6.244   1.004  16.892 -0.5338 -0.6847  0.1891
19040TIP3    H178535   6.301   1.068  16.850 -0.9413 -0.7572 -0.4917
19040TIP3    H278536   6.302   0.949  16.944  0.0391 -0.8437 -0.6011
19041TIP3   OH278537   3.796   2.894   0.898  0.0425  0.4254  0.4479
19041TIP3    H178538   3.825   2.815   0.851 -0.1893  1.9230 -2.4130
19041TIP3    H278539   3.874   2.923   0.946  0.9973  0.0399 -0.8175
19042TIP3   OH278540   6.193   0.999  13.221 -0.0111 -0.6190  0.4476
19042TIP3    H178541   6.136   0.924  13.237 -0.4492 -0.9842 -2.2746
19042TIP3    H278542   6.146   1.051  13.155  0.9900  1.2429  1.1365
19043TIP3   OH278543   5.498   2.104  15.079 -0.0703  0.3100 -0.4192
19043TIP3    H178544   5.477   2.163  15.006 -0.8085  0.3154 -0.2058
19043TIP3    H278545   5.580   2.062  15.052 -0.1547  0.5630 -1.1014
19044TIP3   OH278546   0.336   3.104  11.425 -0.4458  0.6654 -0.6066
19044TIP3    H178547   0.400   3.035  11.446 -0.2049  1.4181  1.2884
19044TIP3    H278548   0.251   3.064  11.442 -0.3696  0.4636 -0.6936
19045TIP3   OH278549   1.147   2.031  11.441  0.0996  0.3092 -0.5954
19045TIP3    H178550   1.142   1.950  11.492  0.5708 -0.3806 -1.6096
19045TIP3    H278551   1.064   2.036  11.394 -0.0946  0.6325 -0.2207
19046TIP3   OH278552   5.150   0.101   6.774 -0.1942 -0.1091 -0.1286
19046TIP3    H178553   5.222   0.038   6.766  0.4059  0.6630 -0.9500
19046TIP3    H278554   5.166   0.144   6.858 -1.4287 -1.9885  1.1840
19047TIP3   OH278555   4.349   5.599  16.941  0.5940 -0.1995  0.2401
19047TIP3    H178556   4.297   5.679  16.952 -1.0469 -1.4926  3.1023
19047TIP3    H278557   4.299   5.546  16.879  1.2972  0.6148 -1.0736
19048TIP3   OH278558   4.958   6.245  12.395  0.1080 -0.2498 -0.6464
19048TIP3    H178559   4.957   6.293  12.478 -2.8823  0.6191 -1.0716
19048TIP3    H278560   5.030   6.183  12.404  1.1399  1.1661  1.7867
19049TIP3   OH278561   0.084   1.122   0.712 -0.0613 -0.5892  0.5044
19049TIP3    H178562   0.067   1.126   0.806  1.9099 -0.8296  0.9022
19049TIP3    H278563   0.113   1.210   0.689 -0.1428 -0.6415  0.1905
19050TIP3   OH278564   5.215   1.010  16.272 -0.0198  0.1678  0.0456
19050TIP3    H178565   5.210   1.092  16.223 -0.1891 -0.2843 -0.7171
19050TIP3    H278566   5.305   1.007  16.305  0.1886  0.3439 -0.4916
19051TIP3   OH278567   5.665   6.040  14.766 -0.2487  0.4585  0.0569
19051TIP3    H178568   5.610   6.079  14.698 -0.5923 -2.2751 -1.3889
19051TIP3    H278569   5.620   5.959  14.790  0.8640  0.3930  2.2054
19052TIP3   OH278570   0.141   2.647   1.044  0.3337 -0.3337 -0.2594
19052TIP3    H178571   0.201   2.587   1.089  0.0792 -1.1796 -1.0288
19052TIP3    H278572   0.058   2.599   1.040 -0.8616  1.3315  2.0069
19053TIP3   OH278573   2.747   1.116   6.539 -0.1659 -0.3694  0.2231
19053TIP3    H178574   2.840   1.099   6.524  0.0712  0.0316  1.1710
19053TIP3    H278575   2.737   1.112   6.634 -0.6267  2.0788  0.3298
19054TIP3   OH278576   3.544   3.714   4.076  0.3757 -0.4251 -0.2929
19054TIP3    H178577   3.536   3.651   4.148  1.2303  0.1468  0.3245
19054TIP3    H278578   3.483   3.682   4.009 -1.1084 -0.4757  1.0318
19055TIP3   OH278579   3.498   0.356   0.968  0.4101  0.1291  0.3050
19055TIP3    H178580   3.548   0.311   0.899 -0.0237  0.9131 -0.5314
19055TIP3    H278581   3.425   0.297   0.986 -0.4114  0.6628 -1.1101
19056TIP3   OH278582   3.843   1.197  16.539 -0.1140  0.1908 -0.3277
19056TIP3    H178583   3.810   1.282  16.569 -0.2505  1.1296 -2.9017
19056TIP3    H278584   3.937   1.203  16.553 -0.3171 -0.0941  1.4019
19057TIP3   OH278585   5.189   2.259   2.285  0.3885  0.3693 -0.3202
19057TIP3    H178586   5.163   2.331   2.227  0.6816  0.0153 -0.9027
19057TIP3    H278587   5.232   2.196   2.227  0.4875 -0.0966  0.2498
19058TIP3   OH278588   5.479   3.993  13.240  0.1396  0.2211 -0.0066
19058TIP3    H178589   5.560   3.960  13.278 -0.7314  0.2176  2.0114
19058TIP3    H278590   5.455   4.067  13.295 -1.1894  0.2596 -0.5949
19059TIP3   OH278591   0.961   1.474   4.126 -0.0166 -0.3469  0.1418
19059TIP3    H178592   0.986   1.426   4.205  0.9474 -0.7769 -0.4060
19059TIP3    H278593   1.017   1.438   4.057 -1.3345 -0.4935 -0.9086
19060TIP3   OH278594   6.017   4.894   3.018  0.5548  0.2818 -0.0536
19060TIP3    H178595   5.988   4.879   3.108 -1.3752 -0.5891 -0.7558
19060TIP3    H278596   6.049   4.985   3.018  1.2211  0.0846  1.6240
19061TIP3   OH278597   2.193   6.639  14.397  0.3268 -0.2307  0.2573
19061TIP3    H178598   2.115   6.584  14.398 -0.0485  0.2940  1.1912
19061TIP3    H278599   2.160   6.728  14.412  0.9370  0.2333 -1.0291
19062TIP3   OH278600   5.113   3.967  15.254 -0.9495  0.2023  0.2019
19062TIP3    H178601   5.143   4.032  15.190  3.0434 -1.8654 -0.3665
19062TIP3    H278602   5.036   3.927  15.213 -0.9109  1.6434 -1.4099
19063TIP3   OH278603   5.777   3.547   1.589  0.3467 -1.2735  0.4920
19063TIP3    H178604   5.683   3.558   1.575  0.4925  0.9269  0.8751
19063TIP3    H278605   5.800   3.471   1.536 -1.6504 -1.9353  0.4679
19064TIP3   OH278606   3.843   2.172  16.153  0.3143  0.2622  0.2259
19064TIP3    H178607   3.901   2.097  16.141 -1.6301 -1.1022 -1.4365
19064TIP3    H278608   3.857   2.227  16.076 -2.1085 -1.2733 -1.4580
19065TIP3   OH278609   1.806   3.618   4.124 -0.4563  0.0617 -0.3806
19065TIP3    H178610   1.716   3.647   4.107 -0.3714  0.0599 -0.8643
19065TIP3    H278611   1.821   3.639   4.216 -0.7862  0.5139 -0.4222
19066TIP3   OH278612   5.179   1.954   4.805  0.1038  0.3594  0.3102
19066TIP3    H178613   5.165   1.983   4.896 -2.5961  0.9367 -0.1853
19066TIP3    H278614   5.161   1.860   4.807  0.1610  0.3499  0.3969
19067TIP3   OH278615   4.712   5.695   2.113  0.0387  0.6077 -1.3513
19067TIP3    H178616   4.667   5.709   2.196  1.2865 -0.5834 -0.4196
19067TIP3    H278617   4.800   5.665   2.138  0.3379 -0.1115 -3.1026
19068TIP3   OH278618   1.972   5.639   4.471 -0.5822 -0.0693  0.1412
19068TIP3    H178619   1.887   5.641   4.427  0.9002  2.0994 -3.0072
19068TIP3    H278620   2.013   5.559   4.440 -0.9362 -0.4408  0.6093
19069TIP3   OH278621   6.507   4.024  15.888 -0.1447  0.0130 -0.3271
19069TIP3    H178622   6.415   4.039  15.867  0.1096  0.7693 -0.9882
19069TIP3    H278623   6.544   4.112  15.896  0.3263 -0.2733  0.8573
19070TIP3   OH278624   5.143   5.152   4.462  0.7316 -0.0625  0.4033
19070TIP3    H178625   5.214   5.090   4.446 -0.2386 -1.1588  0.2068
19070TIP3    H278626   5.182   5.238   4.449  1.9458 -0.6575  0.0222
19071TIP3   OH278627   5.311   4.217  13.796 -0.3291  0.1606  0.4206
19071TIP3    H178628   5.227   4.231  13.753  0.1658  2.0460 -0.0517
19071TIP3    H278629   5.348   4.305  13.805  2.8397 -0.7453 -1.9530
19072TIP3   OH278630   6.412   5.945   1.399 -0.0810  0.0466 -0.0460
19072TIP3    H178631   6.376   6.030   1.426  0.5944 -0.1756  1.7285
19072TIP3    H278632   6.407   5.891   1.478  0.1948 -1.3368 -0.9384
19073TIP3   OH278633   3.358   5.670  14.640  0.2207  0.2659  0.5475
19073TIP3    H178634   3.310   5.709  14.713 -0.8593  1.6684 -0.8337
19073TIP3    H278635   3.450   5.678  14.664 -0.1242 -0.0755  2.0991
19074TIP3   OH278636   4.480   1.374  11.185 -0.5922  0.2263 -0.3255
19074TIP3    H178637   4.412   1.417  11.237  1.3657  1.6435  1.2201
19074TIP3    H278638   4.456   1.393  11.094 -1.8356  1.3625  0.2024
19075TIP3   OH278639   6.553   2.878   0.098  0.3413 -0.8904  0.5525
19075TIP3    H178640   6.602   2.875   0.180 -0.8639 -0.4882  1.3088
19075TIP3    H278641   6.619   2.899   0.032  1.4292 -1.7556  1.3238
19076TIP3   OH278642   4.287   6.083   3.204 -0.3737 -0.1021  0.0953
19076TIP3    H178643   4.221   6.037   3.153 -1.0026  0.4226  0.4276
19076TIP3    H278644   4.366   6.079   3.150 -0.3965 -1.6021  0.1415
19077TIP3   OH278645   2.593   3.195   2.877  0.4800  0.2986 -0.1757
19077TIP3    H178646   2.650   3.193   2.800 -1.3174  0.1479 -1.5568
19077TIP3    H278647   2.528   3.262   2.858 -0.6994 -0.5564  0.6914
19078TIP3   OH278648   1.496   0.101  11.574  0.1446 -0.7064  0.2913
19078TIP3    H178649   1.462   0.104  11.663 -0.2297  2.0292  0.1297
19078TIP3    H278650   1.447   0.029  11.533 -0.2802 -1.4555  2.0152
19079TIP3   OH278651   6.209   3.987   5.817 -0.3048 -0.0682  0.2501
19079TIP3    H178652   6.163   3.904   5.832  1.3900 -0.8154  1.8314
19079TIP3    H278653   6.251   3.976   5.732 -0.0561 -0.8590  0.4679
19080TIP3   OH278654   5.634   5.021   3.638  0.0340  0.8738  0.5948
19080TIP3    H178655   5.560   4.976   3.677 -0.6906  1.3029 -0.2495
19080TIP3    H278656   5.641   5.103   3.687  1.0977  0.0704  1.8594
19081TIP3   OH278657   3.777   3.151   3.916 -0.2208 -0.1121 -0.1777
19081TIP3    H178658   3.742   3.241   3.914 -2.1848 -0.7216  2.0908
19081TIP3    H278659   3.701   3.096   3.901  0.1118 -1.4422  2.3835
19082TIP3   OH278660   6.292   0.548  12.527 -0.2524  0.0506 -0.8410
19082TIP3    H178661   6.322   0.492  12.599  1.2316  1.2937 -0.4336
19082TIP3    H278662   6.343   0.518  12.451  0.4383  0.7162 -0.6547
19083TIP3   OH278663   4.890   1.758  11.240  0.0129  0.0242 -0.3659
19083TIP3    H178664   4.821   1.822  11.219  0.9522  1.2053  0.0148
19083TIP3    H278665   4.925   1.732  11.155 -1.7212 -1.5924 -0.6592
19084TIP3   OH278666   5.848   4.422  16.829  0.4384  0.2007  0.1462
19084TIP3    H178667   5.903   4.436  16.752  0.6343  2.5763  0.6454
19084TIP3    H278668   5.769   4.382  16.795  1.0167  0.0786 -1.1057
19085TIP3   OH278669   0.795   1.447   1.553  0.0840 -0.2747 -0.1076
19085TIP3    H178670   0.711   1.417   1.518  0.5705 -1.1531 -0.5682
19085TIP3    H278671   0.851   1.460   1.476 -0.2079  2.3066  0.0258
19086TIP3   OH278672   3.294   4.404  16.617 -0.2508  0.1477 -0.1286
19086TIP3    H178673   3.301   4.400  16.712  0.7324 -0.3312 -0.2101
19086TIP3    H278674   3.321   4.493  16.595 -3.2558  1.2427  0.2271
19087TIP3   OH278675   6.282   1.971  11.481 -0.0386 -0.7507  0.1761
19087TIP3    H178676   6.258   1.885  11.515  0.3727  0.0374  2.6039
19087TIP3    H278677   6.378   1.970  11.476 -0.0495 -0.5505 -0.1103
19088TIP3   OH278678   0.447   5.825   5.786  0.4764  0.4355  0.5057
19088TIP3    H178679   0.435   5.916   5.758 -0.2169  0.0303 -0.5808
19088TIP3    H278680   0.438   5.774   5.706  2.7676 -0.4773  0.7754
19089TIP3   OH278681   4.174   2.102  14.117  0.0864  0.0865 -0.0690
19089TIP3    H178682   4.103   2.040  14.134  0.2533 -0.9788 -2.7852
19089TIP3    H278683   4.238   2.086  14.187 -0.6518 -1.5591  0.2604
19090TIP3   OH278684   0.454   4.212   6.412  0.4597 -0.2208  0.3882
19090TIP3    H178685   0.403   4.258   6.479 -0.9022 -0.3280 -0.5288
19090TIP3    H278686   0.505   4.281   6.369 -0.0796  0.1304  0.3097
19091TIP3   OH278687   3.114   0.432   4.539  0.0027 -0.0691 -0.1156
19091TIP3    H178688   3.035   0.454   4.490  0.7116  0.5560 -1.0119
19091TIP3    H278689   3.173   0.506   4.525  1.1018 -0.9352 -0.2327
19092TIP3   OH278690   2.522   3.303  15.294 -0.4060  0.0456 -0.3647
19092TIP3    H178691   2.456   3.246  15.256 -1.0204  0.5666 -0.0904
19092TIP3    H278692   2.488   3.391  15.282  1.2032  0.5153 -2.1358
19093TIP3   OH278693   5.184   6.226   4.364  0.2809 -0.0768  0.4275
19093TIP3    H178694   5.123   6.293   4.335 -3.6469 -2.7211  1.7987
19093TIP3    H278695   5.180   6.230   4.460 -0.6893 -2.6134  0.5774
19094TIP3   OH278696   3.197   1.826  16.420  0.1079  0.3370  0.2253
19094TIP3    H178697   3.145   1.797  16.345 -0.7353 -2.1301  1.6409
19094TIP3    H278698   3.275   1.770  16.418  0.0734  0.2383  1.1760
19095TIP3   OH278699   1.424   4.367   5.842 -0.1065 -0.3419  0.6662
19095TIP3    H178700   1.403   4.318   5.921 -1.1242 -2.6879 -0.9578
19095TIP3    H278701   1.339   4.385   5.801  0.4015  0.7838  0.0592
19096TIP3   OH278702   0.207   3.437  10.800  0.3600  0.3716 -0.4478
19096TIP3    H178703   0.271   3.368  10.783  0.6618  1.0279 -2.2061
19096TIP3    H278704   0.259   3.516  10.814  0.0713  0.1095  2.7483
19097TIP3   OH278705   1.105   4.863  11.466  1.2225 -0.3827 -0.3577
19097TIP3    H178706   1.188   4.825  11.439  2.1206  1.0436  0.2489
19097TIP3    H278707   1.122   4.958  11.469 -0.8290  0.0816 -1.5771
19098TIP3   OH278708   6.442   6.186  12.464 -0.1273  0.0615  0.1139
19098TIP3    H178709   6.363   6.142  12.496 -1.1617  1.3197 -0.5985
19098TIP3    H278710   6.423   6.206  12.373 -0.0254  2.5885  0.5737
19099TIP3   OH278711   1.859   1.322   3.069  0.7414  0.0437 -0.1017
19099TIP3    H178712   1.943   1.347   3.029  0.6891  1.5505  0.6641
19099TIP3    H278713   1.796   1.385   3.035  0.3422  0.2326  0.9502
19100TIP3   OH278714   3.361   2.089   3.417 -0.7699 -0.3083  0.5939
19100TIP3    H178715   3.320   2.148   3.354  0.8741  0.3317  0.0598
19100TIP3    H278716   3.342   2.128   3.502 -1.3635 -0.1066  0.3740
19101TIP3   OH278717   0.054   2.911  14.350  0.1849  0.0718  0.0252
19101TIP3    H178718   0.078   2.951  14.267 -1.1449  1.0542  0.0762
19101TIP3    H278719   0.034   2.820  14.329  0.6568  0.1080 -0.5825
19102TIP3   OH278720   5.412   6.264   3.326  0.2780 -0.1257  0.4321
19102TIP3    H178721   5.487   6.248   3.268 -1.3121  0.4569 -1.9411
19102TIP3    H278722   5.423   6.200   3.396  1.4130 -2.1962 -1.4635
19103TIP3   OH278723   3.871   5.511  16.390 -0.4484  0.0593 -0.1767
19103TIP3    H178724   3.932   5.567  16.343  0.6334 -1.1561 -0.2658
19103TIP3    H278725   3.839   5.566  16.462 -0.7635  1.3497 -1.2532
19104TIP3   OH278726   1.671   6.301  17.151 -1.0070 -0.1516  1.0235
19104TIP3    H178727   1.713   6.371  17.100  0.1591 -0.1246  1.9951
19104TIP3    H278728   1.610   6.347  17.208 -2.7592 -0.2195 -0.6752
19105TIP3   OH278729   0.674   3.336  13.003  0.4954 -0.4859  0.1776
19105TIP3    H178730   0.637   3.393  12.936  0.9186  0.2285  0.5473
19105TIP3    H278731   0.696   3.255  12.957  0.4664 -0.1255 -0.4714
19106TIP3   OH278732   3.064   5.177  17.017 -0.2288  0.5684  0.4621
19106TIP3    H178733   3.044   5.253  16.962 -1.2441 -0.2523 -0.3279
19106TIP3    H278734   3.159   5.181  17.028  0.1651  0.2939 -2.0986
19107TIP3   OH278735   2.639   3.566   0.169 -0.1569  0.5377 -0.2870
19107TIP3    H178736   2.673   3.478   0.182 -1.6615 -0.1216 -0.5282
19107TIP3    H278737   2.636   3.604   0.257  0.2284  0.2469 -0.1457
19108TIP3   OH278738   5.269   5.611   1.004  0.2768  0.5645  0.2952
19108TIP3    H178739   5.190   5.565   1.033 -0.2456  0.4035 -1.3036
19108TIP3    H278740   5.318   5.546   0.955 -0.3046  1.5648 -1.7135
19109TIP3   OH278741   6.357   6.565  12.838 -0.7088  0.6897 -0.0505
19109TIP3    H178742   6.364   6.503  12.765 -0.5912  0.0204  0.5145
19109TIP3    H278743   6.264   6.589  12.840 -1.0645 -0.6151  0.6259
19110TIP3   OH278744   0.863   0.641  11.924  0.1804 -0.6052  0.1456
19110TIP3    H178745   0.808   0.590  11.984 -0.6167 -1.3041 -1.1164
19110TIP3    H278746   0.939   0.666  11.976 -1.3185  0.4128  1.9713
19111TIP3   OH278747   4.631   2.257  11.683  0.2160 -0.2649 -0.3897
19111TIP3    H178748   4.567   2.187  11.669 -0.3850  0.2356 -0.2138
19111TIP3    H278749   4.692   2.221  11.748  0.6496 -1.0799 -1.2260
19112TIP3   OH278750   2.524   5.035   0.626 -0.7940 -0.2111 -0.1029
19112TIP3    H178751   2.458   5.104   0.618 -0.1802  0.3060 -0.8872
19112TIP3    H278752   2.536   5.002   0.536  1.0217  0.6857 -0.2462
19113TIP3   OH278753   2.436   1.518  14.880 -0.5463 -0.2879 -0.4376
19113TIP3    H178754   2.463   1.438  14.925 -0.5957  0.2135  0.5210
19113TIP3    H278755   2.488   1.520  14.800  0.8140 -0.3440  0.4200
19114TIP3   OH278756   3.187   1.346   5.719 -0.8277 -0.3500  0.3947
19114TIP3    H178757   3.132   1.349   5.797  0.8980 -0.6331  1.6901
19114TIP3    H278758   3.233   1.262   5.726 -1.3262 -0.8351 -1.4577
19115TIP3   OH278759   6.340   3.157   3.485 -0.0320  0.3897  0.2625
19115TIP3    H178760   6.371   3.179   3.573  1.3934 -0.6818  0.0644
19115TIP3    H278761   6.408   3.189   3.426  2.0334 -3.8900 -0.0613
19116TIP3   OH278762   6.062   4.306   1.351 -0.2513  0.0688 -0.3353
19116TIP3    H178763   6.117   4.248   1.298 -1.0972  0.1743 -1.3797
19116TIP3    H278764   6.039   4.377   1.292  1.3877  1.9258  1.1448
19117TIP3   OH278765   2.336   2.861  15.004 -0.2142  0.0288  0.1012
19117TIP3    H178766   2.293   2.918  14.940 -0.6852 -0.3859  0.0409
19117TIP3    H278767   2.265   2.811  15.044  0.2742 -1.3949 -0.7070
19118TIP3   OH278768   5.114   2.802  16.372 -0.6532  0.3847 -0.3821
19118TIP3    H178769   5.056   2.785  16.298 -1.5427  1.9401 -0.0911
19118TIP3    H278770   5.058   2.795  16.449  0.3599 -1.6951  0.2384
19119TIP3   OH278771   4.087   0.706  11.803  0.3915 -0.1622 -0.0838
19119TIP3    H178772   4.072   0.720  11.710  0.2759 -3.2549 -0.6204
19119TIP3    H278773   4.168   0.655  11.808 -0.1647 -0.9664  1.4184
19120TIP3   OH278774   3.021   0.338  16.266 -0.4734  0.0850 -0.1143
19120TIP3    H178775   3.086   0.292  16.213 -1.4086 -0.3938 -0.8673
19120TIP3    H278776   3.019   0.289  16.349 -1.0846 -0.9508 -0.7190
19121TIP3   OH278777   4.189   5.112  17.270 -0.0331 -0.4512  0.0229
19121TIP3    H178778   4.177   5.126  17.176  1.2391 -0.3067 -0.1418
19121TIP3    H278779   4.159   5.023  17.285  0.4759 -0.7466 -0.6704
19122TIP3   OH278780   3.372   6.110   6.308 -0.7430 -0.1202 -0.1325
19122TIP3    H178781   3.468   6.115   6.316 -0.4515 -1.0825 -2.2404
19122TIP3    H278782   3.356   6.020   6.278 -2.5470 -0.7490  2.4253
19123TIP3   OH278783   3.816   1.234  11.850 -0.3241  0.0828 -0.0158
19123TIP3    H178784   3.803   1.169  11.920 -0.2892 -1.0929 -1.0634
19123TIP3    H278785   3.727   1.257  11.822 -0.3280 -0.6065 -0.6010
19124TIP3   OH278786   6.261   5.353  10.608  0.6901  0.3514  0.0878
19124TIP3    H178787   6.229   5.436  10.571 -2.1870 -0.2816  0.9297
19124TIP3    H278788   6.235   5.356  10.700  2.9213 -0.4177  0.8201
19125TIP3   OH278789   5.907   1.514  16.622 -0.9126  0.1002 -0.3542
19125TIP3    H178790   5.922   1.444  16.685 -1.1059 -0.9296 -1.4341
19125TIP3    H278791   5.991   1.560  16.617 -1.0053  0.4646  0.9431
19126TIP3   OH278792   1.173   1.322   4.037  0.1668  0.3354 -0.0938
19126TIP3    H178793   1.184   1.231   4.066 -1.4410  0.6575  1.7785
19126TIP3    H278794   1.126   1.316   3.955  2.5348 -0.5513 -1.4977
19127TIP3   OH278795   6.675   3.631   3.895  0.3584 -1.1407 -0.4077
19127TIP3    H178796   6.637   3.584   3.970  0.1207 -0.1429  0.1105
19127TIP3    H278797   6.616   3.704   3.880  2.0071  0.4216  0.3820
19128TIP3   OH278798   6.102   6.686  12.732 -0.3873 -0.7068  0.6235
19128TIP3    H178799   6.133   6.696  12.642  0.1584 -2.4212  0.5809
19128TIP3    H278800   6.011   6.657  12.723 -0.4713 -0.4405  0.6268
19129TIP3   OH278801   3.106   0.551  13.409  0.2597  0.4927  0.1947
19129TIP3    H178802   3.106   0.504  13.325 -1.1627  1.0920 -0.1672
19129TIP3    H278803   3.088   0.642  13.386  0.3771  0.7616  1.1200
19130TIP3   OH278804   3.540   4.327   6.375  0.5582  0.3790 -0.3562
19130TIP3    H178805   3.512   4.237   6.388 -0.3498  0.7844  0.7110
19130TIP3    H278806   3.536   4.340   6.281 -0.7076 -0.2759 -0.4118
19131TIP3   OH278807   6.520   2.358   4.424 -0.0200 -0.2295 -0.2051
19131TIP3    H178808   6.493   2.410   4.348  0.6333 -1.3420 -1.2369
19131TIP3    H278809   6.613   2.344   4.412 -0.1435 -1.4789  0.1326
19132TIP3   OH278810   6.226   2.370   3.573  0.2210  0.8974 -0.1059
19132TIP3    H178811   6.226   2.420   3.492  1.6741 -0.0997 -0.7663
19132TIP3    H278812   6.319   2.358   3.594 -0.0673 -1.1465  0.2241
19133TIP3   OH278813   5.503   2.222  11.735 -0.1407  0.3380 -0.0393
19133TIP3    H178814   5.535   2.147  11.685 -2.0311  1.6637 -3.5450
19133TIP3    H278815   5.572   2.288  11.726  0.5078 -0.1549  1.1051
19134TIP3   OH278816   2.568   6.234   6.177  0.1359 -0.2525  0.1162
19134TIP3    H178817   2.661   6.225   6.201  0.0221 -0.5960  0.4345
19134TIP3    H278818   2.570   6.253   6.083  0.5620  0.7185  0.3082
19135TIP3   OH278819   0.125   2.022   3.601 -0.3482  0.3731 -0.3278
19135TIP3    H178820   0.169   1.960   3.659 -3.8570 -0.7082  1.4506
19135TIP3    H278821   0.193   2.048   3.539  2.1188 -2.9018  0.6789
19136TIP3   OH278822   5.567   3.216   0.075  0.1379  0.0091  0.2110
19136TIP3    H178823   5.620   3.291   0.049  1.0588 -0.8271 -0.4053
19136TIP3    H278824   5.625   3.165   0.132  1.0630 -2.2828 -2.5344
19137TIP3   OH278825   5.980   3.722   1.490 -0.1324  0.0459  0.1039
19137TIP3    H178826   5.907   3.661   1.497  0.5889 -0.9412 -0.6891
19137TIP3    H278827   5.939   3.809   1.484 -1.2264 -0.4827 -0.2634
19138TIP3   OH278828   6.502   3.738  14.281 -0.1871 -0.0431  0.0321
19138TIP3    H178829   6.553   3.796  14.224 -0.0871 -1.1676 -1.0514
19138TIP3    H278830   6.431   3.705  14.225 -0.4994 -0.6297  0.7542
19139TIP3   OH278831   3.694   5.519  11.817  0.0119 -0.2751  0.0270
19139TIP3    H178832   3.622   5.531  11.755 -1.2777  1.5540  1.7324
19139TIP3    H278833   3.772   5.547  11.769 -0.5069 -1.4963 -1.5895
19140TIP3   OH278834   4.150   1.418   4.068  0.4417 -0.1202  0.1623
19140TIP3    H178835   4.090   1.478   4.112  2.0134  1.7731 -0.1705
19140TIP3    H278836   4.127   1.332   4.103 -1.1655  0.7815  1.4704
19141TIP3   OH278837   4.977   6.507   1.944 -0.1916  0.0933 -0.3643
19141TIP3    H178838   4.977   6.598   1.976 -0.2874 -0.4681  1.3384
19141TIP3    H278839   5.003   6.455   2.020 -0.3938 -1.3390 -1.2404
19142TIP3   OH278840   1.987   6.285  12.499  0.0878 -0.0293 -0.3867
19142TIP3    H178841   1.952   6.199  12.476 -1.0805 -0.2677  1.9710
19142TIP3    H278842   2.060   6.267  12.557  0.6940  0.5843 -0.9303
19143TIP3   OH278843   6.212   6.141   0.348 -0.8884 -0.4109  0.3766
19143TIP3    H178844   6.257   6.083   0.287  0.4326  0.6920  0.2341
19143TIP3    H278845   6.122   6.108   0.352 -1.2767 -0.1034 -2.7761
19144TIP3   OH278846   3.476   4.886   5.616  0.6685 -0.8666 -0.4211
19144TIP3    H178847   3.393   4.851   5.584 -1.1631  2.3754  0.3494
19144TIP3    H278848   3.523   4.913   5.538  1.6349 -3.7354 -0.9467
19145TIP3   OH278849   2.828   3.746   1.057  0.0070  0.1339 -0.1667
19145TIP3    H178850   2.890   3.705   1.117 -0.4934 -1.1878 -0.5195
19145TIP3    H278851   2.818   3.683   0.986  0.3758  1.5412 -1.5300
19146TIP3   OH278852   0.340   0.359  14.509  0.1535 -0.1260 -0.1080
19146TIP3    H178853   0.274   0.307  14.464 -1.3616 -0.3724  2.2120
19146TIP3    H278854   0.361   0.430  14.448 -0.3329 -1.4748 -1.9170
19147TIP3   OH278855   6.533   6.040   0.414 -0.2045  0.1828  0.0283
19147TIP3    H178856   6.454   6.073   0.456 -0.8077 -0.7272 -0.3645
19147TIP3    H278857   6.548   5.955   0.455  1.5690  1.0516  1.3347
19148TIP3   OH278858   1.648   2.559  14.125 -0.8459 -0.6580 -0.0021
19148TIP3    H178859   1.740   2.581  14.109 -0.9239 -1.3836 -1.7346
19148TIP3    H278860   1.651   2.490  14.191 -0.0755 -1.2839 -0.6702
19149TIP3   OH278861   4.341   0.183  11.685  0.5766  0.1309  0.0966
19149TIP3    H178862   4.307   0.190  11.774  1.2075 -1.5628  0.5195
19149TIP3    H278863   4.280   0.234  11.631  0.2811  1.3153  1.5023
19150TIP3   OH278864   0.144   1.313   6.641 -0.1169  0.4651  0.1262
19150TIP3    H178865   0.197   1.279   6.713  0.1442  0.9293  0.1583
19150TIP3    H278866   0.057   1.276   6.656  0.5123 -1.4694 -0.7291
19151TIP3   OH278867   0.473   5.454   6.096 -0.2898  0.2032 -0.2321
19151TIP3    H178868   0.456   5.466   6.190 -3.6545 -0.7211 -0.6024
19151TIP3    H278869   0.498   5.362   6.087  0.3057  0.3607 -0.2361
19152TIP3   OH278870   1.593   4.419   4.630  0.6265  0.1784  0.0544
19152TIP3    H178871   1.497   4.425   4.636  0.6036 -0.1006 -0.0346
19152TIP3    H278872   1.624   4.507   4.654  0.2641  0.8780 -1.8185
19153TIP3   OH278873   3.223   2.842   0.646 -0.4913  0.3310 -0.0348
19153TIP3    H178874   3.183   2.824   0.561 -1.4272 -1.2395  0.7046
19153TIP3    H278875   3.149   2.852   0.705  0.1629 -0.2255  0.8988
19154TIP3   OH278876   6.245   2.036  15.056 -0.0201 -0.2901 -0.0650
19154TIP3    H178877   6.299   2.095  15.109 -0.3155  0.9270 -1.0618
19154TIP3    H278878   6.155   2.060  15.077 -0.1506 -0.8226 -0.0135
19155TIP3   OH278879   4.307   5.804   2.364 -0.2200 -1.1330  0.0808
19155TIP3    H178880   4.394   5.767   2.344 -0.4797 -1.8756  0.2786
19155TIP3    H278881   4.273   5.747   2.434  0.1296  0.5884  1.7452
19156TIP3   OH278882   6.581   3.733   3.509  0.2916 -0.3355  0.0267
19156TIP3    H178883   6.634   3.677   3.453 -0.1746  0.0161 -0.7846
19156TIP3    H278884   6.601   3.822   3.479 -2.1006 -0.2420 -1.5806
19157TIP3   OH278885   5.377   5.684  11.816  0.2771 -0.3481  0.1207
19157TIP3    H178886   5.309   5.704  11.751  0.1018 -0.2553  0.3359
19157TIP3    H278887   5.451   5.652  11.763 -1.2698 -4.4202  0.0280
19158TIP3   OH278888   5.180   3.159   5.733  0.0498  0.2649 -0.0118
19158TIP3    H178889   5.239   3.191   5.801  0.0556  1.1599 -0.4342
19158TIP3    H278890   5.162   3.235   5.678  0.0989 -0.4616 -1.0567
19159TIP3   OH278891   5.106   0.411  11.327  0.1233  0.3492  0.6015
19159TIP3    H178892   5.032   0.357  11.356  0.3526  0.1777  0.8778
19159TIP3    H278893   5.151   0.356  11.262 -0.0743  0.5116  0.3264
19160TIP3   OH278894   6.105   4.531  15.098  0.0551  0.2609  0.0683
19160TIP3    H178895   6.059   4.598  15.148  0.0764 -0.8823  1.7007
19160TIP3    H278896   6.065   4.534  15.012 -1.5753  0.7812  0.7938
19161TIP3   OH278897   0.104   0.928   6.452  0.2289  0.0114  0.4110
19161TIP3    H178898   0.088   0.840   6.486  1.3117  0.1278  1.2742
19161TIP3    H278899   0.198   0.941   6.463  0.1928  1.0250 -0.3425
19162TIP3   OH278900   5.869   3.146  14.421  0.3384  0.5370 -0.8499
19162TIP3    H178901   5.807   3.177  14.356  0.4615  2.1203 -0.2541
19162TIP3    H278902   5.872   3.051  14.408 -1.2665  0.5683 -1.6868
19163TIP3   OH278903   3.780   1.045  14.361  0.5114  0.0812  0.3347
19163TIP3    H178904   3.706   1.041  14.423 -0.0797  2.2095 -0.1423
19163TIP3    H278905   3.742   1.021  14.277  0.3778  0.9276  0.1373
19164TIP3   OH278906   4.063   4.949   3.191 -0.6128  0.1825 -0.7444
19164TIP3    H178907   4.131   4.921   3.130 -0.7496 -1.5881 -0.1477
19164TIP3    H278908   4.097   5.028   3.231  1.2770 -0.8412 -0.2129
19165TIP3   OH278909   1.563   2.316   4.338 -0.0098 -0.3092 -0.3137
19165TIP3    H178910   1.487   2.374   4.345  0.7473  0.6513  0.2564
19165TIP3    H278911   1.525   2.230   4.321 -1.1196  0.5185 -2.4101
19166TIP3   OH278912   4.114   1.654   2.194  0.1475 -0.8833  0.3212
19166TIP3    H178913   4.112   1.686   2.284 -0.1028 -1.3099  0.4731
19166TIP3    H278914   4.207   1.657   2.170  0.2482 -0.9962  0.6813
19167TIP3   OH278915   5.673   4.661  11.691 -0.3811 -0.3585  0.0946
19167TIP3    H178916   5.695   4.583  11.741  1.4785 -1.3236 -2.0522
19167TIP3    H278917   5.748   4.719  11.701  0.0159 -0.5536 -1.4424
19168TIP3   OH278918   1.673   2.880  16.071  0.5751 -0.2556  0.3513
19168TIP3    H178919   1.747   2.831  16.037  0.4244 -1.3317  1.5111
19168TIP3    H278920   1.656   2.947  16.005  1.5262 -1.0307 -0.7127
19169TIP3   OH278921   5.483   1.036   5.555 -0.0739 -0.0655  0.3697
19169TIP3    H178922   5.553   1.102   5.549 -1.2009  1.0846 -1.1351
19169TIP3    H278923   5.520   0.958   5.514  0.8434 -0.0038  1.0290
19170TIP3   OH278924   4.172   5.976   5.142 -0.4725 -0.1757 -0.0267
19170TIP3    H178925   4.084   6.001   5.173 -0.6258  0.0260 -0.6132
19170TIP3    H278926   4.209   5.927   5.215 -0.4996  1.0027  0.8189
19171TIP3   OH278927   6.192   6.340  14.518 -0.0638 -0.4152 -0.1628
19171TIP3    H178928   6.144   6.396  14.457  0.3518 -1.4169 -1.4442
19171TIP3    H278929   6.281   6.375  14.518 -0.4016  0.5375  1.0980
19172TIP3   OH278930   5.298   2.758   5.099  0.4650  0.1268  0.4053
19172TIP3    H178931   5.355   2.816   5.148  0.7649  1.3279 -1.2891
19172TIP3    H278932   5.261   2.699   5.165 -1.0420  3.1480  2.4928
19173TIP3   OH278933   2.581   4.737  13.442  0.2734  0.0977  0.2941
19173TIP3    H178934   2.512   4.770  13.500 -0.4294 -0.3595 -0.2685
19173TIP3    H278935   2.582   4.643  13.458  0.5288  0.0582  0.0409
19174TIP3   OH278936   2.167   1.599  12.598  0.2640  0.0450  0.6914
19174TIP3    H178937   2.147   1.505  12.606 -0.5539 -0.1417 -2.2842
19174TIP3    H278938   2.083   1.642  12.611 -0.0381  0.0771 -1.1855
19175TIP3   OH278939   6.373   1.929   3.834 -0.5243 -0.1452  0.1658
19175TIP3    H178940   6.442   1.884   3.785 -1.8898 -0.7103 -1.3344
19175TIP3    H278941   6.419   1.998   3.883  1.2090 -1.1494  0.0478
19176TIP3   OH278942   3.991   0.017  16.832  0.4650  0.5385 -0.4731
19176TIP3    H178943   4.057   0.061  16.779  1.9530  1.2415  1.7801
19176TIP3    H278944   3.950   0.087  16.883  1.9453 -0.3790  2.1896
19177TIP3   OH278945   6.706   5.855   5.870 -0.7620 -0.1198 -0.1061
19177TIP3    H178946   6.612   5.839   5.878 -0.6534 -1.0332 -0.4941
19177TIP3    H278947   6.746   5.784   5.919 -0.2682  1.5342  2.0189
19178TIP3   OH278948   4.466   5.342  14.473  0.2397 -0.0438  0.6050
19178TIP3    H178949   4.476   5.264  14.528  0.4056  0.5932  1.4755
19178TIP3    H278950   4.521   5.408  14.514 -0.7112  0.8557  0.4617
19179TIP3   OH278951   4.954   2.809   4.972 -0.4788 -0.6311  0.2609
19179TIP3    H178952   4.980   2.886   5.021 -2.6713 -1.5495  3.1509
19179TIP3    H278953   4.875   2.836   4.924 -1.6889 -1.1697  1.8626
19180TIP3   OH278954   1.437   6.692  15.385 -0.1191  0.3633 -0.5840
19180TIP3    H178955   1.391   6.632  15.443  0.5640 -0.8919 -1.2990
19180TIP3    H278956   1.503   6.638  15.342 -0.8114  1.1653 -2.7864
19181TIP3   OH278957   5.202   6.044   1.340 -0.1713  0.0311 -0.0127
19181TIP3    H178958   5.193   6.048   1.436 -1.1631 -1.1222 -0.0249
19181TIP3    H278959   5.138   6.107   1.307 -1.0445 -0.7736  0.0830
19182TIP3   OH278960   0.889   5.455   4.543 -0.8479  0.5479  0.3734
19182TIP3    H178961   0.949   5.470   4.617 -1.3083 -0.5184  0.9946
19182TIP3    H278962   0.802   5.466   4.581 -1.0641  1.1111 -0.2883
19183TIP3   OH278963   0.841   3.292  13.235 -0.0459  0.2823 -0.1177
19183TIP3    H178964   0.787   3.306  13.313  1.5493 -0.6695  1.2394
19183TIP3    H278965   0.780   3.293  13.162 -1.9403 -0.9998  1.3523
19184TIP3   OH278966   4.102   2.567  13.214 -0.8457  0.6795  0.0498
19184TIP3    H178967   4.066   2.479  13.212 -0.3258  0.4811 -0.8717
19184TIP3    H278968   4.177   2.565  13.154 -0.8405  1.7482 -0.0105
19185TIP3   OH278969   2.527   1.385  14.024 -0.1497  0.0315  0.0865
19185TIP3    H178970   2.603   1.410  14.077 -0.7817  0.7612  0.6697
19185TIP3    H278971   2.562   1.375  13.935  0.9307 -1.2403  0.6178
19186TIP3   OH278972   2.149   5.974   5.441 -0.0664 -0.0559 -0.1627
19186TIP3    H178973   2.177   5.884   5.421  0.9132  0.0581  0.6450
19186TIP3    H278974   2.230   6.023   5.450 -0.4682  0.3072  2.1971
19187TIP3   OH278975   5.347   1.876  12.273  0.3721  0.6253 -0.1869
19187TIP3    H178976   5.277   1.818  12.243  0.8789  0.4967 -1.1483
19187TIP3    H278977   5.349   1.864  12.368 -2.4175  2.3223  0.1892
19188TIP3   OH278978   3.959   4.852  11.415  0.3242  0.3422 -0.6210
19188TIP3    H178979   4.043   4.846  11.370 -0.3935 -0.1135 -1.9487
19188TIP3    H278980   3.895   4.819  11.352 -0.4638 -2.8731  1.6105
19189TIP3   OH278981   5.439   1.359  14.402  0.0938  0.2496 -0.1027
19189TIP3    H178982   5.504   1.428  14.399  0.3714 -0.0283 -0.7502
19189TIP3    H278983   5.359   1.399  14.368  0.4952  0.0123 -1.3741
19190TIP3   OH278984   2.026   4.086  15.921 -0.0490  0.9662  0.7379
19190TIP3    H178985   1.931   4.086  15.931 -0.2223  0.5249 -0.6148
19190TIP3    H278986   2.057   4.151  15.983 -1.1179  0.1983  2.1298
19191TIP3   OH278987   0.682   4.079  16.450  0.6366  0.2999 -0.0821
19191TIP3    H178988   0.763   4.028  16.439  0.5445  0.1488 -0.0717
19191TIP3    H278989   0.625   4.022  16.502 -0.2605 -0.5100 -1.8240
19192TIP3   OH278990   4.204   6.226   3.613  0.1815  0.4921  0.1259
19192TIP3    H178991   4.154   6.153   3.578  0.1204  0.0263  1.1378
19192TIP3    H278992   4.223   6.281   3.537  2.2807 -1.7436 -1.1219
19193TIP3   OH278993   0.179   5.160   5.783  0.1949  0.1110 -0.3647
19193TIP3    H178994   0.120   5.234   5.786  0.6288  0.4842 -0.7563
19193TIP3    H278995   0.246   5.185   5.719  1.5271  0.2612  1.0383
19194TIP3   OH278996   1.878   2.461   5.664  0.0544  0.1270  0.1904
19194TIP3    H178997   1.928   2.437   5.742 -0.9559  0.2035  0.8795
19194TIP3    H278998   1.919   2.543   5.635  0.5330  0.0251  0.5492
19195TIP3   OH278999   5.656   2.435  16.263  0.0324 -0.1511  0.6252
19195TIP3    H179000   5.693   2.350  16.286 -0.7748 -0.7510 -0.1875
19195TIP3    H279001   5.669   2.490  16.340 -0.3339 -1.3180  1.5347
19196TIP3   OH279002   5.699   3.999   2.436 -0.1891 -0.2867  0.0434
19196TIP3    H179003   5.793   4.015   2.426 -0.1407  0.0424  0.9295
19196TIP3    H279004   5.668   3.981   2.347  0.6892 -0.2957 -0.2737
19197TIP3   OH279005   2.708   5.341   3.293  0.2143 -0.5253  0.1459
19197TIP3    H179006   2.796   5.336   3.330  1.1910  1.3880 -1.6840
19197TIP3    H279007   2.668   5.417   3.334  0.0105 -0.4451 -0.1966
19198TIP3   OH279008   5.538   2.162   5.518  0.3280  0.5690  0.1100
19198TIP3    H179009   5.471   2.189   5.580  0.8495  0.5848  0.6842
19198TIP3    H279010   5.536   2.066   5.521  0.6654  0.5698  0.5099
19199TIP3   OH279011   2.025   1.400  13.406  0.3815  0.1583 -0.1464
19199TIP3    H179012   1.992   1.426  13.320 -0.6059  1.8487  0.6890
19199TIP3    H279013   2.004   1.307  13.413 -0.4081  0.2341 -1.3324
19200TIP3   OH279014   0.735   0.473  14.423 -0.0482  0.2396 -0.3529
19200TIP3    H179015   0.764   0.391  14.382 -1.1134  0.5759 -1.8506
19200TIP3    H279016   0.687   0.518  14.354  0.5331  2.1562  0.4421
19201TIP3   OH279017   3.474   2.902  10.644 -0.4752 -0.0867 -0.2666
19201TIP3    H179018   3.388   2.944  10.649 -0.5455 -0.1896 -0.5701
19201TIP3    H279019   3.492   2.875  10.734 -1.3628 -1.2423 -0.4108
19202TIP3   OH279020   6.652   0.082   2.291  0.3362 -0.5343 -0.1344
19202TIP3    H179021   6.655   0.089   2.195  0.4925  0.8723 -0.0392
19202TIP3    H279022   6.735   0.119   2.320 -0.1899  0.0840  0.6024
19203TIP3   OH279023   1.958   4.732  11.668  0.2212 -0.8071  0.1386
19203TIP3    H179024   2.008   4.718  11.748 -0.5494  0.7893  0.9465
19203TIP3    H279025   1.887   4.790  11.694 -1.6219 -2.3691 -1.1406
19204TIP3   OH279026   0.670   0.301   5.496  0.1699 -0.2542 -0.1741
19204TIP3    H179027   0.703   0.310   5.407 -0.4040 -0.3868 -0.4027
19204TIP3    H279028   0.695   0.213   5.523 -2.0805 -1.2956 -1.2379
19205TIP3   OH279029   5.117   5.652  15.518 -0.2701 -0.1665  0.3218
19205TIP3    H179030   5.135   5.559  15.532 -0.9525 -0.4113 -0.3407
19205TIP3    H279031   5.048   5.653  15.452  2.6290  0.8512 -3.0198
19206TIP3   OH279032   2.829   4.467   4.020 -0.3941  0.4122  0.0892
19206TIP3    H179033   2.768   4.448   3.949  0.5303  0.4230 -0.7374
19206TIP3    H279034   2.774   4.500   4.091 -1.2802  1.0309 -0.8526
19207TIP3   OH279035   2.283   6.052  16.270  0.1463  0.1612  0.3390
19207TIP3    H179036   2.369   6.015  16.249 -0.3074 -1.4672  1.1383
19207TIP3    H279037   2.252   6.090  16.188  0.5478 -1.5327 -0.6461
19208TIP3   OH279038   3.140   3.432  14.690  0.0152 -0.6031 -0.1563
19208TIP3    H179039   3.096   3.471  14.766 -1.1406 -1.0979 -0.5388
19208TIP3    H279040   3.095   3.349  14.677  0.9011 -1.0066 -0.7548
19209TIP3   OH279041   1.971   6.380   4.295  0.2831  0.1963  0.6097
19209TIP3    H179042   1.960   6.395   4.389 -0.0181 -0.7092  0.7260
19209TIP3    H279043   2.043   6.318   4.288  0.0711 -0.0143  0.2553
19210TIP3   OH279044   5.205   0.022   4.433  0.4313 -0.1884 -0.3146
19210TIP3    H179045   5.170  -0.045   4.491  1.2928 -2.3259 -2.1204
19210TIP3    H279046   5.139   0.033   4.365  0.3878  0.6941 -0.1507
19211TIP3   OH279047   0.172   2.518   4.004  0.2384  0.1353  0.4197
19211TIP3    H179048   0.095   2.463   3.989 -0.0273  0.9696 -1.6669
19211TIP3    H279049   0.244   2.469   3.964  0.1469  0.8411 -0.6763
19212TIP3   OH279050   1.037   3.068  14.338 -0.0987 -0.3131  0.3913
19212TIP3    H179051   1.110   3.126  14.317  0.9174 -1.0130  1.8048
19212TIP3    H279052   1.078   2.986  14.366 -1.2624  0.0595  3.6222
19213TIP3   OH279053   4.905   1.752  16.287  0.0882  0.3323 -0.3650
19213TIP3    H179054   4.979   1.742  16.228 -0.0167 -0.2668 -0.4057
19213TIP3    H279055   4.888   1.664  16.319 -1.1717  0.2969 -1.0526
19214TIP3   OH279056   2.656   6.691  13.921  0.2762 -0.0037  0.2222
19214TIP3    H179057   2.744   6.708  13.954  0.2939 -0.1375  0.2472
19214TIP3    H279058   2.638   6.600  13.947  0.0894  0.0581  0.3114
19215TIP3   OH279059   3.536   4.916   0.454  0.9576 -0.2656  0.0296
19215TIP3    H179060   3.529   4.835   0.403  0.9124  1.0992 -2.2568
19215TIP3    H279061   3.489   4.897   0.535  0.7292 -2.4304 -0.5331
19216TIP3   OH279062   3.199   3.361  11.848 -0.3368  0.2026  0.4245
19216TIP3    H179063   3.118   3.338  11.801 -0.5014 -0.8035  1.1628
19216TIP3    H279064   3.261   3.385  11.778 -0.5871 -1.2219 -0.3382
19217TIP3   OH279065   3.315   4.455  15.938  0.3138 -0.1873 -0.3215
19217TIP3    H179066   3.355   4.459  15.851  0.4024 -1.2775 -0.3507
19217TIP3    H279067   3.225   4.484  15.924  0.2627 -0.5657 -0.8323
19218TIP3   OH279068   3.582   0.697   4.939 -1.0970 -0.1717  0.1256
19218TIP3    H179069   3.590   0.789   4.962 -1.3850 -0.1728  0.2367
19218TIP3    H279070   3.527   0.697   4.860 -0.8674 -0.2281 -0.0334
19219TIP3   OH279071   0.588   3.141  17.409 -0.1467 -0.2932 -0.1455
19219TIP3    H179072   0.623   3.149  17.497  0.0108  1.0008 -0.3051
19219TIP3    H279073   0.660   3.169  17.352 -0.1301 -1.4365 -0.7184
19220TIP3   OH279074   3.581   2.894  17.117  0.3977  0.6144 -0.0517
19220TIP3    H179075   3.526   2.973  17.111  1.6488  1.7541  2.0043
19220TIP3    H279076   3.671   2.927  17.113  0.9569 -0.6592  1.1474
19221TIP3   OH279077   6.061   3.162  15.073  0.2448  0.1699 -0.2001
19221TIP3    H179078   6.015   3.141  14.991  0.9592  1.8234 -1.0766
19221TIP3    H279079   6.147   3.121  15.063  0.3319  0.3717 -0.2821
19222TIP3   OH279080   0.929   0.301  12.190 -0.5765 -0.8471  0.0518
19222TIP3    H179081   1.021   0.279  12.175 -0.8460 -0.9297 -1.6864
19222TIP3    H279082   0.890   0.303  12.102 -2.3472 -1.2875  0.7815
19223TIP3   OH279083   4.395   2.585   5.287  0.3873  0.1357  0.1169
19223TIP3    H179084   4.429   2.617   5.204  0.2980 -0.2102 -0.0542
19223TIP3    H279085   4.358   2.662   5.330  0.5744  0.3416 -0.0962
19224TIP3   OH279086   2.339   2.447   0.645  0.5453 -0.3488  0.5950
19224TIP3    H179087   2.277   2.427   0.716 -1.5969 -1.4546 -1.4314
19224TIP3    H279088   2.387   2.366   0.631  0.1048 -0.5129  0.0079
19225TIP3   OH279089   4.502   6.532  16.815 -0.1087 -0.4106  0.2321
19225TIP3    H179090   4.521   6.526  16.722  0.2602 -2.6775  0.3850
19225TIP3    H279091   4.585   6.560  16.855 -0.2129  0.3679 -0.0852
19226TIP3   OH279092   3.778   1.083   0.104  0.0338 -0.1625  0.2889
19226TIP3    H179093   3.735   1.022   0.044  0.6255 -0.2284 -0.0774
19226TIP3    H279094   3.789   1.033   0.185  0.1691 -0.4182  0.1147
19227TIP3   OH279095   2.806   2.832   1.682 -0.0289  0.1491 -0.3896
19227TIP3    H179096   2.783   2.817   1.774 -0.1913 -1.2980 -0.6435
19227TIP3    H279097   2.832   2.746   1.649  0.2224  0.6823 -1.6520
19228TIP3   OH279098   1.395   3.090  17.039 -0.2638  0.3981  0.0974
19228TIP3    H179099   1.479   3.121  17.005  0.4498  0.6335  1.9451
19228TIP3    H279100   1.340   3.080  16.961  1.5990 -0.2130 -1.2173
19229TIP3   OH279101   3.147   3.470  13.697  0.1283 -0.4782  0.5330
19229TIP3    H179102   3.098   3.550  13.677 -1.8796 -1.3581  1.6884
19229TIP3    H279103   3.134   3.456  13.790  1.9762 -1.2064  0.7190
19230TIP3   OH279104   0.582   3.968   0.461  0.3933  0.1664  0.1561
19230TIP3    H179105   0.534   3.886   0.460  1.4039 -0.4643 -1.7666
19230TIP3    H279106   0.575   3.999   0.551 -1.4750 -1.1256  0.5075
19231TIP3   OH279107   1.522   4.238   0.370 -0.3863  0.2968 -0.0760
19231TIP3    H179108   1.521   4.290   0.289  0.1934  1.6710  0.7532
19231TIP3    H279109   1.615   4.224   0.388 -0.4829  0.6209  0.7120
19232TIP3   OH279110   4.483   4.793  15.574  0.1446  0.1706 -0.5044
19232TIP3    H179111   4.552   4.729  15.557 -0.9758 -1.0353 -0.6141
19232TIP3    H279112   4.403   4.752  15.540 -0.7796  1.1585  0.4197
19233TIP3   OH279113   3.298   3.936   1.574 -0.7323 -0.1138  0.2951
19233TIP3    H179114   3.331   3.851   1.601 -0.8293 -1.0511 -2.2961
19233TIP3    H279115   3.210   3.941   1.612 -0.9413 -1.4400  0.0232
19234TIP3   OH279116   5.140   4.543   4.826  0.1869 -0.2653 -0.3488
19234TIP3    H179117   5.078   4.480   4.789 -0.0100 -0.4701  0.3082
19234TIP3    H279118   5.226   4.508   4.804  0.0736  0.2513 -1.6485
19235TIP3   OH279119   4.990   1.160   3.497  0.4126  0.1616  0.0300
19235TIP3    H179120   4.913   1.172   3.553  0.2964  0.6630 -0.2336
19235TIP3    H279121   5.039   1.089   3.538  0.9425  1.2963  1.4375
19236TIP3   OH279122   3.409   5.475  11.660 -0.3345 -0.1615  0.0174
19236TIP3    H179123   3.485   5.507  11.611 -0.9827  1.6871  0.1401
19236TIP3    H279124   3.342   5.463  11.594 -0.8918  1.3302  0.2792
19237TIP3   OH279125   5.915   4.194  14.016  0.3857 -0.2996  0.8489
19237TIP3    H179126   5.890   4.106  14.042 -0.7657 -0.8473 -1.8605
19237TIP3    H279127   5.951   4.185  13.928  1.5802  1.7769  1.0366
19238TIP3   OH279128   5.491   3.700   1.656 -0.0508  0.7166 -0.1791
19238TIP3    H179129   5.464   3.667   1.570  0.7742  2.0298 -0.9633
19238TIP3    H279130   5.460   3.790   1.658 -0.7994  0.4609  1.2682
19239TIP3   OH279131   1.989   4.489  13.784 -0.6072  0.4909  0.3820
19239TIP3    H179132   2.067   4.514  13.735 -0.3065  1.2249  1.2193
19239TIP3    H279133   2.022   4.455  13.867 -1.1910  1.3930  1.0012
19240TIP3   OH279134   5.066   5.920  16.503 -0.1945 -0.1227  0.6303
19240TIP3    H179135   5.126   5.994  16.517 -0.0269  0.0433 -0.8440
19240TIP3    H279136   4.980   5.961  16.492 -0.0962 -0.1362 -0.2188
19241TIP3   OH279137   6.747   5.609  15.427  0.2659  0.0973  0.1128
19241TIP3    H179138   6.713   5.593  15.515 -1.0609  1.3276 -0.1349
19241TIP3    H279139   6.802   5.533  15.408  1.4004  0.2691  2.3815
19242TIP3   OH279140   2.836   1.210  15.261 -0.2722  0.1416  0.1066
19242TIP3    H179141   2.833   1.305  15.270  0.4439  0.1279  0.5153
19242TIP3    H279142   2.892   1.180  15.332  0.0955 -0.5287 -0.4486
19243TIP3   OH279143   1.724   6.398  14.583 -0.0892 -0.0801  0.2210
19243TIP3    H179144   1.767   6.336  14.524  1.2171  1.1262 -0.1611
19243TIP3    H279145   1.791   6.419  14.648 -0.6413  0.6103  0.5798
19244TIP3   OH279146   5.050   1.791  13.332 -0.0141 -0.6765 -0.2712
19244TIP3    H179147   5.111   1.865  13.336 -0.5997 -0.1102 -1.2144
19244TIP3    H279148   4.978   1.816  13.389 -0.1668 -0.5628 -0.5134
19245TIP3   OH279149   4.919   0.628   4.412  0.0558  0.6763 -0.1373
19245TIP3    H179150   4.877   0.624   4.498  0.1948  1.2063 -0.0431
19245TIP3    H279151   4.930   0.722   4.395 -1.4828  0.6445 -1.4756
19246TIP3   OH279152   5.034   0.139   4.244 -0.5446 -0.1438 -0.5943
19246TIP3    H179153   5.030   0.191   4.164 -0.3214  0.4545 -0.2214
19246TIP3    H279154   4.987   0.191   4.309  1.5950  0.6979  0.3726
19247TIP3   OH279155   1.051   1.764  12.423 -0.3031 -0.2735  0.2737
19247TIP3    H179156   0.996   1.761  12.345  0.1018 -0.1059 -0.0206
19247TIP3    H279157   1.120   1.826  12.401  0.0808 -0.5866  0.5943
19248TIP3   OH279158   5.070   4.695  15.089  0.0011 -0.7989 -0.5831
19248TIP3    H179159   5.116   4.617  15.057  1.7480 -0.2417  0.4330
19248TIP3    H279160   5.120   4.722  15.166 -0.4983  1.3945 -0.9772
19249TIP3   OH279161   6.720   1.387  14.781  0.1808  0.0507  0.1805
19249TIP3    H179162   6.749   1.296  14.780  0.2086  0.0482 -1.4889
19249TIP3    H279163   6.738   1.419  14.692  0.3550  1.7456  0.7959
19250TIP3   OH279164   1.949   2.742  13.536  0.2054  0.2062 -0.2371
19250TIP3    H179165   1.877   2.800  13.561  1.2756  1.3231  0.3359
19250TIP3    H279166   1.982   2.778  13.454  1.8494  1.3630  0.8845
19251TIP3   OH279167   6.397   0.725  16.464 -0.0106 -0.5090 -0.1777
19251TIP3    H179168   6.383   0.705  16.556 -0.0871  0.8810  0.1233
19251TIP3    H279169   6.460   0.797  16.463  0.4399 -0.8938 -1.2330
19252TIP3   OH279170   1.804   6.681   0.216  0.0546  0.3563  0.2625
19252TIP3    H179171   1.783   6.651   0.128 -0.3139  1.0009  0.1277
19252TIP3    H279172   1.755   6.762   0.227  0.4019  0.4897  0.9183
19253TIP3   OH279173   1.005   3.037  11.853 -0.0720  0.3688  0.8856
19253TIP3    H179174   1.019   3.002  11.764  0.0574  1.8813  0.2870
19253TIP3    H279175   0.920   3.079  11.849 -0.7352 -0.8016  1.9273
19254TIP3   OH279176   0.565   5.851   3.229 -0.4078  0.1187  0.5136
19254TIP3    H179177   0.570   5.851   3.133  0.9097  0.8447  0.5542
19254TIP3    H279178   0.541   5.941   3.251  1.9325  0.7069  0.9216
19255TIP3   OH279179   1.143   5.967   3.450  0.0202  0.0312  0.0885
19255TIP3    H179180   1.168   5.960   3.542 -0.1115 -1.5946  0.0220
19255TIP3    H279181   1.222   5.947   3.401 -0.1833 -0.2240 -0.1424
19256TIP3   OH279182   0.070   3.464   4.186  0.2341 -0.5613  0.7199
19256TIP3    H179183   0.126   3.529   4.144 -0.0221 -0.9954 -0.3383
19256TIP3    H279184   0.049   3.502   4.272 -0.1042  0.8683  0.0467
19257TIP3   OH279185   5.534   3.571   3.481 -0.3621  0.4593 -0.2279
19257TIP3    H179186   5.478   3.529   3.415 -0.5212  0.9123 -0.3872
19257TIP3    H279187   5.600   3.505   3.503 -1.4242 -0.3816  0.5489
19258TIP3   OH279188   0.070   1.950   2.170 -0.0751  0.6055 -0.0282
19258TIP3    H179189   0.126   1.874   2.157  0.4123  1.1149 -1.0341
19258TIP3    H279190   0.014   1.953   2.093 -1.7984 -0.1132  1.1273
19259TIP3   OH279191   2.689   1.436  13.792  0.4572 -0.0421  0.3005
19259TIP3    H179192   2.671   1.523  13.757  0.3158 -0.7722 -1.5408
19259TIP3    H279193   2.783   1.425  13.783  0.4199 -0.2414  0.1577
19260TIP3   OH279194   1.366   1.929   1.797  0.3632  0.0294 -0.0601
19260TIP3    H179195   1.418   1.950   1.720 -1.3202  1.0415 -0.9715
19260TIP3    H279196   1.313   1.853   1.771  0.3900 -0.1496  0.3911
19261TIP3   OH279197   3.335   4.705  13.529 -0.2527  0.2504 -0.0600
19261TIP3    H179198   3.362   4.772  13.466  1.1015  0.2937  0.5273
19261TIP3    H279199   3.308   4.755  13.606 -0.6918  0.1560 -0.1495
19262TIP3   OH279200   4.498   0.758   2.626 -0.2233 -0.1471 -0.2065
19262TIP3    H179201   4.506   0.718   2.540  0.7024  0.7718 -0.5650
19262TIP3    H279202   4.581   0.738   2.670 -1.3341 -2.1209  1.1731
19263TIP3   OH279203   1.221   2.968  12.021  1.0575  0.1083 -0.2891
19263TIP3    H179204   1.165   3.007  11.954  0.6344 -1.5175 -0.9098
19263TIP3    H279205   1.296   2.933  11.972  0.3563 -1.8064 -0.0634
19264TIP3   OH279206   1.776   5.016   5.118 -0.7307  0.1569 -0.9889
19264TIP3    H179207   1.823   5.063   5.187 -0.4849 -0.5032 -0.6988
19264TIP3    H279208   1.845   4.985   5.060 -0.8112 -0.7641 -0.5971
19265TIP3   OH279209   3.930   3.130   4.135  0.0452 -0.0766  0.1367
19265TIP3    H179210   3.893   3.142   4.048  2.3539 -0.0021 -0.9076
19265TIP3    H279211   3.854   3.124   4.193 -1.6176 -1.7160 -2.0513
19266TIP3   OH279212   1.815   2.470   0.415  0.3694 -0.4419  0.0972
19266TIP3    H179213   1.871   2.461   0.492  1.1232 -0.7132 -0.4805
19266TIP3    H279214   1.788   2.381   0.394  2.7534 -0.7981 -1.8436
19267TIP3   OH279215   5.550   4.792  13.206  0.4639  0.3811  0.9500
19267TIP3    H179216   5.496   4.865  13.176  0.2956 -0.0578  0.1375
19267TIP3    H279217   5.559   4.805  13.300  1.0199  1.8250  0.7158
19268TIP3   OH279218   0.600   4.766  11.029 -0.2908  0.7350 -0.3185
19268TIP3    H179219   0.616   4.678  10.994  1.9711  1.2563 -0.7424
19268TIP3    H279220   0.510   4.785  11.003 -0.8291 -1.4110 -0.2542
19269TIP3   OH279221   5.860   1.330   0.211  0.5141  0.0035  0.2878
19269TIP3    H179222   5.907   1.359   0.289 -1.3590 -0.0097  1.4647
19269TIP3    H279223   5.768   1.347   0.230 -0.3486 -3.1071 -0.5344
19270TIP3   OH279224   3.801   0.081  12.150  0.6556 -0.1755  0.2510
19270TIP3    H179225   3.791   0.171  12.181 -2.2058 -0.4010  0.2866
19270TIP3    H279226   3.877   0.083  12.093  0.9827  2.1432  0.6736
19271TIP3   OH279227   1.225   1.706   0.854 -0.5177  0.0752  0.4418
19271TIP3    H179228   1.312   1.736   0.878 -1.0110  1.0494  1.0559
19271TIP3    H279229   1.167   1.778   0.879 -1.3958 -0.1426 -0.8564
19272TIP3   OH279230   4.965   0.948  14.004  0.3225 -0.2615  0.2770
19272TIP3    H179231   5.042   0.987  14.044  0.1710 -0.6343  0.9491
19272TIP3    H279232   4.892   0.975  14.060 -0.2753  1.3852 -1.2118
19273TIP3   OH279233   5.637   0.644   0.569  0.1961 -0.6181  0.3595
19273TIP3    H179234   5.686   0.644   0.487 -1.4275 -0.1882 -0.6514
19273TIP3    H279235   5.597   0.557   0.573 -0.7319 -0.2148  0.0491
19274TIP3   OH279236   5.950   2.100  11.154  0.3150  0.3111 -0.5224
19274TIP3    H179237   6.017   2.033  11.139 -0.5678 -0.4269 -1.3985
19274TIP3    H279238   5.946   2.149  11.072  0.5132  1.0414 -0.1033
19275TIP3   OH279239   5.081   5.586  13.772  0.1730  0.0322 -0.3290
19275TIP3    H179240   5.010   5.522  13.774  0.3351 -0.1377  0.1550
19275TIP3    H279241   5.044   5.661  13.725 -0.9976  0.7237  1.6031
19276TIP3   OH279242   3.472   2.628   3.744  0.0846  0.1078 -0.1590
19276TIP3    H179243   3.504   2.574   3.816  1.5329 -0.6827 -1.3344
19276TIP3    H279244   3.476   2.570   3.668 -0.2748  1.2683 -1.0908
19277TIP3   OH279245   6.521   4.271   5.204 -0.6762  0.5053  0.2108
19277TIP3    H179246   6.485   4.354   5.237 -2.4277 -0.0989 -0.0888
19277TIP3    H279247   6.611   4.270   5.237 -1.1565  1.7127  1.6862
19278TIP3   OH279248   3.695   1.111   3.373 -0.1718 -0.3059 -0.0583
19278TIP3    H179249   3.776   1.158   3.392 -1.4076  0.7566  3.2208
19278TIP3    H279250   3.649   1.167   3.310  0.2184  0.7875  0.5946
19279TIP3   OH279251   4.918   0.255  15.318 -0.4989  0.4666 -0.2880
19279TIP3    H179252   4.857   0.261  15.391  1.4229  0.6548  1.4094
19279TIP3    H279253   4.949   0.164  15.321  1.0230  0.9777  0.4131
19280TIP3   OH279254   1.122   0.879   4.335 -0.2491 -0.1879 -0.2600
19280TIP3    H179255   1.071   0.960   4.341  0.0285 -0.0574  0.4869
19280TIP3    H279256   1.086   0.823   4.403 -1.4676 -1.3081 -1.7617
19281TIP3   OH279257   2.883   3.650   5.200 -0.4444 -0.0637  0.0163
19281TIP3    H179258   2.972   3.638   5.167 -0.3489 -0.4843  0.4070
19281TIP3    H279259   2.853   3.732   5.160  0.3995  0.4934  0.4811
19282TIP3   OH279260   1.292   2.981  16.801  0.0606 -0.0109 -0.0328
19282TIP3    H179261   1.249   2.935  16.873 -0.7757 -1.1622 -1.2241
19282TIP3    H279262   1.363   2.923  16.774 -0.1354  0.0330 -0.6545
19283TIP3   OH279263   2.218   5.372  13.272 -0.4886 -0.2031  0.0420
19283TIP3    H179264   2.143   5.312  13.264 -0.0482 -0.7761  0.0932
19283TIP3    H279265   2.186   5.456  13.241 -0.3670 -1.0771 -2.7523
19284TIP3   OH279266   1.789   4.377  12.569 -0.2982  0.7616 -0.5334
19284TIP3    H179267   1.773   4.294  12.525 -0.0061  0.7992 -0.7187
19284TIP3    H279268   1.726   4.379  12.640  0.7281 -0.3351  0.4485
19285TIP3   OH279269   4.957   1.879  10.976 -0.1990 -0.0984 -0.2047
19285TIP3    H179270   5.040   1.905  11.017  1.4871 -2.5017 -1.7939
19285TIP3    H279271   4.958   1.783  10.982 -3.6664 -0.1741  1.0845
19286TIP3   OH279272   3.223   3.217   5.000 -0.3503 -0.1466 -0.1903
19286TIP3    H179273   3.166   3.165   5.057  1.4554 -2.5617 -0.4321
19286TIP3    H279274   3.162   3.266   4.945 -2.2030 -1.5288  0.4854
19287TIP3   OH279275   2.167   0.777   2.496  0.2797 -0.3565 -0.0294
19287TIP3    H179276   2.096   0.712   2.498  0.7908 -0.9052  0.5502
19287TIP3    H279277   2.141   0.838   2.427 -1.7094  0.5481  1.4436
19288TIP3   OH279278   4.962   0.818   0.059  0.5532  0.0170  0.3206
19288TIP3    H179279   4.992   0.729   0.046  2.7554  0.8013 -0.4096
19288TIP3    H279280   4.986   0.839   0.149 -1.0236 -0.4779  0.8802
19289TIP3   OH279281   1.801   6.036  12.870  0.3684  0.2113 -0.0628
19289TIP3    H179282   1.762   6.101  12.928 -1.5168 -2.2271  1.5733
19289TIP3    H279283   1.893   6.032  12.897  0.8578  2.8696 -0.9775
19290TIP3   OH279284   0.644   3.672  11.369 -0.0797  0.1272  0.1978
19290TIP3    H179285   0.667   3.742  11.308 -1.7112  0.2869 -0.2694
19290TIP3    H279286   0.607   3.717  11.444 -0.2993 -0.1916  0.2812
19291TIP3   OH279287   1.438   2.015   4.331 -0.0032  0.0029  0.1677
19291TIP3    H179288   1.453   1.970   4.248 -0.5016  0.7596 -0.3514
19291TIP3    H279289   1.365   2.075   4.313 -2.5162 -2.2146  2.0679
19292TIP3   OH279290   3.093   3.981  17.171 -0.0032  0.3475 -0.6012
19292TIP3    H179291   3.035   3.922  17.123 -0.8952 -0.8979  1.8301
19292TIP3    H279292   3.167   3.926  17.198  0.5834  1.0637 -0.6944
19293TIP3   OH279293   2.237   0.797   6.021 -0.0360 -0.5507 -0.2001
19293TIP3    H179294   2.287   0.872   6.055 -1.1909 -0.0921  0.5369
19293TIP3    H279295   2.236   0.735   6.094  0.2218 -0.9400 -0.5283
19294TIP3   OH279296   2.947   4.426  13.625  0.3887 -0.2785  0.0757
19294TIP3    H179297   2.905   4.477  13.555  1.3474 -1.0683 -1.1110
19294TIP3    H279298   3.035   4.407  13.591  0.3027 -2.1058  0.7824
19295TIP3   OH279299   2.047   3.535  12.982  0.2660 -0.0363 -0.0762
19295TIP3    H179300   2.018   3.625  12.997 -0.9566 -0.4050 -0.1470
19295TIP3    H279301   2.140   3.544  12.960 -0.2072  1.3764 -1.7584
19296TIP3   OH279302   2.723   4.451  15.115  0.9509  0.5372 -0.2072
19296TIP3    H179303   2.762   4.422  15.032  1.7633  1.3301 -0.1103
19296TIP3    H279304   2.757   4.389  15.180  1.0104  0.4424 -0.3281
19297TIP3   OH279305   6.371   0.308   2.023 -0.0142  0.1609  0.0624
19297TIP3    H179306   6.425   0.386   2.033 -1.1971  1.1382 -0.7611
19297TIP3    H279307   6.379   0.262   2.106  0.9419  1.0048  0.4547
19298TIP3   OH279308   4.497   0.368  13.408  0.1646 -0.8722  0.2334
19298TIP3    H179309   4.527   0.449  13.367  0.9232 -1.2686 -0.0142
19298TIP3    H279310   4.560   0.302  13.380 -1.0463 -1.7786 -0.4572
19299TIP3   OH279311   1.253   3.409   2.853 -0.3793  0.0166  0.4316
19299TIP3    H179312   1.320   3.426   2.919 -1.4002  0.0879  1.4839
19299TIP3    H279313   1.175   3.453   2.886 -0.8136  0.3907 -1.0365
19300TIP3   OH279314   2.683   5.687  17.105 -0.0319  0.3900  0.0872
19300TIP3    H179315   2.661   5.635  17.027 -0.3550  1.2548 -0.4116
19300TIP3    H279316   2.760   5.738  17.078 -1.1360  1.9439 -0.2615
19301TIP3   OH279317   0.703   2.088  15.492 -0.4837 -0.1906  0.2246
19301TIP3    H179318   0.788   2.099  15.448 -0.1405  2.0351  1.3106
19301TIP3    H279319   0.684   2.174  15.529 -2.3693 -1.1263  1.5760
19302TIP3   OH279320   2.803   4.140   3.235  0.3781 -0.3808 -0.4597
19302TIP3    H179321   2.754   4.078   3.289 -0.8693 -0.3257 -1.4971
19302TIP3    H279322   2.884   4.155   3.284 -0.5306 -0.6308  1.2010
19303TIP3   OH279323   4.418   1.023  12.643 -0.5970  0.6599  0.3541
19303TIP3    H179324   4.483   1.047  12.710 -0.1087 -0.9106  0.4764
19303TIP3    H279325   4.429   1.090  12.575  1.6255  0.0797  0.0617
19304TIP3   OH279326   3.682   5.593   1.505  0.4035  0.5058  0.3766
19304TIP3    H179327   3.760   5.557   1.464 -0.3765  0.0455 -0.7399
19304TIP3    H279328   3.639   5.643   1.436  0.3749  1.8579  1.3375
19305TIP3   OH279329   1.665   0.253   3.949  0.2735  0.1504 -0.5442
19305TIP3    H179330   1.669   0.210   3.863  2.6094 -1.0797  0.0966
19305TIP3    H279331   1.680   0.346   3.929  1.4067 -0.1940 -1.4657
19306TIP3   OH279332   5.547   2.258   4.813  0.2718 -0.3693  0.1012
19306TIP3    H179333   5.493   2.324   4.858 -0.1572 -0.7409  0.1385
19306TIP3    H279334   5.504   2.175   4.831  1.4391 -0.7993  0.9772
19307TIP3   OH279335   6.556   2.686   1.734 -0.2295 -0.1413 -0.0636
19307TIP3    H179336   6.625   2.693   1.668  0.8528 -2.3302  0.7372
19307TIP3    H279337   6.600   2.705   1.817 -0.3030 -2.4263  0.5612
19308TIP3   OH279338   4.873   5.938   1.726 -0.2126  0.2376 -0.0148
19308TIP3    H179339   4.807   5.906   1.664 -0.1049 -1.7618  0.8264
19308TIP3    H279340   4.879   5.869   1.792 -0.1662  2.2041  2.1298
19309TIP3   OH279341   4.498   4.181   2.912 -0.5842 -0.1467 -0.4747
19309TIP3    H179342   4.547   4.256   2.945  0.7431 -0.0239 -2.5187
19309TIP3    H279343   4.547   4.105   2.943 -0.9589 -0.1373  0.1631
19310TIP3   OH279344   4.798   1.561   3.611 -0.3394 -0.3703 -0.0338
19310TIP3    H179345   4.837   1.562   3.523  0.1661 -1.4853  0.1558
19310TIP3    H279346   4.721   1.506   3.602  0.3556 -1.4573  0.4576
19311TIP3   OH279347   4.904   1.532   3.092 -0.4251 -0.5259 -0.1018
19311TIP3    H179348   4.995   1.506   3.076  0.4962  1.9051  0.6764
19311TIP3    H279349   4.882   1.589   3.018 -1.0576 -0.5062  0.0941
19312TIP3   OH279350   3.717   3.529   1.576  0.0219  0.0620 -0.1358
19312TIP3    H179351   3.763   3.566   1.651  0.8278 -0.7873 -0.1911
19312TIP3    H279352   3.787   3.508   1.514 -0.6221  0.6415 -1.0856
19313TIP3   OH279353   0.074   5.622   0.940  0.0199  0.1982 -1.0723
19313TIP3    H179354   0.082   5.563   0.866 -0.6887 -0.2860 -0.7722
19313TIP3    H279355   0.011   5.688   0.911 -0.2431  0.0192 -0.9111
19314TIP3   OH279356   5.203   0.410  14.185  0.4909  0.0982  0.0725
19314TIP3    H179357   5.195   0.390  14.279  2.5996 -0.3663  0.1983
19314TIP3    H279358   5.150   0.489  14.173  0.6685  0.5177  1.7896
19315TIP3   OH279359   4.913   6.172   3.258 -0.3383 -0.3809  0.1879
19315TIP3    H179360   4.823   6.146   3.279 -0.4610  1.4859  2.3478
19315TIP3    H279361   4.921   6.261   3.293  2.4430 -0.6063  0.3242
19316TIP3   OH279362   2.545   4.747  13.888 -0.2350 -0.4904  0.0873
19316TIP3    H179363   2.465   4.705  13.919  1.0931 -1.3169  2.6573
19316TIP3    H279364   2.576   4.799  13.962  2.3852 -1.4166 -0.2528
19317TIP3   OH279365   6.348   4.361  12.107 -0.3111 -0.3737 -0.2792
19317TIP3    H179366   6.338   4.449  12.071 -1.5566 -1.4295 -2.7760
19317TIP3    H279367   6.273   4.350  12.166  0.4682  0.5830  0.9237
19318TIP3   OH279368   0.285   1.978   1.191 -0.0808  0.6812 -0.8179
19318TIP3    H179369   0.351   2.044   1.212  0.1038  0.2738 -0.1132
19318TIP3    H279370   0.274   1.928   1.271 -0.3028 -0.0775 -1.3126
19319TIP3   OH279371   5.831   4.535  14.895 -0.5129 -0.2230 -0.5255
19319TIP3    H179372   5.760   4.528  14.831 -1.1275  0.4616  0.0503
19319TIP3    H279373   5.904   4.573  14.846 -0.5085 -0.9960 -1.1424
19320TIP3   OH279374   4.424   2.244  12.199  0.0687 -0.0843  0.5705
19320TIP3    H179375   4.433   2.157  12.162  0.7751 -0.0477  0.6413
19320TIP3    H279376   4.386   2.297  12.129 -0.9678 -0.5919  0.7414
19321TIP3   OH279377   6.303   3.760   5.324  0.0876  0.2057  0.1998
19321TIP3    H179378   6.359   3.697   5.278  1.1428  0.5776  0.9382
19321TIP3    H279379   6.251   3.800   5.254  0.0063 -0.8726 -0.3835
19322TIP3   OH279380   1.162   1.398   2.257 -0.4338 -0.1259  0.1601
19322TIP3    H179381   1.143   1.397   2.164 -0.0363 -4.0212 -0.0429
19322TIP3    H279382   1.256   1.384   2.263 -0.2512  1.2847  1.2130
19323TIP3   OH279383   5.260   4.720   3.481  0.1731  0.0865 -0.3504
19323TIP3    H179384   5.289   4.629   3.483 -0.2035 -0.0402 -0.6795
19323TIP3    H279385   5.341   4.771   3.491  0.7170 -0.2329 -2.6397
19324TIP3   OH279386   3.762   4.555   5.399 -0.1793  0.0814  0.1609
19324TIP3    H179387   3.667   4.547   5.409 -0.5373  2.1238 -0.9876
19324TIP3    H279388   3.780   4.648   5.415  1.6997 -0.3285  0.7061
19325TIP3   OH279389   4.571   6.438  16.562  0.0826  0.1544 -0.3374
19325TIP3    H179390   4.536   6.433  16.473  0.7839 -0.0507 -0.6007
19325TIP3    H279391   4.620   6.357  16.573  0.4640  0.4340  0.0418
19326TIP3   OH279392   3.016   3.625   5.939 -0.2060  0.3533 -0.6093
19326TIP3    H179393   3.106   3.612   5.909 -0.2452 -2.5327  0.2468
19326TIP3    H279394   2.963   3.611   5.861 -0.0272 -1.1938 -0.4821
19327TIP3   OH279395   1.747   0.999  16.437  0.2669 -0.0878  0.4153
19327TIP3    H179396   1.792   0.978  16.519 -0.4592 -3.2595  0.1300
19327TIP3    H279397   1.770   0.927  16.378 -1.7432  0.4278 -1.1111
19328TIP3   OH279398   5.866   1.970   5.087  0.5515  0.2295  0.9034
19328TIP3    H179399   5.851   2.057   5.050  1.1518  0.4629  1.1925
19328TIP3    H279400   5.787   1.952   5.138 -0.6279 -0.4184 -1.0359
19329TIP3   OH279401   4.416   4.720   5.847  0.5452 -0.2094  0.0183
19329TIP3    H179402   4.441   4.694   5.758 -0.5873 -2.9888  0.4080
19329TIP3    H279403   4.481   4.680   5.904  0.9691  1.1316  0.5312
19330TIP3   OH279404   1.503   0.235   2.798  0.0677  0.1536  0.1550
19330TIP3    H179405   1.496   0.297   2.871  0.0365  1.4324 -0.8929
19330TIP3    H279406   1.413   0.224   2.768  0.2958  1.3776 -1.0638
19331TIP3   OH279407   5.076   4.414  15.449  0.5055  0.2772 -0.2177
19331TIP3    H179408   5.147   4.429  15.386  0.5973 -2.6806 -0.9328
19331TIP3    H279409   5.080   4.321  15.469 -0.9760  0.6716  2.4994
19332TIP3   OH279410   1.144   3.292  14.533  0.0403 -0.1705  0.0100
19332TIP3    H179411   1.131   3.296  14.627 -1.3325  0.4640 -0.1848
19332TIP3    H279412   1.113   3.204  14.509 -0.7320  0.0890  0.0143
19333TIP3   OH279413   6.537   0.330   3.501  0.3594  0.5337 -0.1107
19333TIP3    H179414   6.556   0.318   3.408 -0.3823 -0.1519 -0.1824
19333TIP3    H279415   6.623   0.344   3.541  1.0499 -2.1283 -0.4766
19334TIP3   OH279416   4.830   3.846  15.787 -0.5020  0.3065  0.2807
19334TIP3    H179417   4.830   3.807  15.700 -0.9925  0.1324  0.3575
19334TIP3    H279418   4.819   3.772  15.847 -2.9104  0.6508  0.3678
19335TIP3   OH279419   4.081   4.782  15.829 -0.2339 -0.0974  0.5145
19335TIP3    H179420   4.171   4.757  15.852 -0.9661 -1.0823  2.4618
19335TIP3    H279421   4.061   4.728  15.752  0.0367 -1.7366  1.5372
19336TIP3   OH279422   4.189   3.153  17.441 -0.0511 -0.1968  0.3308
19336TIP3    H179423   4.195   3.061  17.467 -0.1683 -0.2359  0.2195
19336TIP3    H279424   4.178   3.150  17.346  1.5823 -0.0257  0.0981
19337TIP3   OH279425   0.184   1.782  11.925  0.2997 -0.8932 -0.0654
19337TIP3    H179426   0.143   1.734  11.996  0.7380 -0.9298  0.1681
19337TIP3    H279427   0.189   1.720  11.853 -0.6721 -0.6855 -0.3315
19338TIP3   OH279428   0.121   4.211   1.945 -0.8915  0.0328  0.2415
19338TIP3    H179429   0.129   4.250   1.858  0.3742 -0.4910  0.0956
19338TIP3    H279430   0.044   4.155   1.940  0.3733 -1.6969 -1.2582
19339TIP3   OH279431   1.817   2.748  17.201  0.1495 -0.2310  0.2862
19339TIP3    H179432   1.900   2.795  17.200 -0.1558  0.3052 -0.2069
19339TIP3    H279433   1.799   2.733  17.294 -0.0257  1.1293  0.4936
19340TIP3   OH279434   4.399   5.280   3.492  0.2611  0.5510 -0.0087
19340TIP3    H179435   4.353   5.252   3.571 -0.7454  0.4028 -0.6300
19340TIP3    H279436   4.484   5.311   3.524  0.0078  0.1811  1.0884
19341TIP3   OH279437   3.352   0.436  13.026  0.6142  0.1868  0.1878
19341TIP3    H179438   3.318   0.348  13.043  0.5503 -0.3120 -2.1498
19341TIP3    H279439   3.293   0.471  12.959  0.1521  2.3678  1.6283
19342TIP3   OH279440   3.699   0.166   1.666  0.2450  0.5317  0.0633
19342TIP3    H179441   3.623   0.212   1.701  1.1643  1.5390  0.7682
19342TIP3    H279442   3.713   0.093   1.726 -0.8623 -0.3866 -0.7378
19343TIP3   OH279443   1.838   2.312   3.451  0.3317  0.7927  0.2038
19343TIP3    H179444   1.890   2.328   3.373 -0.9096  0.2194 -0.7674
19343TIP3    H279445   1.835   2.398   3.495 -0.0634  1.4483 -1.0689
19344TIP3   OH279446   5.589   4.060  12.305 -0.0895 -0.3107 -0.0495
19344TIP3    H179447   5.672   4.102  12.328  0.0932 -0.7935  0.2104
19344TIP3    H279448   5.585   4.066  12.209  1.7925 -2.9954 -0.4204
19345TIP3   OH279449   3.312   6.333   5.763  0.1482  0.0345 -0.4830
19345TIP3    H179450   3.267   6.325   5.847  1.0291  0.2388  0.0115
19345TIP3    H279451   3.255   6.391   5.711 -0.2281  0.1798  0.0831
19346TIP3   OH279452   6.408   1.615  11.723  0.4883 -0.4885  0.0913
19346TIP3    H179453   6.428   1.709  11.718  1.3356 -0.7070 -0.8202
19346TIP3    H279454   6.390   1.600  11.816  0.8695  0.4725  0.3389
19347TIP3   OH279455   1.531   2.985  12.954 -0.2582  0.2052  0.8480
19347TIP3    H179456   1.446   3.024  12.971 -0.3232 -0.0288  1.0719
19347TIP3    H279457   1.512   2.905  12.904 -0.0588  0.9562 -0.4741
19348TIP3   OH279458   2.952   1.906  11.656 -0.2902  0.2104  0.4076
19348TIP3    H179459   2.890   1.977  11.638  2.6766  3.1060  0.5966
19348TIP3    H279460   2.959   1.905  11.752  0.2685  0.2118  0.3679
19349TIP3   OH279461   5.079   6.453  12.172 -0.0277 -0.3995 -0.2773
19349TIP3    H179462   5.148   6.519  12.170 -0.6767  0.2779 -1.2047
19349TIP3    H279463   5.094   6.400  12.094 -0.6822 -0.0916 -0.6257
19350TIP3   OH279464   3.928   2.312   3.734 -0.2886  0.1569 -0.3347
19350TIP3    H179465   3.980   2.390   3.718  2.1904 -1.2346  0.4503
19350TIP3    H279466   3.942   2.290   3.826  1.0116 -2.4446 -1.0391
19351TIP3   OH279467   5.536   5.046   0.911 -0.4407  0.1673  0.7009
19351TIP3    H179468   5.517   5.057   0.818 -0.0172 -0.9003  0.4732
19351TIP3    H279469   5.610   4.985   0.913  0.2827  1.0486  1.6954
19352TIP3   OH279470   2.632   5.581   0.340  0.2971  0.2502 -0.4959
19352TIP3    H179471   2.613   5.645   0.272 -0.5336  0.6075  0.0486
19352TIP3    H279472   2.675   5.509   0.294  0.9207  1.0387 -1.1757
19353TIP3   OH279473   0.957   0.261  14.683  0.0693  0.2400  0.1453
19353TIP3    H179474   1.041   0.306  14.694  0.4389 -0.0901 -1.1101
19353TIP3    H279475   0.891   0.329  14.693  0.5176  0.6448  0.3845
19354TIP3   OH279476   2.740   0.517   2.252 -0.6777  0.4584 -0.4258
19354TIP3    H179477   2.702   0.516   2.164 -0.8875  0.6230 -0.3355
19354TIP3    H279478   2.824   0.562   2.241 -0.6914  0.4535 -0.5488
19355TIP3   OH279479   6.074   4.583   5.724  0.2100 -0.0865  0.2709
19355TIP3    H179480   6.034   4.527   5.657 -2.3298 -0.3818  1.8735
19355TIP3    H279481   6.081   4.527   5.801  0.9133  0.8625  0.9193
19356TIP3   OH279482   5.559   1.729   5.266  0.3648 -0.1009 -0.0516
19356TIP3    H179483   5.532   1.703   5.178 -1.5783  2.5539 -0.3635
19356TIP3    H279484   5.586   1.647   5.308 -1.3387 -1.8881 -2.1793
19357TIP3   OH279485   6.385   2.814  13.034  0.3732 -0.3786  0.3714
19357TIP3    H179486   6.374   2.719  13.031  1.1330 -0.4543 -0.9643
19357TIP3    H279487   6.299   2.848  13.009  0.0839 -0.7053  0.9037
19358TIP3   OH279488   6.162   2.872  15.505 -0.2103 -0.6850 -0.1283
19358TIP3    H179489   6.225   2.821  15.454  0.5027  0.5743 -0.5516
19358TIP3    H279490   6.127   2.810  15.569 -1.7847 -2.5715 -2.6338
19359TIP3   OH279491   4.509   6.413  16.055 -0.0602 -0.2276 -0.2837
19359TIP3    H179492   4.492   6.377  15.968 -2.5249  0.3770 -0.1335
19359TIP3    H279493   4.534   6.504  16.039  0.7895 -0.4690 -0.3920
19360TIP3   OH279494   5.260   6.338   0.989 -0.2650  0.4176 -0.1154
19360TIP3    H179495   5.303   6.403   1.045 -1.4038 -0.4197  1.8224
19360TIP3    H279496   5.332   6.289   0.950  0.5767  1.4050  0.1558
19361TIP3   OH279497   3.685   3.940   5.363  0.1874  0.0349 -0.1208
19361TIP3    H179498   3.619   3.974   5.303  1.7440  0.3135 -1.7521
19361TIP3    H279499   3.693   4.006   5.431 -1.3150 -0.0926  0.2113
19362TIP3   OH279500   1.190   4.930  12.243  0.2019  0.2266 -0.2921
19362TIP3    H179501   1.143   4.989  12.184 -0.2231 -0.0325 -0.2131
19362TIP3    H279502   1.258   4.890  12.187 -1.3869 -1.4573 -1.1304
19363TIP3   OH279503   2.833   0.660   1.202 -0.2529 -0.2906 -0.0034
19363TIP3    H179504   2.765   0.675   1.267 -0.2254  0.9472 -0.2310
19363TIP3    H279505   2.828   0.736   1.144  0.7823 -0.5810 -0.4993
19364TIP3   OH279506   6.074   0.386  15.955 -0.1707  0.1168  0.2824
19364TIP3    H179507   6.058   0.473  15.991 -3.5350 -0.6303  0.9019
19364TIP3    H279508   6.133   0.344  16.018  1.5315  1.8692 -0.0423
19365TIP3   OH279509   0.809   1.905  14.737  0.4795  0.3851 -0.0052
19365TIP3    H179510   0.835   1.997  14.744  0.2184  0.4852 -0.2750
19365TIP3    H279511   0.808   1.888  14.642 -0.3632  0.3733 -0.0072
19366TIP3   OH279512   6.222   4.978  17.318 -0.2821 -0.1272  0.1686
19366TIP3    H179513   6.148   4.959  17.375 -0.9159  0.9224 -0.2765
19366TIP3    H279514   6.255   4.892  17.291 -2.8537 -0.6794 -1.5435
19367TIP3   OH279515   0.226   2.299   1.336  0.1039 -0.0348 -0.6274
19367TIP3    H179516   0.147   2.246   1.347 -1.1930  2.1938  1.9594
19367TIP3    H279517   0.296   2.247   1.376 -1.0393 -0.1131  1.3952
19368TIP3   OH279518   4.837   1.155   6.124  0.0030  0.3381 -0.2466
19368TIP3    H179519   4.890   1.139   6.202  0.6304 -1.2178 -0.9427
19368TIP3    H279520   4.756   1.106   6.139 -0.0911  0.4615 -0.3532
19369TIP3   OH279521   0.183   2.778  16.333  0.2153  0.2291  0.0017
19369TIP3    H179522   0.135   2.770  16.250  0.5573  2.5256 -0.4954
19369TIP3    H279523   0.145   2.711  16.390 -0.5034 -0.9496 -1.7732
19370TIP3   OH279524   5.445   4.984  14.285 -0.0758 -0.0739 -0.8007
19370TIP3    H179525   5.450   5.040  14.363 -1.1551  0.8895 -1.4019
19370TIP3    H279526   5.485   4.901  14.313  1.2970  0.8756  0.1972
19371TIP3   OH279527   2.093   1.662  14.062 -0.3707 -0.3564  0.3414
19371TIP3    H179528   2.032   1.600  14.102 -1.9825 -0.4182 -2.0094
19371TIP3    H279529   2.140   1.611  13.996  0.2869  0.3082  0.2792
19372TIP3   OH279530   4.474   6.439   2.335  0.1708  0.0629  0.2380
19372TIP3    H179531   4.379   6.428   2.325  0.4221 -1.7719 -0.7064
19372TIP3    H279532   4.487   6.461   2.427 -1.1158 -0.7150  0.6232
19373TIP3   OH279533   3.530   0.370  16.361 -0.3711  0.2723 -0.1502
19373TIP3    H179534   3.443   0.402  16.338 -0.3773 -1.1699 -2.5133
19373TIP3    H279535   3.520   0.332  16.448 -2.6393 -1.5064 -1.0804
19374TIP3   OH279536   5.279   4.478   4.005  0.1012  0.3269 -0.3024
19374TIP3    H179537   5.334   4.480   3.927  1.0059 -0.1530  0.3115
19374TIP3    H279538   5.320   4.413   4.062 -0.6864  0.4904  0.4695
19375TIP3   OH279539   2.367   4.307   0.727 -0.3569  0.1765  0.0143
19375TIP3    H179540   2.355   4.225   0.678 -1.4314  0.3355 -0.0175
19375TIP3    H279541   2.407   4.367   0.665  1.4497 -0.6271  0.3496
19376TIP3   OH279542   0.742   5.289  15.715  0.1317 -0.4726  0.2132
19376TIP3    H179543   0.782   5.339  15.643  0.2463  0.1101  0.6747
19376TIP3    H279544   0.814   5.274  15.776 -0.2619  0.2695  0.8806
19377TIP3   OH279545   4.767   4.303  12.962  0.4492 -0.1270 -0.1745
19377TIP3    H179546   4.811   4.252  12.894  0.2377 -0.3034 -0.1767
19377TIP3    H279547   4.674   4.290  12.946  0.3446  1.7178 -1.3029
19378TIP3   OH279548   1.379   6.641   2.316  0.0063  0.5007  0.2834
19378TIP3    H179549   1.451   6.632   2.379  0.0039 -0.8030  0.1300
19378TIP3    H279550   1.420   6.626   2.230  0.1759  3.0715 -0.1719
19379TIP3   OH279551   4.497   2.210  17.241  0.1863 -0.4268  0.1333
19379TIP3    H179552   4.553   2.244  17.311  3.0568 -0.1410 -2.1323
19379TIP3    H279553   4.430   2.278  17.229  0.3340  0.0526  1.7344
19380TIP3   OH279554   6.624   5.169   5.507  0.4195  0.0599 -0.3448
19380TIP3    H179555   6.541   5.211   5.527  0.6378  0.0731  0.5542
19380TIP3    H279556   6.689   5.239   5.513  0.7075 -0.2745  0.5758
19381TIP3   OH279557   6.404   4.994   5.103  0.3741 -0.1167 -0.1174
19381TIP3    H179558   6.495   5.026   5.098  0.9679 -1.7255 -0.1611
19381TIP3    H279559   6.364   5.024   5.022  1.0094  0.1687 -0.3341
19382TIP3   OH279560   0.150   5.530   1.419  0.4578  0.4781 -0.2898
19382TIP3    H179561   0.114   5.567   1.499  0.2709  0.3007 -0.2927
19382TIP3    H279562   0.195   5.450   1.447  1.6286  1.1569 -0.1502
19383TIP3   OH279563   4.342   2.057  14.316 -0.0630 -0.5515  0.2035
19383TIP3    H179564   4.424   2.085  14.276  1.0587  0.8443  3.1458
19383TIP3    H279565   4.348   1.961  14.318  0.8473 -0.5311 -0.8406
19384TIP3   OH279566   2.640   2.785  13.162 -0.2270  0.1981  0.4538
19384TIP3    H179567   2.614   2.706  13.115  0.2085 -0.0100  0.5534
19384TIP3    H279568   2.598   2.778  13.247 -2.9897  1.7235 -0.6644
19385TIP3   OH279569   3.952   6.739   0.364  0.3101  1.0497  0.4228
19385TIP3    H179570   4.042   6.710   0.355  0.3847  1.2412  0.5456
19385TIP3    H279571   3.925   6.708   0.450 -0.4483 -0.8995 -0.4438
19386TIP3   OH279572   4.597   4.201   3.640  0.5950 -0.6667 -0.3684
19386TIP3    H179573   4.505   4.179   3.628  0.2543  1.0012 -1.0572
19386TIP3    H279574   4.628   4.225   3.553  2.0773 -2.5108 -0.3999
19387TIP3   OH279575   4.690   5.172   3.999 -0.2026  0.3717 -0.2359
19387TIP3    H179576   4.717   5.115   3.926  0.0570  0.3888 -0.1538
19387TIP3    H279577   4.642   5.243   3.957 -2.2144 -0.8986 -0.1790
19388TIP3   OH279578   2.801   0.872  13.602 -0.0381 -0.2887 -0.2638
19388TIP3    H179579   2.829   0.896  13.690 -2.3617 -0.1896  0.5155
19388TIP3    H279580   2.812   0.777  13.598  1.8932 -0.0970 -0.6163
19389TIP3   OH279581   3.620   0.016  15.994 -0.3423  0.0171 -0.0702
19389TIP3    H179582   3.627   0.109  16.012  0.5231  0.3188 -1.7815
19389TIP3    H279583   3.529   0.003  15.968 -0.8013  0.1163  1.3883
19390TIP3   OH279584   1.634   0.570   1.811 -0.2607 -0.1326 -0.2479
19390TIP3    H179585   1.675   0.642   1.763 -0.2898  0.0352 -0.0267
19390TIP3    H279586   1.634   0.496   1.750  2.0671 -0.7018  0.3556
19391TIP3   OH279587   6.577   1.941  12.903 -0.0069  0.3953 -0.3972
19391TIP3    H179588   6.632   1.884  12.956 -1.2356  0.7779  1.3789
19391TIP3    H279589   6.554   1.888  12.827  1.1787 -0.4509 -0.1996
19392TIP3   OH279590   6.005   3.419   4.913 -0.1758 -0.3895 -0.2534
19392TIP3    H179591   6.074   3.459   4.861  0.2687 -0.2777  0.4157
19392TIP3    H279592   6.003   3.327   4.884 -1.3923  0.1446 -1.9966
19393TIP3   OH279593   6.510   5.598  16.035  0.2489 -0.1664  0.1657
19393TIP3    H179594   6.579   5.644  16.083  1.2668 -1.3225 -0.1272
19393TIP3    H279595   6.433   5.603  16.091  0.0617  2.5825 -0.2220
19394TIP3   OH279596   0.786   3.542   4.204 -0.3400  0.3551 -0.3712
19394TIP3    H179597   0.709   3.578   4.249 -0.5317 -0.7070  0.2111
19394TIP3    H279598   0.822   3.615   4.155 -1.2907  1.0643 -0.0509
19395TIP3   OH279599   3.717   3.008   0.656 -0.0727  0.4528 -0.0055
19395TIP3    H179600   3.751   2.956   0.730  0.2541  0.5914 -0.0576
19395TIP3    H279601   3.692   2.942   0.591 -1.6777  0.2547  0.7697
19396TIP3   OH279602   3.895   0.525  15.640 -0.6058 -0.4333 -0.2728
19396TIP3    H179603   3.864   0.444  15.680  0.2181 -0.1942  0.9079
19396TIP3    H279604   3.957   0.496  15.573 -1.2545 -0.8077 -0.7202
19397TIP3   OH279605   5.271   3.181   4.970  0.0888  0.2521  0.6230
19397TIP3    H179606   5.240   3.115   4.908  1.4814  1.4917 -1.5205
19397TIP3    H279607   5.191   3.226   4.999 -0.4598  1.3590 -2.3478
19398TIP3   OH279608   0.271   5.227  12.119  0.4832  0.0748  0.2341
19398TIP3    H179609   0.223   5.269  12.048 -0.0881 -0.1023  0.5166
19398TIP3    H279610   0.329   5.165  12.074  0.3964  0.2303 -0.0975
19399TIP3   OH279611   2.292   5.485   6.025 -0.3526 -0.7115 -0.1383
19399TIP3    H179612   2.344   5.406   6.039  0.0284 -0.2712  1.0248
19399TIP3    H279613   2.268   5.481   5.932 -1.3689 -2.8043  0.1535
19400TIP3   OH279614   0.305   5.583  16.536 -0.3757 -0.5791 -0.2766
19400TIP3    H179615   0.321   5.524  16.610 -0.2058 -0.9150 -0.5825
19400TIP3    H279616   0.222   5.555  16.499 -0.4212 -0.4593 -0.2668
19401TIP3   OH279617   1.028   6.732   2.630 -0.1777  0.0390 -0.4773
19401TIP3    H179618   1.019   6.641   2.603 -0.8652 -0.8088  2.3024
19401TIP3    H279619   1.085   6.771   2.563 -2.5541 -1.4580 -3.6449
19402TIP3   OH279620   0.052   5.629   2.337 -0.3252  0.0420 -0.3442
19402TIP3    H179621   0.009   5.707   2.300 -0.2363 -0.0276 -0.6000
19402TIP3    H279622   0.111   5.600   2.267 -2.5535 -2.0501 -1.5249
19403TIP3   OH279623   1.360   3.512   5.317 -0.0520 -0.3443 -0.1742
19403TIP3    H179624   1.411   3.592   5.326 -0.1786 -0.4379  1.9738
19403TIP3    H279625   1.412   3.445   5.361  0.1283 -1.5197 -2.0833
19404TIP3   OH279626   5.597   0.423  15.789 -0.2685  0.2041 -0.6274
19404TIP3    H179627   5.662   0.360  15.761 -1.1098 -0.6027 -0.8079
19404TIP3    H279628   5.531   0.371  15.835 -0.9895  0.9442 -0.8013
19405TIP3   OH279629   0.027   5.347  14.828 -0.5849  0.2826 -0.0922
19405TIP3    H179630  -0.019   5.396  14.759 -2.2153 -1.0630 -0.0381
19405TIP3    H279631   0.088   5.290  14.781  0.4483  1.4528 -0.2184
19406TIP3   OH279632   0.357   0.212  16.973 -0.1712  0.1945 -0.0556
19406TIP3    H179633   0.394   0.287  17.019 -0.5810  0.2667  0.1661
19406TIP3    H279634   0.421   0.190  16.905  1.3971 -1.0936  1.7241
19407TIP3   OH279635   4.059   0.976  12.682  0.1339  0.1888  0.6691
19407TIP3    H179636   4.109   0.900  12.654  3.7624  1.6731  2.4915
19407TIP3    H279637   4.050   0.966  12.776 -3.1707  0.0323  0.4391
19408TIP3   OH279638   1.465   0.485  15.080 -0.5910 -0.1573  0.0743
19408TIP3    H179639   1.464   0.397  15.042 -1.4897 -0.4269  0.7022
19408TIP3    H279640   1.431   0.542  15.010 -1.3194 -0.5145  0.1266
19409TIP3   OH279641   3.973   0.299  16.472 -0.0861 -0.2293 -0.0864
19409TIP3    H179642   4.057   0.340  16.450 -0.8472  1.3989 -0.0498
19409TIP3    H279643   3.938   0.271  16.387 -0.1106  0.2800 -0.2469
19410TIP3   OH279644   3.094   6.156  16.754 -0.3034 -0.5264 -0.6524
19410TIP3    H179645   3.047   6.158  16.671 -0.5409 -0.2898 -0.5150
19410TIP3    H279646   3.184   6.176  16.731 -0.3033 -0.8039 -0.8955
19411TIP3   OH279647   4.036   3.780  11.670  0.1024  0.5468 -0.0513
19411TIP3    H179648   3.984   3.828  11.733  0.7504  0.5572  0.4876
19411TIP3    H279649   4.081   3.848  11.619 -0.7498  0.5505 -0.8277
19412TIP3   OH279650   2.782   2.925   2.281  0.0377 -0.4622 -0.5598
19412TIP3    H179651   2.724   2.970   2.342  0.7372 -1.5703  0.9934
19412TIP3    H279652   2.730   2.914   2.202 -1.2055  0.2490  0.1240
19413TIP3   OH279653   3.909   4.103  16.105  0.5648 -0.5578  0.1139
19413TIP3    H179654   3.882   4.019  16.068 -0.7288 -0.7348  1.3677
19413TIP3    H279655   3.828   4.155  16.106  1.2770  0.5940 -0.3265
19414TIP3   OH279656   5.394   3.162  17.285 -0.2013  0.2047  0.0086
19414TIP3    H179657   5.452   3.210  17.344  0.8225 -0.1720 -0.6680
19414TIP3    H279658   5.451   3.099  17.240 -0.7736  1.0355 -1.9868
19415TIP3   OH279659   5.649   4.765   0.447  0.2593  0.0630 -0.6527
19415TIP3    H179660   5.661   4.726   0.533  0.3636  2.0473  0.2732
19415TIP3    H279661   5.721   4.828   0.438 -0.3948  0.7031 -1.7033
19416TIP3   OH279662   6.486   3.864  17.389 -0.2122 -0.0345 -0.0217
19416TIP3    H179663   6.482   3.856  17.484  0.3999 -0.7152 -0.0487
19416TIP3    H279664   6.395   3.878  17.362 -0.3003  0.8865  0.7166
19417TIP3   OH279665   5.497   6.025   7.160  0.2239  0.2362 -0.6013
19417TIP3    H179666   5.576   6.039   7.108  0.7608 -1.5141 -0.3258
19417TIP3    H279667   5.436   5.984   7.100  0.2265 -0.1966 -0.3128
19418TIP3   OH279668   1.573   5.371  15.769 -0.4815  0.5257 -0.0570
19418TIP3    H179669   1.613   5.386  15.683  1.1028 -1.7474  0.1813
19418TIP3    H279670   1.496   5.317  15.751 -0.0600 -0.0843 -0.0529
19419TIP3   OH279671   2.128   5.303  11.615 -0.0736  0.0711  0.1332
19419TIP3    H179672   2.104   5.343  11.699  0.9351  0.7924  0.1020
19419TIP3    H279673   2.187   5.231  11.638  1.0715  0.9304  0.0315
19420TIP3   OH279674   6.557   0.131  12.840 -0.0943 -0.4648  0.0635
19420TIP3    H179675   6.624   0.199  12.833 -0.0678 -0.4679  0.2860
19420TIP3    H279676   6.598   0.062  12.892 -1.6300  1.2782  4.0333
19421TIP3   OH279677   3.709   3.326  16.705  0.0788 -0.4061  0.0356
19421TIP3    H179678   3.791   3.373  16.721 -0.4949  0.0915  1.7537
19421TIP3    H279679   3.641   3.384  16.740 -1.0259 -0.8251 -1.3256
19422TIP3   OH279680   3.959   6.307   1.986 -0.1414 -0.2782  0.1100
19422TIP3    H179681   3.950   6.309   2.082 -0.1283  0.3286  0.0975
19422TIP3    H279682   4.039   6.255   1.971  0.0045 -0.1520  0.4360
19423TIP3   OH279683   4.855   3.311   4.087 -0.2999 -0.2256  0.4826
19423TIP3    H179684   4.817   3.396   4.113 -2.1329 -1.1555  1.0239
19423TIP3    H279685   4.902   3.331   4.006 -0.5799  1.3351  0.6563
19424TIP3   OH279686   3.593   1.147   1.936 -0.3003 -0.4137  0.0059
19424TIP3    H179687   3.681   1.120   1.963 -0.5599 -0.6474  0.6141
19424TIP3    H279688   3.586   1.238   1.964 -0.0586 -0.2290 -0.5203
19425TIP3   OH279689   2.375   1.264   0.996  0.2073 -0.0656  0.1255
19425TIP3    H179690   2.351   1.355   0.979 -2.3417 -0.3673  1.5776
19425TIP3    H279691   2.399   1.229   0.910 -0.0129  1.6351 -0.6656
19426TIP3   OH279692   2.346   2.279  12.800 -0.2127 -0.6623  0.4073
19426TIP3    H179693   2.381   2.329  12.726 -0.2203 -1.4039 -0.1098
19426TIP3    H279694   2.327   2.345  12.866 -0.3044  0.0346 -0.2909
19427TIP3   OH279695   5.251   0.220   0.600 -0.0985  0.1728  0.3606
19427TIP3    H179696   5.269   0.160   0.528  2.0743 -0.5825  1.4743
19427TIP3    H279697   5.210   0.165   0.667 -3.3966  1.1217 -0.6454
19428TIP3   OH279698   1.175   1.846   3.148 -0.4683  0.2629 -0.4187
19428TIP3    H179699   1.123   1.767   3.164  0.1698 -0.1170 -0.2208
19428TIP3    H279700   1.117   1.918   3.174 -1.6155 -0.0424 -1.9987
19429TIP3   OH279701   4.770   6.394  14.452 -0.4365 -0.5523  0.0110
19429TIP3    H179702   4.678   6.372  14.460 -0.4397 -1.1152 -1.3251
19429TIP3    H279703   4.788   6.391  14.358  0.4356  1.7028  0.0374
19430TIP3   OH279704   4.848   4.312  13.280 -0.5690 -0.5560  0.4130
19430TIP3    H179705   4.828   4.273  13.195  2.0411 -0.8692 -0.1231
19430TIP3    H279706   4.814   4.401  13.274  0.4197 -0.2431 -1.3707
19431TIP3   OH279707   0.248   6.018   4.309 -0.3918  0.4543 -0.0042
19431TIP3    H179708   0.342   6.012   4.322 -0.2947  1.9063  0.1270
19431TIP3    H279709   0.222   6.097   4.356 -1.7521 -0.1659  0.3329
19432TIP3   OH279710   0.091   0.466  11.240  0.4026  0.7323  0.0081
19432TIP3    H179711   0.006   0.445  11.201  0.0996 -0.2909  1.1799
19432TIP3    H279712   0.073   0.477  11.333  1.9272 -2.0703  0.7249
19433TIP3   OH279713   2.342   1.575  16.583 -0.1581  0.5635  0.1227
19433TIP3    H179714   2.290   1.497  16.604 -0.1374  0.7842  1.0394
19433TIP3    H279715   2.315   1.640  16.648  1.8485  0.4236  1.1855
19434TIP3   OH279716   4.360   4.224  11.484 -0.1894  0.1188  0.2266
19434TIP3    H179717   4.357   4.175  11.566 -0.4301 -0.1914  0.0368
19434TIP3    H279718   4.385   4.313  11.510  2.1586 -0.5161  0.3825
19435TIP3   OH279719   4.642   0.762  12.657 -0.1853  0.4664  0.3042
19435TIP3    H179720   4.662   0.745  12.749  2.9657  0.8787 -0.2081
19435TIP3    H279721   4.581   0.836  12.658  0.9717  1.4514  2.0390
19436TIP3   OH279722   6.205   3.187  13.814 -0.6979  0.0698  0.4375
19436TIP3    H179723   6.261   3.145  13.880  0.6308  1.7006  0.4038
19436TIP3    H279724   6.119   3.194  13.857 -0.2855 -0.3789  1.3777
19437TIP3   OH279725   5.099   4.459  11.912 -0.0243 -0.1082  0.3956
19437TIP3    H179726   5.036   4.495  11.850  0.5976 -0.9836 -0.8076
19437TIP3    H279727   5.184   4.480  11.874  0.3619 -1.2308  0.5910
19438TIP3   OH279728   5.707   2.627   5.421  0.1313  0.0317  0.7205
19438TIP3    H179729   5.770   2.677   5.472 -0.6349  3.7054 -1.4979
19438TIP3    H279730   5.757   2.595   5.346 -0.3817  2.8186 -0.9613
19439TIP3   OH279731   4.868   0.518   3.805 -0.0317  0.3157  0.3352
19439TIP3    H179732   4.827   0.541   3.888 -0.7378 -0.4521  0.2143
19439TIP3    H279733   4.948   0.471   3.830 -1.3378 -1.9015  0.6544
19440TIP3   OH279734   5.329   0.421  14.465  0.2918 -0.3456 -0.6963
19440TIP3    H179735   5.398   0.356  14.476  1.3415  0.9103  0.6885
19440TIP3    H279736   5.371   0.493  14.417  0.0129  0.4581  0.2137
19441TIP3   OH279737   6.321   1.966  13.055  0.1154  0.6337 -0.2943
19441TIP3    H179738   6.225   1.964  13.060  0.1583  0.7490  0.8009
19441TIP3    H279739   6.348   1.878  13.079  0.3289  1.0828  1.2479
19442TIP3   OH279740   3.683   2.833   5.376 -0.1786 -0.7663  0.2097
19442TIP3    H179741   3.712   2.916   5.415  0.2771 -0.7119 -0.2339
19442TIP3    H279742   3.618   2.799   5.438 -1.0564  0.3593 -0.0589
19443TIP3   OH279743   1.282   3.755  13.578  0.1915 -0.5423 -0.0931
19443TIP3    H179744   1.193   3.766  13.612 -0.5997 -0.7566 -1.9445
19443TIP3    H279745   1.333   3.824  13.621 -1.0950  0.2402  0.2466
19444TIP3   OH279746   6.414   1.308   4.296  0.2542 -0.4370 -0.4715
19444TIP3    H179747   6.346   1.376   4.295 -0.3376 -0.9160 -3.2734
19444TIP3    H279748   6.369   1.230   4.330  1.0691  0.5563  3.2298
19445TIP3   OH279749   1.418   2.790  10.987  0.1699  0.2018  0.1699
19445TIP3    H179750   1.380   2.832  11.064 -1.1414 -0.4072 -0.1214
19445TIP3    H279751   1.342   2.763  10.935  0.9875 -1.4749 -0.2088
19446TIP3   OH279752   2.057   1.703  15.822  0.0788 -0.5253  0.1687
19446TIP3    H179753   2.138   1.723  15.774  0.7034 -0.9116  1.0235
19446TIP3    H279754   2.018   1.789  15.839  0.6815 -0.2795  0.3594
19447TIP3   OH279755   1.328   5.966   2.427  0.2639  0.2082  0.5154
19447TIP3    H179756   1.302   5.948   2.517  0.8554 -1.3219  0.4131
19447TIP3    H279757   1.372   6.051   2.431 -0.3573  0.4979  1.5283
19448TIP3   OH279758   3.541   6.267  13.735 -0.2339 -0.4315 -0.1378
19448TIP3    H179759   3.549   6.173  13.751  1.4765 -0.1569  0.8928
19448TIP3    H279760   3.578   6.280  13.648  1.0006 -0.5553  0.3406
19449TIP3   OH279761   4.930   5.073   4.295  0.1670 -0.0602 -0.0538
19449TIP3    H179762   4.954   5.105   4.208 -0.1061  0.3605  0.0227
19449TIP3    H279763   5.005   5.096   4.350 -0.1257  0.6572  0.0484
19450TIP3   OH279764   1.989   2.532  17.114  0.2183 -0.4459  0.0028
19450TIP3    H179765   1.989   2.436  17.116 -1.0227 -0.4779  2.3023
19450TIP3    H279766   1.896   2.555  17.112  0.4170  0.6713  1.8135
19451TIP3   OH279767   5.557   1.734  12.500 -0.2402 -0.1773 -0.5470
19451TIP3    H179768   5.484   1.785  12.535  0.5242  0.1981  0.5662
19451TIP3    H279769   5.631   1.794  12.502  0.4500 -1.0168 -0.1583
19452TIP3   OH279770   5.901   0.552   5.566 -0.3565  0.5593  0.2681
19452TIP3    H179771   5.883   0.471   5.518 -2.5144  0.7125  0.6825
19452TIP3    H279772   5.878   0.531   5.657  0.2722  1.2746  0.5920
19453TIP3   OH279773   2.270   5.285   3.647  0.3979  0.4246 -0.4189
19453TIP3    H179774   2.299   5.374   3.626  0.0142  0.2784 -1.6789
19453TIP3    H279775   2.176   5.286   3.628  0.4356 -0.3099 -0.6718
19454TIP3   OH279776   2.085   3.379   1.968 -0.5019 -0.5212 -0.4304
19454TIP3    H179777   2.115   3.360   2.057  0.5287  1.0694 -0.4010
19454TIP3    H279778   2.141   3.326   1.912  0.3038  0.0955 -0.2235
19455TIP3   OH279779   5.323   2.919  14.687 -0.2490  0.1766 -0.1174
19455TIP3    H179780   5.263   2.932  14.760  0.7413 -1.2342  0.9817
19455TIP3    H279781   5.408   2.946  14.721  0.3990 -1.4245 -0.3931
19456TIP3   OH279782   0.344   0.066  13.558  0.0509 -0.3280 -0.0230
19456TIP3    H179783   0.364   0.103  13.644  1.3893  1.9874 -1.2480
19456TIP3    H279784   0.381  -0.023  13.562  0.0978 -0.2688  1.7478
19457TIP3   OH279785   5.446   6.520   4.388 -0.3392  0.0625  0.9539
19457TIP3    H179786   5.411   6.466   4.318  0.7389 -0.1750  0.5774
19457TIP3    H279787   5.443   6.463   4.465 -0.6714  0.0121  0.9059
19458TIP3   OH279788   2.740   1.530   1.451 -0.4220  0.5388  0.1951
19458TIP3    H179789   2.696   1.491   1.375 -1.1009  1.9212 -0.1535
19458TIP3    H279790   2.745   1.624   1.431 -0.8081  0.9715  1.9490
19459TIP3   OH279791   0.105   3.961  12.872 -0.0787  0.4000  0.2228
19459TIP3    H179792   0.154   3.896  12.822  0.7246 -0.1094  1.6484
19459TIP3    H279793   0.149   4.044  12.853 -0.7766  0.4884 -1.1695
19460TIP3   OH279794   3.546   1.592  13.474  0.2147 -0.2640 -0.1536
19460TIP3    H179795   3.618   1.575  13.415  0.2789  3.3840 -1.4033
19460TIP3    H279796   3.588   1.623  13.555  0.0862 -0.4941  0.0007
19461TIP3   OH279797   4.061   1.229  13.605  0.2584 -0.3637  0.2735
19461TIP3    H179798   4.063   1.165  13.533  1.8046  0.4177 -0.4334
19461TIP3    H279799   4.011   1.303  13.570  1.1207  0.0706 -0.0911
19462TIP3   OH279800   0.922   3.158  14.832  0.6173  0.3828  0.4502
19462TIP3    H179801   0.944   3.139  14.924 -2.2528 -2.5923  0.6811
19462TIP3    H279802   0.835   3.197  14.836  0.7541  0.8826 -1.0242
19463TIP3   OH279803   1.917   2.613  15.513  0.2344  0.3111 -0.3607
19463TIP3    H179804   1.908   2.595  15.607  0.6022 -1.7232 -0.6725
19463TIP3    H279805   1.975   2.689  15.508 -0.7016  1.1639  1.0731
19464TIP3   OH279806   6.391   6.702  15.588 -0.1945 -0.2797 -0.2789
19464TIP3    H179807   6.436   6.655  15.517 -0.2890 -2.3633  0.9719
19464TIP3    H279808   6.329   6.759  15.542  1.5237  0.3656 -1.9368
19465TIP3   OH279809   4.173   3.572  15.669 -0.3370 -0.7784 -0.2121
19465TIP3    H179810   4.235   3.534  15.606  1.5621  0.7783  0.6206
19465TIP3    H279811   4.129   3.642  15.620  1.7119  0.9640  0.3240
19466TIP3   OH279812   0.379   5.487   4.714 -0.4213  0.1996 -0.1115
19466TIP3    H179813   0.422   5.473   4.798 -1.8098  0.5348  0.6936
19466TIP3    H279814   0.376   5.400   4.674 -2.0693 -0.5012  1.3873
19467TIP3   OH279815   1.651   4.933   4.446 -0.0950  1.0462 -0.0206
19467TIP3    H179816   1.578   4.993   4.462 -2.1978 -1.3576  0.1547
19467TIP3    H279817   1.617   4.847   4.474  2.7971 -0.2081 -0.0627
19468TIP3   OH279818   5.260   4.729   0.175  0.0364 -0.1230 -0.2176
19468TIP3    H179819   5.281   4.786   0.101  2.1205  1.2288  1.3041
19468TIP3    H279820   5.187   4.773   0.220  0.1958  0.1867 -0.2631
19469TIP3   OH279821   1.629   6.081   2.919 -0.3373 -0.0497  0.2499
19469TIP3    H179822   1.693   6.139   2.878 -0.3511  0.0028  0.3021
19469TIP3    H279823   1.676   6.041   2.992  0.0126 -0.9582 -0.4527
19470TIP3   OH279824   1.103   3.397   4.559 -0.2447  0.4376  0.0842
19470TIP3    H179825   1.043   3.345   4.506 -0.6434 -0.1209  1.0729
19470TIP3    H279826   1.082   3.488   4.536  0.1188  0.2075 -1.2763
19471TIP3   OH279827   2.746   1.529  11.220  0.4450 -0.5100  0.6905
19471TIP3    H179828   2.817   1.464  11.212  1.0878  0.1183  1.1877
19471TIP3    H279829   2.675   1.480  11.262  0.0344 -1.5427 -1.0888
19472TIP3   OH279830   1.871   1.871   4.414  0.1481 -0.2693  0.2933
19472TIP3    H179831   1.827   1.793   4.379  1.6748 -0.7795 -0.5695
19472TIP3    H279832   1.918   1.839   4.491  0.2899 -0.0711  0.2882
19473TIP3   OH279833   6.721   2.610   5.084  0.3156 -0.6201 -1.0173
19473TIP3    H179834   6.724   2.611   5.180  2.3463 -1.1441 -1.0267
19473TIP3    H279835   6.738   2.701   5.059 -0.5794 -0.4076 -0.9121
19474TIP3   OH279836   2.674   5.271  17.340  0.2705 -0.1162  0.6716
19474TIP3    H179837   2.650   5.224  17.260 -1.6471 -1.0494  1.6895
19474TIP3    H279838   2.697   5.201  17.402  2.4220  0.6258  0.7624
19475TIP3   OH279839   1.873   4.912   1.656 -0.0359 -0.1440 -0.3995
19475TIP3    H179840   1.944   4.901   1.720  1.3875  1.5045 -1.5621
19475TIP3    H279841   1.798   4.940   1.708 -0.1005 -2.5555  0.9509
19476TIP3   OH279842   1.000   2.840   5.058  0.0679 -0.1412  0.0073
19476TIP3    H179843   0.968   2.928   5.040 -1.8231 -0.5023  1.3308
19476TIP3    H279844   1.094   2.850   5.071 -0.4165  2.0671  2.3472
19477TIP3   OH279845   6.442   1.312  10.374  0.1986 -0.2679 -0.3117
19477TIP3    H179846   6.392   1.388  10.346  2.6069  1.6603  0.1987
19477TIP3    H279847   6.440   1.316  10.470 -0.2937 -1.3351 -0.2662
19478TIP3   OH279848   2.180   6.449   5.402  0.3870  0.0780  0.0408
19478TIP3    H179849   2.132   6.368   5.420  0.8774 -0.2725 -0.2140
19478TIP3    H279850   2.146   6.479   5.318  0.0638  0.2535  0.2274
19479TIP3   OH279851   3.774   1.970   1.967 -0.5843 -0.2982 -0.2429
19479TIP3    H179852   3.847   1.916   1.996  0.4839  1.9068  1.5340
19479TIP3    H279853   3.787   1.979   1.872  1.2640 -0.2819 -0.0271
19480TIP3   OH279854   1.155   0.721  13.583 -0.2998  0.2310 -0.5691
19480TIP3    H179855   1.103   0.699  13.506 -1.8113  1.4942  0.0198
19480TIP3    H279856   1.244   0.733  13.550 -0.1567 -2.6853 -1.5145
19481TIP3   OH279857   1.586   0.477   5.342 -0.3184 -0.3936 -0.2952
19481TIP3    H179858   1.639   0.398   5.335  0.4824  0.0827  0.0876
19481TIP3    H279859   1.498   0.451   5.317  0.1258 -1.1897 -1.0664
19482TIP3   OH279860   2.825   0.605   4.736 -0.0885  0.0795 -0.0780
19482TIP3    H179861   2.863   0.595   4.648  0.1367  0.6227 -0.0496
19482TIP3    H279862   2.881   0.553   4.793  0.4344  0.6341 -0.0842
19483TIP3   OH279863   2.846   0.749   6.224  0.2060 -0.3410  0.1573
19483TIP3    H179864   2.807   0.752   6.311 -2.1653  1.0198 -0.8611
19483TIP3    H279865   2.794   0.685   6.177  0.5533 -0.0382 -0.6482
19484TIP3   OH279866   2.282   3.876   0.334  0.2042  0.0250  0.0469
19484TIP3    H179867   2.239   3.944   0.387  0.2726 -0.1415  0.3162
19484TIP3    H279868   2.298   3.919   0.249  0.9265  0.5914  0.4556
19485TIP3   OH279869   2.276   3.280   1.780  0.0519 -0.1282  0.5009
19485TIP3    H179870   2.362   3.315   1.757  0.3868 -0.8515  0.6441
19485TIP3    H279871   2.236   3.257   1.697 -0.2737  0.7991  0.3816
19486TIP3   OH279872   6.232   6.739   6.210  0.7033 -0.0704 -0.1181
19486TIP3    H179873   6.301   6.676   6.190  0.5003 -0.0922 -0.7910
19486TIP3    H279874   6.278   6.820   6.231  0.9410  0.2168 -1.5985
19487TIP3   OH279875   0.654   0.993   1.311  0.4623  0.0458 -0.7497
19487TIP3    H179876   0.642   0.926   1.378  2.0447 -0.0013 -0.4706
19487TIP3    H279877   0.565   1.016   1.283 -0.2035 -0.2875  0.9918
19488TIP3   OH279878   3.373   2.588   6.021  0.0577  0.2906 -0.9181
19488TIP3    H179879   3.288   2.630   6.033 -0.1792 -0.1562 -0.9998
19488TIP3    H279880   3.435   2.648   6.062 -0.3059  0.5743 -0.7718
19489TIP3   OH279881   1.919   1.207   3.901  0.0760 -0.4120 -0.4916
19489TIP3    H179882   1.923   1.181   3.994 -0.2167  0.9392 -0.0787
19489TIP3    H279883   1.987   1.273   3.892 -0.2680 -0.1351 -1.1131
19490TIP3   OH279884   5.686   5.514  16.246  0.1586 -0.4209  0.6202
19490TIP3    H179885   5.647   5.440  16.294  0.4184 -1.7721 -1.1596
19490TIP3    H279886   5.646   5.510  16.159 -0.4711  2.1169  0.7089
19491TIP3   OH279887   3.440   6.358   3.846  0.2004 -0.4160 -0.1769
19491TIP3    H179888   3.365   6.298   3.847 -0.5671  0.4880 -1.3255
19491TIP3    H279889   3.427   6.413   3.924  0.4906 -1.2058  0.4468
19492TIP3   OH279890   2.749   0.937   0.321  0.4026 -0.2624  0.4884
19492TIP3    H179891   2.788   0.946   0.408  0.4863  1.4818  0.3022
19492TIP3    H279892   2.816   0.969   0.261 -0.4103  0.5359 -0.0258
19493TIP3   OH279893   6.515   4.702  12.023  0.0571 -0.0200  0.4953
19493TIP3    H179894   6.556   4.620  11.997  0.1846  0.4753 -0.9089
19493TIP3    H279895   6.584   4.768  12.014 -0.5579  0.5431 -0.2010
19494TIP3   OH279896   5.008   4.568  13.771  0.0060  0.3212  0.6416
19494TIP3    H179897   4.948   4.636  13.739  0.3237  0.4688  0.3484
19494TIP3    H279898   4.957   4.487  13.767  0.6423 -0.0543 -2.3109
19495TIP3   OH279899   0.855   5.558   1.480 -0.6574  0.4353 -0.1097
19495TIP3    H179900   0.905   5.575   1.400 -0.9204  0.9124 -0.1712
19495TIP3    H279901   0.828   5.644   1.512  0.5756  0.3713  1.2335
19496TIP3   OH279902   1.401   4.250   6.104  0.0235 -0.1231 -0.2010
19496TIP3    H179903   1.357   4.168   6.126 -0.2660  0.3149  0.9460
19496TIP3    H279904   1.407   4.297   6.188 -0.6185  1.4164 -0.9683
19497TIP3   OH279905   5.316   4.312  13.046 -0.1227 -0.2416  0.2558
19497TIP3    H179906   5.269   4.362  13.113 -1.9673  0.0859 -1.2180
19497TIP3    H279907   5.276   4.339  12.963  2.3012 -0.3864 -1.0468
19498TIP3   OH279908   0.206   4.310  16.757  0.5260 -0.3499  0.2336
19498TIP3    H179909   0.113   4.327  16.775  0.6587 -0.3844  0.9729
19498TIP3    H279910   0.251   4.338  16.836  0.9667 -2.1118  0.6627
19499TIP3   OH279911   1.894   5.124  14.291 -0.6141 -0.4504 -0.1171
19499TIP3    H179912   1.923   5.179  14.217  0.5260 -0.6225  0.1778
19499TIP3    H279913   1.824   5.070  14.254 -0.7857  0.2077 -0.7925
19500TIP3   OH279914   4.848   2.606   3.203 -0.1137 -0.2854  0.0481
19500TIP3    H179915   4.842   2.595   3.108 -1.3311 -1.1563  0.2109
19500TIP3    H279916   4.775   2.556   3.238  1.3373 -1.4620  1.5780
19501TIP3   OH279917   5.289   1.007  12.213 -0.4948  0.0258  0.0508
19501TIP3    H179918   5.198   1.024  12.188 -0.3954  2.0327  0.8315
19501TIP3    H279919   5.334   0.991  12.130 -1.4476 -0.4702 -0.3878
19502TIP3   OH279920   4.365   4.182   1.320 -0.2055  0.4022 -0.5464
19502TIP3    H179921   4.434   4.219   1.266 -1.3415  1.5649 -1.2707
19502TIP3    H279922   4.338   4.254   1.377 -0.5483 -0.1450 -0.0141
19503TIP3   OH279923   2.986   4.836  11.661  0.0676 -0.3096  0.3824
19503TIP3    H179924   3.076   4.857  11.638  0.3614 -1.0466  0.8153
19503TIP3    H279925   2.953   4.784  11.588  0.6480 -1.7180  1.0706
19504TIP3   OH279926   5.855   6.427  15.538  0.2862  0.5055 -0.1162
19504TIP3    H179927   5.783   6.488  15.522 -1.7236 -1.7973 -0.5681
19504TIP3    H279928   5.923   6.453  15.475 -0.6868  1.9132 -0.6418
19505TIP3   OH279929   3.764   6.234   3.173  0.1140 -0.2088 -0.4677
19505TIP3    H179930   3.782   6.293   3.100  1.4457 -0.4076 -0.3265
19505TIP3    H279931   3.794   6.282   3.251  0.3998 -0.7236 -0.2564
19506TIP3   OH279932   0.361   2.525  17.219 -0.4275 -0.3780  0.2172
19506TIP3    H179933   0.296   2.535  17.289  1.6458  0.8044  2.1026
19506TIP3    H279934   0.393   2.613  17.203  1.9564 -1.0895  0.6434
19507TIP3   OH279935   0.874   6.344   0.968  0.6784 -0.6525  0.4468
19507TIP3    H179936   0.867   6.274   0.903 -0.7321 -1.5270  1.4849
19507TIP3    H279937   0.963   6.333   1.004  1.6529  0.1371 -1.5862
19508TIP3   OH279938   1.176   2.274   2.748 -0.4926 -0.0447  0.2127
19508TIP3    H179939   1.184   2.357   2.795 -0.8658  0.2967 -0.3168
19508TIP3    H279940   1.092   2.238   2.777 -0.1319 -0.4427  0.7644
19509TIP3   OH279941   5.719   3.058  12.301  0.5867  0.4417  0.2357
19509TIP3    H179942   5.794   3.077  12.244 -0.0478 -0.6371 -1.0019
19509TIP3    H279943   5.693   3.144  12.334  1.1558  1.0704 -0.8754
19510TIP3   OH279944   2.752   0.134  13.627  0.3297 -0.8128  0.5030
19510TIP3    H179945   2.704   0.056  13.656 -0.2536 -0.9671 -0.8301
19510TIP3    H279946   2.693   0.177  13.566  1.4693 -0.4264 -0.3617
19511TIP3   OH279947   1.290   0.236  15.183  0.2663  0.6875  0.4764
19511TIP3    H179948   1.343   0.273  15.254 -0.8111 -1.1209  2.3647
19511TIP3    H279949   1.263   0.150  15.217 -0.3388 -0.2364 -2.1591
19512TIP3   OH279950   6.269   5.095  10.996 -0.0070 -0.4458  0.4320
19512TIP3    H179951   6.240   5.029  11.059  1.7324 -1.0768  0.6335
19512TIP3    H279952   6.275   5.048  10.913 -2.2682  0.3771 -0.2680
19513TIP3   OH279953   2.420   3.375  16.342 -0.2235  0.0319 -0.6498
19513TIP3    H179954   2.354   3.377  16.272 -1.0495  0.3246  0.1288
19513TIP3    H279955   2.435   3.467  16.363 -0.1778 -0.0659 -0.2575
19514TIP3   OH279956   4.476   2.395   2.533  0.3820  0.0894  0.3161
19514TIP3    H179957   4.476   2.490   2.544  0.5423  0.3104 -1.4316
19514TIP3    H279958   4.388   2.369   2.560  0.5131  0.6385  1.3541
19515TIP3   OH279959   4.548   4.472  12.103 -0.0068  0.4177  0.3124
19515TIP3    H179960   4.530   4.481  12.009  1.3713 -0.9028 -0.1381
19515TIP3    H279961   4.621   4.531  12.119  0.0140  0.3555  0.4478
19516TIP3   OH279962   4.989   2.768  13.417 -0.2327  0.2747 -0.1683
19516TIP3    H179963   4.982   2.733  13.328 -3.0322 -0.8374  0.3866
19516TIP3    H279964   4.971   2.694  13.474 -0.9414  1.4800  1.2334
19517TIP3   OH279965   0.933   0.074   1.974 -0.3450  0.6251  0.0354
19517TIP3    H179966   0.889   0.049   2.056 -1.4527 -1.1882 -1.0325
19517TIP3    H279967   0.974  -0.007   1.943 -0.0315  1.2462 -1.2468
19518TIP3   OH279968   4.241   6.637  16.348  1.1209 -0.1362 -0.5721
19518TIP3    H179969   4.336   6.648  16.348  1.1251 -0.0598 -1.4656
19518TIP3    H279970   4.218   6.635  16.255  0.3802 -1.2855 -0.3825
19519TIP3   OH279971   1.069   4.784   1.909 -0.0882  0.4658  0.2934
19519TIP3    H179972   1.018   4.852   1.953 -2.8342  0.3978 -2.4039
19519TIP3    H279973   1.095   4.823   1.826 -1.0807 -1.4174 -1.0049
19520TIP3   OH279974   2.742   2.932   5.567  0.1822  0.3046  0.1367
19520TIP3    H179975   2.816   2.911   5.624  0.7071 -0.2517 -0.7229
19520TIP3    H279976   2.749   3.027   5.553 -1.0097  0.8000  2.4044
19521TIP3   OH279977   3.756   0.293   3.561 -0.1863  0.4580  0.0151
19521TIP3    H179978   3.766   0.204   3.595 -0.6679  0.3025 -0.2369
19521TIP3    H279979   3.722   0.343   3.636  0.9299  0.6370  0.4142
19522TIP3   OH279980   2.901   5.931   4.753  0.5015  0.0026  0.8788
19522TIP3    H179981   2.913   5.958   4.844 -0.0833 -0.1128  0.9973
19522TIP3    H279982   2.829   5.985   4.721  0.5656 -0.1047  0.5463
19523TIP3   OH279983   0.272   1.727  11.562  0.2583  0.1417  0.5949
19523TIP3    H179984   0.287   1.783  11.485  0.0813 -1.3764 -0.5814
19523TIP3    H279985   0.178   1.711  11.562  0.3246 -0.2409  0.8699
19524TIP3   OH279986   4.968   2.346  17.169  0.2540 -0.1807 -0.3903
19524TIP3    H179987   4.885   2.329  17.124 -1.0121  0.2485  1.6431
19524TIP3    H279988   4.953   2.315  17.258  2.2129  0.1315  0.0801
19525TIP3   OH279989   3.142   0.229  13.028  0.5701  0.1502  0.5825
19525TIP3    H179990   3.047   0.231  13.016  0.5047 -1.0727  0.8548
19525TIP3    H279991   3.155   0.220  13.122  0.9510 -0.2458  0.4951
19526TIP3   OH279992   6.146   1.523  13.681 -0.0422  0.2071 -0.4174
19526TIP3    H179993   6.198   1.499  13.604  1.8023  0.4696  0.7020
19526TIP3    H279994   6.085   1.450  13.692  1.0404 -0.8126 -0.9262
19527TIP3   OH279995   3.817   4.979  13.598 -0.1363  0.2068 -0.0625
19527TIP3    H179996   3.881   4.916  13.630 -0.3336  1.5958  3.4733
19527TIP3    H279997   3.742   4.969  13.656 -0.1816  3.6214  0.6606
19528TIP3   OH279998   5.254   6.653  15.868 -0.1186 -0.2173  0.2656
19528TIP3    H179999   5.334   6.617  15.830 -0.4325  0.4868 -1.1189
19528TIP3    H280000   5.243   6.739  15.827 -1.2690 -0.0430  0.8706
19529TIP3   OH280001   6.487   1.212  14.404  0.4457 -0.1433 -0.3094
19529TIP3    H180002   6.475   1.285  14.344  1.6667  0.2698 -0.0693
19529TIP3    H280003   6.582   1.200  14.409  0.2934 -1.1958  0.3099
19530TIP3   OH280004   5.524   1.170   0.726 -0.1231 -0.0339  0.2401
19530TIP3    H180005   5.573   1.240   0.683 -0.6279  0.8674  1.0961
19530TIP3    H280006   5.577   1.147   0.802 -0.8259  0.7022  0.9740
19531TIP3   OH280007   5.404   2.588  15.966 -0.4092  0.7493  0.7385
19531TIP3    H180008   5.442   2.509  16.007  0.7233  2.3540  2.9993
19531TIP3    H280009   5.329   2.610  16.022 -2.3878 -0.1342 -1.4145
19532TIP3   OH280010   5.147   5.293  11.985  0.2581 -0.7435  0.0885
19532TIP3    H180011   5.140   5.280  11.890 -0.4847 -1.5805  0.2430
19532TIP3    H280012   5.210   5.364  11.995 -2.4082  2.0645 -1.1935
19533TIP3   OH280013   1.317   4.621  12.218 -0.0333 -0.6394 -0.3277
19533TIP3    H180014   1.387   4.559  12.202  0.1156 -0.3171 -0.9540
19533TIP3    H280015   1.351   4.705  12.186  0.4797  0.1668  2.1193
19534TIP3   OH280016   3.418   2.303  12.689 -0.4913  0.0490 -0.2768
19534TIP3    H180017   3.444   2.221  12.732 -0.0123  0.5072  0.3297
19534TIP3    H280018   3.346   2.278  12.632  1.0217 -1.2007 -1.7248
19535TIP3   OH280019   4.354   4.847  13.192  0.4780  0.5000 -0.1477
19535TIP3    H180020   4.329   4.807  13.109 -0.5726  0.3332  0.2358
19535TIP3    H280021   4.273   4.886  13.226  0.7136 -0.0792  1.1455
19536TIP3   OH280022   0.041   4.422   2.126  0.8490 -0.1486 -0.3389
19536TIP3    H180023   0.065   4.372   2.049  0.0219  0.4979 -1.0378
19536TIP3    H280024  -0.053   4.438   2.116  0.9872  1.0887  0.1170
19537TIP3   OH280025   0.870   6.255   2.853 -0.7560 -0.0864 -0.2203
19537TIP3    H180026   0.922   6.203   2.915 -0.8457 -0.0299 -0.0983
19537TIP3    H280027   0.804   6.298   2.907 -0.4666  0.4340 -0.2725
19538TIP3   OH280028   4.095   0.490   6.065 -0.1254  0.3940  0.2482
19538TIP3    H180029   4.125   0.402   6.044 -2.5030 -0.3912 -0.1249
19538TIP3    H280030   4.173   0.545   6.052  1.4226 -1.6068  0.5196
19539TIP3   OH280031   4.237   1.927  15.882  0.2489  0.7706  0.1782
19539TIP3    H180032   4.183   1.854  15.851  0.7301  0.7436 -0.6284
19539TIP3    H280033   4.319   1.886  15.910 -0.2110  0.7878  1.5939
19540TIP3   OH280034   3.665   2.603   5.972  0.6520 -0.4380 -0.6254
19540TIP3    H180035   3.754   2.637   5.972  0.6362 -0.3030 -2.3745
19540TIP3    H280036   3.610   2.678   5.993  0.8192  0.0124 -1.7194
19541TIP3   OH280037   3.864   4.019  13.809  0.0169 -0.0472 -0.4029
19541TIP3    H180038   3.958   4.030  13.826 -0.0015  1.1285 -0.9487
19541TIP3    H280039   3.860   3.949  13.744  0.4472 -0.7742  0.3404
19542TIP3   OH280040   2.058   1.237  12.163  0.2205  0.4016 -0.2877
19542TIP3    H180041   2.100   1.173  12.106  1.4473  1.5336 -0.7005
19542TIP3    H280042   1.978   1.262  12.116  1.1085  1.1643 -1.4474
19543TIP3   OH280043   1.178   6.729   6.255  0.1745 -0.1264  0.1994
19543TIP3    H180044   1.190   6.713   6.162  0.1363  1.9375 -0.2121
19543TIP3    H280045   1.106   6.791   6.260  0.7480  0.4914  1.5399
19544TIP3   OH280046   4.067   4.842  12.295  0.5076 -0.6255 -0.2062
19544TIP3    H180047   4.088   4.799  12.377 -0.1972 -0.1256  0.2435
19544TIP3    H280048   3.994   4.901  12.316 -0.1716 -1.0237 -1.3360
19545TIP3   OH280049   0.873   3.543  10.990 -0.1415  0.1913 -0.3983
19545TIP3    H180050   0.920   3.478  10.939 -1.5762 -2.0733  0.9917
19545TIP3    H280051   0.788   3.552  10.947 -0.0846  0.9005 -0.3798
19546TIP3   OH280052   5.094   2.413  14.692  0.5366 -0.3257 -0.0908
19546TIP3    H180053   5.131   2.497  14.666 -0.4342 -0.1009 -0.8233
19546TIP3    H280054   5.146   2.348  14.644 -1.2579  0.0791 -2.8238
19547TIP3   OH280055   3.771   3.351  14.664  0.1285  0.1705 -0.0591
19547TIP3    H180056   3.756   3.258  14.684  2.2950  0.1863  2.2429
19547TIP3    H280057   3.744   3.397  14.744 -1.0044  1.5623 -1.2013
19548TIP3   OH280058   0.653   1.308  16.144  0.1777  0.3595  0.5893
19548TIP3    H180059   0.614   1.221  16.138  0.1493  0.4267 -0.4690
19548TIP3    H280060   0.578   1.368  16.135  0.3856  0.4864 -0.4124
19549TIP3   OH280061   4.351   6.637  15.302 -0.6066  0.8097 -0.0757
19549TIP3    H180062   4.372   6.611  15.213 -0.5374 -1.4667  0.5375
19549TIP3    H280063   4.265   6.679  15.295  0.3509  2.7274 -1.4544
19550TIP3   OH280064   0.972   0.354   1.822 -0.2147  0.3810 -0.4680
19550TIP3    H180065   0.948   0.396   1.905  1.2249 -0.1358  0.2456
19550TIP3    H280066   0.963   0.260   1.839  0.9201  0.2305 -0.5913
19551TIP3   OH280067   0.875   1.355   4.639  0.8172 -0.5496  0.5205
19551TIP3    H180068   0.947   1.418   4.643  1.9211 -1.7224  0.1277
19551TIP3    H280069   0.908   1.279   4.688  0.3381 -1.5553 -0.6458
19552TIP3   OH280070   1.203   4.006  14.320 -0.6364 -0.3350  0.1430
19552TIP3    H180071   1.119   3.985  14.360 -1.1438 -0.3498 -0.8856
19552TIP3    H280072   1.191   4.092  14.281 -0.3184 -0.5249 -0.3928
19553TIP3   OH280073   4.402   0.892   1.732 -0.0806  0.1947  0.0675
19553TIP3    H180074   4.362   0.807   1.750  0.7112 -0.0219  0.8667
19553TIP3    H280075   4.350   0.928   1.659 -0.2617 -1.0749 -0.4571
19554TIP3   OH280076   5.242   1.082  13.860 -0.1514 -0.0598  0.2022
19554TIP3    H180077   5.193   1.130  13.927 -0.6609  0.5908 -0.6187
19554TIP3    H280078   5.196   1.100  13.778  0.6134 -0.6277 -0.3764
19555TIP3   OH280079   5.567   3.470   6.301 -0.2508  0.1106 -0.1788
19555TIP3    H180080   5.577   3.563   6.319  2.7572 -0.1790  0.1323
19555TIP3    H280081   5.627   3.427   6.362 -0.3087 -1.8894 -1.4255
19556TIP3   OH280082   2.348   6.436   3.757  0.1000  0.2271  0.3232
19556TIP3    H180083   2.260   6.402   3.741 -0.9809  2.1387  1.7447
19556TIP3    H280084   2.389   6.371   3.814 -1.3721  0.5180  1.7932
19557TIP3   OH280085   1.894   2.759   2.269 -0.2681  0.4002 -0.3070
19557TIP3    H180086   1.844   2.684   2.300 -1.1379  0.4920 -1.3905
19557TIP3    H280087   1.848   2.835   2.304 -1.3357  0.5091 -1.8319
19558TIP3   OH280088   4.141   5.164  14.383  0.2788  0.1408 -0.4584
19558TIP3    H180089   4.148   5.094  14.447 -3.4048  1.4301  1.6388
19558TIP3    H280090   4.094   5.125  14.310  0.9648 -0.3061 -0.6733
19559TIP3   OH280091   2.691   5.301   0.685  0.6349  0.3057  0.3580
19559TIP3    H180092   2.764   5.336   0.634  1.5312  0.3544  1.6180
19559TIP3    H280093   2.639   5.252   0.622  1.5309  0.6092 -0.6530
19560TIP3   OH280094   5.119   2.664   4.298  0.3244 -0.0311 -0.2224
19560TIP3    H180095   5.032   2.703   4.308 -0.2028 -1.4323  1.1161
19560TIP3    H280096   5.109   2.602   4.225 -0.5317 -1.9271  1.4099
19561TIP3   OH280097   6.302   3.672   3.652  0.0193 -0.5244  0.0722
19561TIP3    H180098   6.341   3.664   3.565 -0.7640 -1.8871 -0.1939
19561TIP3    H280099   6.308   3.584   3.689 -0.9624 -0.3005  0.8040
19562TIP3   OH280100   3.466   0.123  15.610  0.0153  0.2772  0.2328
19562TIP3    H180101   3.427   0.182  15.546  0.4270  0.8985  0.5457
19562TIP3    H280102   3.431   0.036  15.587 -0.5266  0.6227 -0.2815
19563TIP3   OH280103   2.396   3.820  15.594 -0.1100  0.1221  0.0819
19563TIP3    H180104   2.366   3.890  15.651  0.8889  0.5976  0.0420
19563TIP3    H280105   2.414   3.747  15.653  0.0583  0.3141  0.2672
19564TIP3   OH280106   0.589   6.516   5.385  0.4918 -0.4638  0.3686
19564TIP3    H180107   0.630   6.490   5.467 -0.2579 -0.2772  0.8052
19564TIP3    H280108   0.495   6.505   5.400  0.3966 -1.5875 -0.8691
19565TIP3   OH280109   4.252   4.658   0.531 -0.0107 -0.5502 -0.0644
19565TIP3    H180110   4.166   4.660   0.490  0.0240 -2.3846 -0.3024
19565TIP3    H280111   4.254   4.736   0.587 -0.8000  0.9370 -1.9944
19566TIP3   OH280112   3.951   1.961   6.453  0.5907 -0.0663 -0.0562
19566TIP3    H180113   4.040   1.985   6.476  0.8417 -1.5061  0.5727
19566TIP3    H280114   3.919   1.910   6.527 -0.0207 -1.3270 -1.1415
19567TIP3   OH280115   1.049   6.678   4.557  0.2830 -0.3601 -0.4860
19567TIP3    H180116   0.965   6.644   4.587  1.1336 -2.6842 -0.6030
19567TIP3    H280117   1.027   6.761   4.514 -1.5850  0.5072  1.8911
19568TIP3   OH280118   1.620   3.542   4.663 -0.2357  0.0232  0.0625
19568TIP3    H180119   1.596   3.520   4.752  1.2748 -0.1253  0.4690
19568TIP3    H280120   1.663   3.627   4.670 -0.6481  0.2954 -0.6150
19569TIP3   OH280121   3.081   6.643  16.933  0.4302  0.2289  0.1145
19569TIP3    H180122   3.108   6.567  16.985 -0.2591  0.6022  1.0579
19569TIP3    H280123   3.083   6.716  16.995 -0.5847  0.6575 -0.3333
19570TIP3   OH280124   6.732   1.760   2.652  0.0228  0.1864  0.2583
19570TIP3    H180125   6.694   1.673   2.659 -1.1097  0.6657  0.2158
19570TIP3    H280126   6.684   1.802   2.580  0.0362  1.1001  0.7663
19571TIP3   OH280127   6.604   6.410   6.800 -0.0580  0.2733 -0.2163
19571TIP3    H180128   6.628   6.434   6.890 -2.3658 -1.3321  0.9372
19571TIP3    H280129   6.676   6.354   6.770  1.8435  2.6081 -0.2872
19572TIP3   OH280130   5.144   6.748  11.808 -0.4078 -0.2265 -0.4618
19572TIP3    H180131   5.117   6.805  11.880  0.4831 -1.4894  0.9296
19572TIP3    H280132   5.232   6.719  11.832 -1.2479 -3.0675 -0.5324
19573TIP3   OH280133   3.145   0.781  16.745  0.0205 -0.2311 -0.5371
19573TIP3    H180134   3.096   0.834  16.808  1.2807 -0.4959  0.7101
19573TIP3    H280135   3.180   0.844  16.682  1.5673  0.5037  0.9622
19574TIP3   OH280136   3.520   0.738   4.380 -0.0581  0.6767  0.6872
19574TIP3    H180137   3.524   0.786   4.298  0.3145 -0.5145 -0.0117
19574TIP3    H280138   3.556   0.652   4.360 -0.7057  0.0890  1.8980
19575TIP3   OH280139   0.848   2.076  12.045 -0.1248 -0.2427 -0.4949
19575TIP3    H180140   0.867   2.096  12.137  1.7250 -0.4842 -0.7963
19575TIP3    H280141   0.794   2.150  12.016  1.6870  1.3502  0.0177
19576TIP3   OH280142   5.256   6.658  16.768 -0.1285  0.1032 -0.1538
19576TIP3    H180143   5.335   6.709  16.747  0.9968 -0.2453  2.7202
19576TIP3    H280144   5.187   6.697  16.715  1.9826  0.3074 -2.9418
19577TIP3   OH280145   2.267   3.485   1.375 -0.1813  0.8195  0.1827
19577TIP3    H180146   2.262   3.428   1.298  1.4683  0.7654  0.0823
19577TIP3    H280147   2.349   3.460   1.417 -0.2197  2.0492  1.0165
19578TIP3   OH280148   6.602   3.662  12.907 -0.1794  0.2359 -0.9837
19578TIP3    H180149   6.638   3.660  12.996  1.1644  1.6763 -1.4626
19578TIP3    H280150   6.647   3.591  12.862  1.1583  1.1738 -1.2031
19579TIP3   OH280151   1.909   5.605   1.167  0.4888  0.0985 -0.0420
19579TIP3    H180152   1.837   5.620   1.106  0.4736  1.8155  0.3295
19579TIP3    H280153   1.912   5.510   1.179 -2.3592 -0.0005  0.6771
19580TIP3   OH280154   1.172   0.575  14.760  0.5809  0.8161 -0.0954
19580TIP3    H180155   1.221   0.578  14.677  0.7921 -0.7364 -0.0517
19580TIP3    H280156   1.212   0.503  14.809 -0.1458  1.1230  0.9936
19581TIP3   OH280157   3.254   3.500   4.437  0.2945 -0.0624 -0.1303
19581TIP3    H180158   3.339   3.515   4.479  1.2163  1.0867 -2.2676
19581TIP3    H280159   3.262   3.414   4.396  0.4615  0.0769 -0.3924
19582TIP3   OH280160   1.712   4.040  16.001 -0.5244  0.1974  0.0916
19582TIP3    H180161   1.715   4.046  16.097  0.9572 -0.4564  0.0997
19582TIP3    H280162   1.647   4.106  15.976 -1.5825 -0.2167  1.5906
19583TIP3   OH280163   3.929   3.246  13.581  0.0411 -0.4696  0.3265
19583TIP3    H180164   4.021   3.241  13.608 -0.1063 -0.7355  0.7741
19583TIP3    H280165   3.919   3.337  13.550  0.6852 -0.6913 -0.5926
19584TIP3   OH280166   1.570   4.850   3.891 -0.4089  0.1319  0.0339
19584TIP3    H180167   1.545   4.872   3.801  1.2575 -0.5788 -0.6465
19584TIP3    H280168   1.526   4.915   3.945 -2.0109  0.1486 -1.2281
19585TIP3   OH280169   4.766   0.860  14.885  0.3652  0.2118 -0.5092
19585TIP3    H180170   4.694   0.797  14.883  1.3255 -0.9152 -0.7774
19585TIP3    H280171   4.777   0.881  14.978 -0.2079  0.2791 -0.4536
19586TIP3   OH280172   0.694   3.516  11.886  0.8852  0.0879 -0.2788
19586TIP3    H180173   0.694   3.447  11.953  2.2571  0.8411  0.5490
19586TIP3    H280174   0.767   3.573  11.911 -1.0343  2.6439 -0.1190
19587TIP3   OH280175   6.364   0.153   0.209 -0.2803 -0.5885  0.4118
19587TIP3    H180176   6.390   0.064   0.231  1.9940 -0.5509 -1.6186
19587TIP3    H280177   6.445   0.195   0.179 -1.8769  0.9925 -2.1639
19588TIP3   OH280178   0.004   5.671   3.318 -0.0390 -0.0143  0.5077
19588TIP3    H180179   0.031   5.669   3.226  1.2308 -0.8863  0.8735
19588TIP3    H280180   0.051   5.745   3.355 -1.0179  0.7134  0.3446
19589TIP3   OH280181   3.179   4.150   1.436  0.3141  0.4326 -0.0450
19589TIP3    H180182   3.141   4.140   1.348 -1.2662 -1.9716  0.8201
19589TIP3    H280183   3.220   4.066   1.454  1.3332  1.1738  1.2419
19590TIP3   OH280184   0.473   2.611   4.649  0.3022  0.0987 -0.2576
19590TIP3    H180185   0.401   2.653   4.602 -1.0003 -3.1976 -1.5462
19590TIP3    H280186   0.434   2.585   4.733  0.2818 -0.6658 -0.4901
19591TIP3   OH280187   3.681   3.384  14.914 -0.5965  0.3187  0.2379
19591TIP3    H180188   3.712   3.357  15.001 -1.5131 -2.6527 -0.2635
19591TIP3    H280189   3.586   3.382  14.921 -0.7813 -2.8478 -1.5235
19592TIP3   OH280190   1.668   5.724   5.485 -0.2056 -0.0025 -0.2598
19592TIP3    H180191   1.748   5.760   5.447 -0.0360 -0.1509 -0.0463
19592TIP3    H280192   1.696   5.643   5.528  0.4750  2.2413  3.9481
19593TIP3   OH280193   4.493   2.239  15.422 -0.3231 -0.0284 -0.4902
19593TIP3    H180194   4.440   2.190  15.358 -1.7420 -0.0023  0.6199
19593TIP3    H280195   4.449   2.323  15.429  0.8669  0.6387 -0.7769
19594TIP3   OH280196   5.403   3.337   3.696 -0.0127 -0.1700  0.6639
19594TIP3    H180197   5.363   3.252   3.680  1.6177 -0.6623 -1.0445
19594TIP3    H280198   5.415   3.340   3.791 -3.8709 -0.0205  1.3037
19595TIP3   OH280199   6.436   4.139   3.859 -0.0235  0.1784 -0.2725
19595TIP3    H180200   6.392   4.157   3.777  0.7634  0.1934 -0.7004
19595TIP3    H280201   6.383   4.070   3.900 -1.3392  1.2983 -0.0169
19596TIP3   OH280202   0.858   4.998  16.035  0.0185  1.0511 -0.1771
19596TIP3    H180203   0.826   4.925  15.982  0.0592 -0.6057  1.9889
19596TIP3    H280204   0.797   5.005  16.108  2.1572  0.5595  1.7843
19597TIP3   OH280205   2.797   1.584  16.279 -0.4752 -0.4058  0.2943
19597TIP3    H180206   2.740   1.659  16.296 -2.2165 -1.8317  1.2192
19597TIP3    H280207   2.739   1.508  16.290  1.4621 -1.9243  0.5338
19598TIP3   OH280208   6.529   1.370  15.004 -0.0928 -0.2837  0.0940
19598TIP3    H180209   6.558   1.400  14.917 -2.0411 -0.0921 -0.5236
19598TIP3    H280210   6.441   1.337  14.990  0.6109 -3.0519  1.4718
19599TIP3   OH280211   1.872   2.628  11.674 -0.4697  0.0321 -0.5014
19599TIP3    H180212   1.884   2.533  11.666  2.2444  0.3420 -0.7443
19599TIP3    H280213   1.915   2.650  11.757 -0.8365  1.1188 -0.5883
19600TIP3   OH280214   3.458   6.561   4.058 -0.8309 -0.2410 -0.1270
19600TIP3    H180215   3.400   6.634   4.037 -1.8863 -0.8863  0.4605
19600TIP3    H280216   3.492   6.581   4.145  0.1796  0.3386 -0.6385
19601TIP3   OH280217   2.062   3.791  16.203  0.5311 -0.1324  0.1149
19601TIP3    H180218   2.067   3.723  16.270 -0.1053 -0.0023  0.3108
19601TIP3    H280219   2.002   3.856  16.240  0.0268 -0.1452 -0.6518
19602TIP3   OH280220   2.045   6.509   2.244  0.3256 -0.1295  0.2946
19602TIP3    H180221   2.067   6.575   2.178 -0.0926 -0.2654  0.0174
19602TIP3    H280222   2.050   6.556   2.327  0.4510  0.1455  0.1339
19603TIP3   OH280223   2.490   5.939   5.939  0.2054 -0.3144  0.3596
19603TIP3    H180224   2.457   5.850   5.936 -0.1102 -0.1690 -1.3978
19603TIP3    H280225   2.582   5.931   5.913  0.1072 -0.1094 -0.0620
19604TIP3   OH280226   0.409   1.990  16.192  0.0240  0.3180 -0.2789
19604TIP3    H180227   0.497   2.011  16.224 -0.4167  1.8399  0.0112
19604TIP3    H280228   0.422   1.968  16.100  0.7338  0.3081 -0.1871
19605TIP3   OH280229   4.653   6.422   4.839  0.3626 -0.0100  0.7953
19605TIP3    H180230   4.619   6.353   4.781  0.7418  0.6100 -0.1863
19605TIP3    H280231   4.602   6.500   4.816 -1.6145 -0.3720  3.4024
19606TIP3   OH280232   3.080   4.313   2.949  0.2601  0.0436  0.0655
19606TIP3    H180233   3.167   4.353   2.945  0.4112 -0.4028 -2.3621
19606TIP3    H280234   3.028   4.360   2.885 -1.5164  0.6304  1.8246
19607TIP3   OH280235   5.002   0.567  12.887 -0.1930 -0.6768 -0.1363
19607TIP3    H180236   5.083   0.615  12.870 -0.5525 -0.5655 -1.6778
19607TIP3    H280237   5.014   0.483  12.843 -1.1008 -0.4550 -0.8463
19608TIP3   OH280238   5.403   1.553  12.337  0.6794  0.0828 -0.1316
19608TIP3    H180239   5.443   1.609  12.403  0.3000  2.0153 -1.4632
19608TIP3    H280240   5.477   1.520  12.286  0.7969  3.2696 -2.2912
19609TIP3   OH280241   1.894   2.926   0.228  0.3893 -0.1321  0.0627
19609TIP3    H180242   1.958   2.856   0.239 -0.2863 -0.6688  0.7422
19609TIP3    H280243   1.907   2.982   0.305  1.3533  0.8567 -0.7984
19610TIP3   OH280244   1.483   4.586  11.615  0.0883 -0.2583 -0.6393
19610TIP3    H180245   1.528   4.527  11.676  1.5835  2.9733  1.6704
19610TIP3    H280246   1.474   4.535  11.534  1.8666 -3.3411  0.9139
19611TIP3   OH280247   5.003   4.259   6.031 -0.2258 -0.1843 -0.1110
19611TIP3    H180248   4.936   4.319   5.997  0.7722  1.0273 -0.0203
19611TIP3    H280249   5.069   4.256   5.962  0.9052  0.7868  0.8950
19612TIP3   OH280250   3.108   4.618  12.112 -0.0257  0.4117  0.3532
19612TIP3    H180251   3.022   4.577  12.116 -1.6601  3.4290 -0.8574
19612TIP3    H280252   3.129   4.640  12.203  0.7997 -2.5983  1.0117
19613TIP3   OH280253   2.715   4.383   0.716 -0.6192 -0.2051 -0.1289
19613TIP3    H180254   2.665   4.418   0.789 -0.8836  0.0515 -0.4295
19613TIP3    H280255   2.734   4.293   0.740 -0.3353  0.0011  0.4465
19614TIP3   OH280256   0.631   4.698  14.265  0.1120 -0.0005  0.4030
19614TIP3    H180257   0.565   4.630  14.259 -0.0432  0.1306  0.6201
19614TIP3    H280258   0.623   4.733  14.354 -0.3188  0.8060  0.0620
19615TIP3   OH280259   3.150   5.452  12.979 -0.3028 -0.1879  0.0064
19615TIP3    H180260   3.231   5.425  13.023  0.1472  0.2095 -0.5713
19615TIP3    H280261   3.162   5.545  12.963  0.5047 -0.7160 -2.9502
19616TIP3   OH280262   3.159   4.526  14.047 -0.0796  0.7078 -0.2250
19616TIP3    H180263   3.223   4.560  13.985 -1.1754  1.2823 -1.0732
19616TIP3    H280264   3.085   4.499  13.993 -0.5150 -0.0718  0.7180
19617TIP3   OH280265   4.960   1.825  15.772  0.1543 -0.9685 -0.4567
19617TIP3    H180266   4.919   1.749  15.732  1.1523 -1.9482  0.3238
19617TIP3    H280267   4.914   1.900  15.733  0.2984 -1.8860 -2.5393
19618TIP3   OH280268   4.972   5.088  11.977  0.3350 -0.1004 -0.1414
19618TIP3    H180269   5.037   5.154  12.002  1.3258 -0.9257 -0.4742
19618TIP3    H280270   4.975   5.088  11.881 -0.4617  0.1420 -0.1693
19619TIP3   OH280271   0.956   6.565  17.089  0.1541 -0.1667  0.2859
19619TIP3    H180272   0.918   6.649  17.062 -1.6790 -0.9647  0.2651
19619TIP3    H280273   1.017   6.588  17.159  0.4441  1.2757 -0.3946
19620TIP3   OH280274   1.243   3.713  11.006  0.1368  0.1082  0.1156
19620TIP3    H180275   1.148   3.720  11.000  0.1569  1.9694  1.1420
19620TIP3    H280276   1.274   3.804  11.000  1.8345 -0.4420  0.0189
19621TIP3   OH280277   4.146   6.556  14.895 -0.3116  0.6697 -0.3745
19621TIP3    H180278   4.133   6.648  14.872 -1.2641  0.4179 -0.9332
19621TIP3    H280279   4.109   6.508  14.820  0.1760 -0.1664 -0.0912
19622TIP3   OH280280   5.314   2.789  13.096  0.1246  0.3686 -0.0182
19622TIP3    H180281   5.268   2.822  13.019  1.8094  2.0485 -0.3802
19622TIP3    H280282   5.291   2.849  13.166  0.5547  0.3173  0.1716
19623TIP3   OH280283   3.526   3.504  12.644  0.0683  0.0998  0.0906
19623TIP3    H180284   3.577   3.455  12.580 -2.2133 -0.3678 -1.5137
19623TIP3    H280285   3.529   3.594  12.612 -0.7176 -0.0623 -0.4731
19624TIP3   OH280286   3.494   0.642   2.795  0.1663 -0.0337 -0.7640
19624TIP3    H180287   3.540   0.564   2.826  1.8663  0.3312 -2.2691
19624TIP3    H280288   3.428   0.658   2.863  2.0438 -0.7415  1.3481
19625TIP3   OH280289   3.898   5.375   5.780 -0.7252  0.3147  0.4580
19625TIP3    H180290   3.944   5.437   5.724 -1.6778  0.9696  0.3678
19625TIP3    H280291   3.925   5.397   5.869 -0.3548  0.2491  0.3615
19626TIP3   OH280292   5.849   5.385  14.549  0.0091  0.3337 -0.3806
19626TIP3    H180293   5.852   5.379  14.644  2.2381 -1.5540 -0.4803
19626TIP3    H280294   5.764   5.424  14.530 -0.7981  0.0934  2.3400
19627TIP3   OH280295   0.064   5.532   1.986  0.0233  0.0988 -0.1808
19627TIP3    H180296   0.075   5.621   1.955  2.5877  0.2756  1.0080
19627TIP3    H280297  -0.031   5.524   2.002 -0.6884  1.5445 -3.1231
19628TIP3   OH280298   4.149   0.378  12.616  0.3056  0.1715 -0.1148
19628TIP3    H180299   4.059   0.369  12.582  0.1638 -0.6370  0.4473
19628TIP3    H280300   4.150   0.325  12.695  1.1125  0.6911  0.2346
19629TIP3   OH280301   6.651   0.238   0.499 -0.4239 -0.0250  0.2851
19629TIP3    H180302   6.592   0.164   0.484  0.5530 -0.6284 -0.7123
19629TIP3    H280303   6.732   0.199   0.530  0.2315  0.5697 -0.6205
19630TIP3   OH280304   4.442   1.518   2.381 -0.6456 -0.2384  0.7088
19630TIP3    H180305   4.481   1.527   2.468  1.1153 -2.1208  0.1758
19630TIP3    H280306   4.476   1.593   2.332 -0.2723 -0.1137  1.1494
19631TIP3   OH280307   3.977   2.608  14.995  0.6405  0.0452 -0.4667
19631TIP3    H180308   3.885   2.617  15.020  0.9223  2.0979  0.0266
19631TIP3    H280309   4.024   2.608  15.079  1.1443 -0.2865 -0.7471
19632TIP3   OH280310   0.619   3.178  14.906  0.3460  0.6354 -0.6139
19632TIP3    H180311   0.526   3.163  14.889 -0.3769 -0.2866  3.2696
19632TIP3    H280312   0.659   3.092  14.895  0.0455  0.2496  1.0530
19633TIP3   OH280313   4.197   2.814   1.954 -0.0472  0.3632  0.3283
19633TIP3    H180314   4.215   2.763   1.875  1.5071 -0.2239  1.0256
19633TIP3    H280315   4.123   2.770   1.995 -0.1694  0.0329 -0.2329
19634TIP3   OH280316   1.255   2.437  15.086  0.1859  0.0454 -0.3315
19634TIP3    H180317   1.198   2.472  15.017 -0.3032  2.0849  1.0250
19634TIP3    H280318   1.283   2.514  15.136  0.2214 -1.3737  1.9889
19635TIP3   OH280319   5.127   1.077   2.865  0.3041 -0.1068 -0.0504
19635TIP3    H180320   5.182   1.114   2.934  0.4664  3.2630 -1.7892
19635TIP3    H280321   5.179   1.005   2.829  1.5756  0.1051  1.2855
19636TIP3   OH280322   5.644   1.692   2.498  0.3820 -0.0807 -0.6204
19636TIP3    H180323   5.557   1.654   2.491 -0.3366  1.2977  0.4120
19636TIP3    H280324   5.701   1.618   2.517 -1.0263 -0.6350  1.7840
19637TIP3   OH280325   1.529   2.830  16.459 -0.0797  0.6165  0.2447
19637TIP3    H180326   1.506   2.908  16.409  0.7168  0.4854 -0.3546
19637TIP3    H280327   1.516   2.855  16.550 -0.7828  1.1193  0.0182
19638TIP3   OH280328   3.311   5.301   1.123 -0.4792  0.1924 -0.1486
19638TIP3    H180329   3.233   5.259   1.160  0.2464  0.4712  1.8343
19638TIP3    H280330   3.311   5.276   1.031 -2.8958  0.1764 -0.1978
19639TIP3   OH280331   5.703   0.295  14.197  0.1906 -0.2073 -0.1165
19639TIP3    H180332   5.719   0.203  14.221 -2.3950 -0.6483  0.2470
19639TIP3    H280333   5.673   0.290  14.106 -0.5643  0.2016  0.1089
19640TIP3   OH280334   1.931   3.576  14.653 -0.1922 -0.1437  0.0330
19640TIP3    H180335   1.945   3.580  14.558  0.2420 -0.3549  0.0824
19640TIP3    H280336   1.921   3.667  14.679 -2.7267 -0.1959 -0.5417
19641TIP3   OH280337   1.935   2.764  12.783 -0.1862 -0.0820  0.7883
19641TIP3    H180338   1.997   2.693  12.766  0.4085  0.2859  1.3490
19641TIP3    H280339   1.874   2.762  12.710 -0.5713 -1.5967  1.1313
19642TIP3   OH280340   0.464   5.880  17.432  0.3517 -0.2051  0.1072
19642TIP3    H180341   0.490   5.884  17.340  1.6060 -1.3187  0.3731
19642TIP3    H280342   0.546   5.894  17.480 -0.3512  0.7309  1.0670
19643TIP3   OH280343   2.228   1.544   4.706 -0.0227  0.1483  0.4243
19643TIP3    H180344   2.134   1.525   4.707  0.4931 -4.7896 -3.3887
19643TIP3    H280345   2.266   1.479   4.765  1.1898  2.9795  3.0405
19644TIP3   OH280346   3.063   2.910  15.553  0.4552 -0.2003 -0.2516
19644TIP3    H180347   2.974   2.931  15.526  0.1648  1.9610  1.9445
19644TIP3    H280348   3.119   2.947  15.485 -0.3104  0.7299 -0.3890
19645TIP3   OH280349   1.435   3.896  13.731  0.0353 -0.1055  0.4848
19645TIP3    H180350   1.462   3.953  13.803  0.3260 -0.1831  0.4371
19645TIP3    H280351   1.511   3.840  13.714  0.8406  1.4544 -1.4200
19646TIP3   OH280352   0.662   2.412   5.560 -0.1150 -0.0270  0.5359
19646TIP3    H180353   0.670   2.331   5.509 -1.2053 -0.1913  0.5937
19646TIP3    H280354   0.570   2.435   5.553  0.2991  1.5823 -0.0085
19647TIP3   OH280355   4.130   2.019   1.657 -0.0554  0.7386  0.6865
19647TIP3    H180356   4.174   1.986   1.735  2.6599 -0.8966 -1.3575
19647TIP3    H280357   4.039   1.991   1.667  0.6095 -1.0044  2.4554
19648TIP3   OH280358   4.056   0.967  17.330  0.5163  0.3339  0.1987
19648TIP3    H180359   3.976   0.917  17.345  0.5979 -0.4691 -1.7840
19648TIP3    H280360   4.121   0.924  17.387  0.1436 -0.7115 -0.1338
19649TIP3   OH280361   3.947   4.627   6.946 -0.2695 -0.4182 -0.4010
19649TIP3    H180362   4.028   4.576   6.945 -0.1670 -0.2526 -0.8199
19649TIP3    H280363   3.972   4.712   6.910 -0.8843 -0.7632 -1.6998
19650TIP3   OH280364   2.359   1.212  16.440  1.0051  0.4864 -1.0426
19650TIP3    H180365   2.307   1.250  16.369  1.0470  0.3840 -1.1290
19650TIP3    H280366   2.388   1.128  16.405  0.8120  0.3214 -0.8095
19651TIP3   OH280367   0.480   1.410   4.049 -0.5344  0.2772 -0.4004
19651TIP3    H180368   0.528   1.465   4.111  1.2279  0.8643 -2.1632
19651TIP3    H280369   0.524   1.325   4.054 -1.3344 -0.1071  0.1912
19652TIP3   OH280370   5.189   2.187   6.363 -1.0467  0.4053  0.0889
19652TIP3    H180371   5.219   2.113   6.415  1.3790  1.8624  0.9394
19652TIP3    H280372   5.215   2.166   6.274 -0.8358  0.0127  0.2429
19653TIP3   OH280373   1.918   0.220  13.514 -0.3213  0.3743  0.1924
19653TIP3    H180374   1.992   0.172  13.476  0.4062  1.4750  0.1717
19653TIP3    H280375   1.872   0.155  13.567  1.0413 -0.1779  0.7355
19654TIP3   OH280376   6.733   1.028   4.106 -0.1286 -0.0393 -0.0150
19654TIP3    H180377   6.702   1.021   4.016  2.1486 -3.7596 -0.7092
19654TIP3    H280378   6.684   0.962   4.154  0.8787 -0.2717  0.7371
19655TIP3   OH280379   4.601   1.716  11.395 -0.1125  0.2531  0.4604
19655TIP3    H180380   4.632   1.660  11.325  1.6460 -0.4052  1.7056
19655TIP3    H280381   4.634   1.803  11.373  0.3382  0.0691  0.4026
19656TIP3   OH280382   4.903   2.652  12.252 -0.3625  0.2209  0.3110
19656TIP3    H180383   4.845   2.633  12.326 -0.3696  1.4997  0.6540
19656TIP3    H280384   4.990   2.629  12.284 -0.1425  2.2496  1.3400
19657TIP3   OH280385   6.403   2.621   3.138 -0.6799  0.3109  0.5799
19657TIP3    H180386   6.480   2.677   3.128 -0.4159 -0.2288 -0.5202
19657TIP3    H280387   6.411   2.584   3.226  1.1672 -0.9633 -0.0742
19658TIP3   OH280388   3.903   0.331  12.527  0.6727 -0.0323 -0.2807
19658TIP3    H180389   3.884   0.344  12.435 -0.6910  0.6547  0.0808
19658TIP3    H280390   3.904   0.236  12.539 -2.4024 -0.1545 -0.3939
19659TIP3   OH280391   5.748   0.705  10.709  0.1068  0.0233  0.3118
19659TIP3    H180392   5.774   0.678  10.797  2.3186  1.1893  0.1075
19659TIP3    H280393   5.805   0.654  10.651  0.1909  0.8077 -0.3153
19660TIP3   OH280394   1.185   6.470  14.504 -0.5257  0.3079  0.1446
19660TIP3    H180395   1.138   6.397  14.543  0.5063  1.0622  3.0188
19660TIP3    H280396   1.278   6.452  14.521 -0.3109  3.2443  3.0168
19661TIP3   OH280397   3.596   1.383  14.425  0.6381  0.0173 -0.7134
19661TIP3    H180398   3.611   1.401  14.332  0.5456 -0.0310 -0.7375
19661TIP3    H280399   3.523   1.440  14.449  0.1862 -0.4950 -0.8482
19662TIP3   OH280400   5.320   2.422   6.698  0.2662  0.4704 -0.6436
19662TIP3    H180401   5.260   2.414   6.624  1.9559  1.3535 -2.1906
19662TIP3    H280402   5.361   2.335   6.705 -0.3545  0.1947 -0.2880
19663TIP3   OH280403   3.811   0.292  14.002  0.3638 -0.4284 -0.1079
19663TIP3    H180404   3.817   0.269  13.909 -1.9543 -4.7736  0.5307
19663TIP3    H280405   3.880   0.239  14.043  1.3830  1.4732  0.7507
19664TIP3   OH280406   3.572   1.240  16.892 -0.4379  0.1766 -0.2507
19664TIP3    H180407   3.647   1.295  16.916 -0.7807  0.5337  0.0231
19664TIP3    H280408   3.562   1.179  16.965  0.4998 -0.8574 -0.9619
19665TIP3   OH280409   6.514   5.655   0.227  0.0333 -1.0354  0.2205
19665TIP3    H180410   6.570   5.732   0.225 -1.0361 -0.2315 -0.6575
19665TIP3    H280411   6.568   5.585   0.191  0.3198 -0.1426 -1.1927
19666TIP3   OH280412   3.074   2.404  12.241  0.1013 -0.2312 -0.4711
19666TIP3    H180413   3.168   2.391  12.232 -0.0458 -2.2700  0.4979
19666TIP3    H280414   3.036   2.317  12.231 -1.5046  0.2126  1.1175
19667TIP3   OH280415   5.122   6.672  16.398  0.1151  0.2336 -0.5396
19667TIP3    H180416   5.156   6.603  16.455 -1.6980  0.4662  0.9168
19667TIP3    H280417   5.156   6.650  16.311 -1.0917 -3.0567 -0.3331
19668TIP3   OH280418   1.784   4.185   4.232 -0.3646 -0.7418 -0.0770
19668TIP3    H180419   1.820   4.225   4.310 -2.3138  2.2933 -0.5844
19668TIP3    H280420   1.850   4.201   4.164 -0.9002  1.3696 -0.1626
19669TIP3   OH280421   3.422   5.074  11.782 -0.4869  0.3652  0.0627
19669TIP3    H180422   3.465   5.097  11.865  0.0057 -1.9759  0.5272
19669TIP3    H280423   3.493   5.049  11.724 -0.9685  0.0021 -0.3781
19670TIP3   OH280424   4.351   6.333   1.857  0.1211 -0.2751  0.1871
19670TIP3    H180425   4.326   6.372   1.773 -0.0785  1.6217  1.0682
19670TIP3    H280426   4.383   6.407   1.909 -0.4395 -1.2664  2.0426
19671TIP3   OH280427   1.799   1.475   1.334 -0.4887 -0.2487 -0.1374
19671TIP3    H180428   1.811   1.422   1.255  0.0575 -1.9965  1.0557
19671TIP3    H280429   1.887   1.503   1.358 -0.3801 -1.4826  0.9838
19672TIP3   OH280430   1.286   4.499   0.232  0.5542 -0.4260  0.0597
19672TIP3    H180431   1.249   4.438   0.296  0.3425  0.5583  0.9077
19672TIP3    H280432   1.211   4.552   0.204  0.4978 -1.3073 -1.5724
19673TIP3   OH280433   3.769   1.337   4.049 -0.4095  0.1269 -0.1256
19673TIP3    H180434   3.716   1.416   4.063  0.3735  0.7848 -0.7551
19673TIP3    H280435   3.854   1.359   4.087 -0.0893 -0.2845 -0.5919
19674TIP3   OH280436   0.722   6.549   3.108  0.9857  0.7662 -0.1693
19674TIP3    H180437   0.692   6.625   3.156  0.4534 -0.3706  1.3709
19674TIP3    H280438   0.688   6.474   3.157  1.5127 -0.4719 -1.6086
19675TIP3   OH280439   0.595   4.242  14.457  0.3879 -0.0684  0.2057
19675TIP3    H180440   0.621   4.207  14.543  1.5018  1.0772  0.3712
19675TIP3    H280441   0.521   4.300  14.476 -0.6079 -1.2787  0.1106
19676TIP3   OH280442   3.755   1.046  16.121 -0.2448 -0.1181  0.3703
19676TIP3    H180443   3.789   0.964  16.088  0.6867 -0.7860  2.7431
19676TIP3    H280444   3.833   1.094  16.149 -0.9378  0.4654  1.3533
19677TIP3   OH280445   0.253   5.748   4.676 -0.0431  0.2807  0.3502
19677TIP3    H180446   0.301   5.819   4.719  1.3261  0.8153 -1.8987
19677TIP3    H280447   0.314   5.675   4.675  0.5189  0.7152 -1.8370
19678TIP3   OH280448   4.388   4.799   4.289 -0.0199  0.3434 -0.4142
19678TIP3    H180449   4.384   4.875   4.348  1.7731 -0.0494  0.2710
19678TIP3    H280450   4.435   4.830   4.212  1.2276 -0.1735  0.1064
19679TIP3   OH280451   4.025   3.842   2.879  1.1759  0.4381 -0.1123
19679TIP3    H180452   3.993   3.924   2.840  1.4707  0.7293  0.2471
19679TIP3    H280453   3.969   3.828   2.955  2.3592  1.3684  0.9797
19680TIP3   OH280454   0.118   2.793  17.148 -0.0276 -0.1198 -0.5380
19680TIP3    H180455   0.132   2.788  17.053  0.5524  0.2982 -0.4800
19680TIP3    H280456   0.023   2.790  17.158 -0.1408  0.7980 -1.2087
19681TIP3   OH280457   3.632   1.464   2.473 -0.6237 -0.4556  0.0881
19681TIP3    H180458   3.609   1.409   2.548 -1.3846  0.4608  0.5490
19681TIP3    H280459   3.615   1.554   2.503 -0.2817 -0.0300 -0.9489
19682TIP3   OH280460   3.595   0.794   3.093  0.4021 -0.1323  0.0957
19682TIP3    H180461   3.665   0.747   3.138  0.0595 -0.4615  0.2817
19682TIP3    H280462   3.639   0.869   3.053  0.8067 -0.1574  0.4885
19683TIP3   OH280463   6.493   4.502   3.486  0.8114 -0.5235  0.5412
19683TIP3    H180464   6.431   4.489   3.413 -0.7154  0.0677  1.6795
19683TIP3    H280465   6.566   4.444   3.465  0.8515  0.2762 -1.9142
19684TIP3   OH280466   4.430   3.576   1.511 -0.2127 -0.2127 -0.0444
19684TIP3    H180467   4.522   3.572   1.483 -0.8502 -0.0117 -2.4136
19684TIP3    H280468   4.427   3.525   1.592  1.7524 -1.4056 -0.6489
19685TIP3   OH280469   5.142   3.209  12.720 -0.0120  0.0828 -0.0090
19685TIP3    H180470   5.107   3.264  12.790 -0.8239 -0.4923  0.0505
19685TIP3    H280471   5.132   3.119  12.753 -0.7565 -0.2176 -1.0138
19686TIP3   OH280472   2.934   3.768   5.458  0.3574  0.1881 -0.1076
19686TIP3    H180473   2.882   3.746   5.381  0.3879  1.6520 -0.5937
19686TIP3    H280474   3.025   3.756   5.431  0.3593  0.4551 -0.2234
19687TIP3   OH280475   0.255   4.523  13.275 -0.1571 -0.6991  0.2491
19687TIP3    H180476   0.225   4.593  13.333  1.6655  0.6530 -0.3450
19687TIP3    H280477   0.187   4.516  13.208  0.1600  1.3748 -0.3547
19688TIP3   OH280478   5.129   0.704  11.656  0.1485 -0.0606 -0.2993
19688TIP3    H180479   5.123   0.634  11.721 -0.6001  0.3616  0.0899
19688TIP3    H280480   5.179   0.665  11.584  0.8896 -0.5719  0.4674
19689TIP3   OH280481   1.548   4.146  17.015 -0.2508 -0.2099  0.6860
19689TIP3    H180482   1.573   4.121  17.104  0.7081 -1.3778  0.1130
19689TIP3    H280483   1.627   4.187  16.979 -0.3776 -0.4830  0.1026
19690TIP3   OH280484   2.233   1.073   2.576  0.3869 -0.3663 -0.4611
19690TIP3    H180485   2.267   1.079   2.665  1.4640 -0.2539 -0.8664
19690TIP3    H280486   2.239   0.980   2.554 -2.5315 -0.8889  0.5607
19691TIP3   OH280487   6.482   4.983  16.742 -0.0047  0.5439  0.1165
19691TIP3    H180488   6.501   4.966  16.834 -2.1977 -0.3703  0.4710
19691TIP3    H280489   6.398   5.030  16.743  0.6022  1.7506 -1.3770
19692TIP3   OH280490   2.913   1.523  14.216 -0.0586  0.0329  0.3182
19692TIP3    H180491   2.839   1.474  14.251  0.0961  0.8550  1.8692
19692TIP3    H280492   2.954   1.463  14.153 -0.8906 -1.1553  0.8746
19693TIP3   OH280493   1.692   0.778  13.208  0.2795 -0.5626  0.4277
19693TIP3    H180494   1.771   0.726  13.221  1.6238  1.7811  2.5482
19693TIP3    H280495   1.658   0.792  13.296 -0.0647  1.9556 -0.0341
19694TIP3   OH280496   3.241   1.016   4.620  0.7604 -0.2836  0.0020
19694TIP3    H180497   3.166   1.073   4.636  0.2802 -0.8932 -0.0017
19694TIP3    H280498   3.278   1.046   4.537  0.0844 -0.4195 -0.3573
19695TIP3   OH280499   6.202   3.905  16.007 -0.4619 -0.2486 -0.5944
19695TIP3    H180500   6.168   3.994  16.015 -1.0913 -0.4625 -0.7928
19695TIP3    H280501   6.161   3.871  15.928  0.4300 -0.4360 -0.9804
19696TIP3   OH280502   2.354   4.053  15.015  0.3069  0.9467 -0.6713
19696TIP3    H180503   2.370   4.132  15.067 -0.0727  0.6610 -0.1228
19696TIP3    H280504   2.343   3.983  15.079 -0.2338  0.6024 -1.1299
19697TIP3   OH280505   3.544   0.017  13.297 -0.4263  0.2888 -0.2411
19697TIP3    H180506   3.585  -0.059  13.337 -1.2303 -0.6425 -1.0967
19697TIP3    H280507   3.538  -0.006  13.204 -2.7881  0.3693 -0.1736
19698TIP3   OH280508   5.971   2.696  10.995  0.4301  0.4382 -0.7092
19698TIP3    H180509   6.042   2.632  10.990  0.4771  0.4776 -0.5435
19698TIP3    H280510   5.903   2.661  10.937 -0.6498 -1.1608  1.3503
19699TIP3   OH280511   2.212   1.902  13.545  0.4380  0.3174  0.0095
19699TIP3    H180512   2.131   1.933  13.586  0.2755  3.2818 -2.1678
19699TIP3    H280513   2.183   1.832  13.486 -0.5271  0.9926 -0.3583
19700TIP3   OH280514   1.660   3.937   4.232 -0.4033  0.1023 -0.2618
19700TIP3    H180515   1.715   4.015   4.235  1.1688 -0.9239 -0.9218
19700TIP3    H280516   1.572   3.969   4.251  0.3783  1.8360  0.7102
19701TIP3   OH280517   5.327   3.599  14.076 -0.1892  0.4830 -0.1568
19701TIP3    H180518   5.264   3.671  14.067 -0.0938  1.3890  4.2537
19701TIP3    H280519   5.273   3.522  14.093 -0.2022 -0.1894 -2.8357
19702TIP3   OH280520   2.567   3.100   4.123 -0.5847  0.4327  0.7222
19702TIP3    H180521   2.549   3.151   4.044  0.5763 -1.6945 -1.0022
19702TIP3    H280522   2.539   3.011   4.102  1.5655 -0.6176  1.9554
19703TIP3   OH280523   6.142   1.939  17.381 -0.5478  0.6022 -0.4087
19703TIP3    H180524   6.101   1.861  17.344 -2.1398  1.3776 -0.3164
19703TIP3    H280525   6.211   1.961  17.319 -1.1020  0.0385 -1.2487
19704TIP3   OH280526   5.204   1.737  10.833  0.4461  0.5686 -0.8454
19704TIP3    H180527   5.182   1.821  10.873 -0.4748  0.1258 -0.3750
19704TIP3    H280528   5.142   1.675  10.872  0.6233 -0.1912 -1.7289
19705TIP3   OH280529   2.527   4.755   0.896 -0.7152 -0.1640  0.0997
19705TIP3    H180530   2.435   4.781   0.906 -0.7805 -1.0829  2.4095
19705TIP3    H280531   2.526   4.660   0.901  0.3766 -0.1688  0.4788
19706TIP3   OH280532   5.623   1.727   3.711 -0.2895 -0.1023 -0.4177
19706TIP3    H180533   5.681   1.755   3.782 -0.2335 -0.7746 -0.1849
19706TIP3    H280534   5.547   1.784   3.719 -1.2696 -1.5404  1.6049
19707TIP3   OH280535   2.596   1.702  12.276 -0.3129 -0.6928 -0.0384
19707TIP3    H180536   2.599   1.641  12.349 -0.0479 -0.4310  0.1711
19707TIP3    H280537   2.503   1.715  12.259 -0.3882  0.0406  0.9187
19708TIP3   OH280538   3.257   2.405  17.337 -0.4072  0.4496  0.1190
19708TIP3    H180539   3.247   2.435  17.246 -1.8687 -1.6508 -0.5239
19708TIP3    H280540   3.318   2.331  17.331 -0.3098  0.4589  0.8948
19709TIP3   OH280541   3.958   0.018   4.778  0.4821  0.4469  0.1274
19709TIP3    H180542   4.018   0.042   4.707  0.5702  2.9863  0.9370
19709TIP3    H280543   3.874   0.057   4.753 -0.1402 -0.7731  0.2684
19710TIP3   OH280544   2.594   0.820   5.882 -0.2142 -0.1546 -0.0546
19710TIP3    H180545   2.531   0.749   5.874  0.8455 -1.3290  1.4483
19710TIP3    H280546   2.577   0.858   5.968 -1.2603  1.9681 -1.1104
19711TIP3   OH280547   3.840   0.748  12.677  0.3657 -0.3992 -0.7464
19711TIP3    H180548   3.918   0.778  12.724 -0.7362 -0.0301  0.9461
19711TIP3    H280549   3.870   0.733  12.588  2.5518 -1.0192  0.0220
19712TIP3   OH280550   2.887   3.944  11.672 -0.1428  0.3443  0.2668
19712TIP3    H180551   2.920   4.017  11.724  1.4781 -0.3117  0.2176
19712TIP3    H280552   2.925   3.957  11.586  1.2957 -1.2382  0.6045
19713TIP3   OH280553   5.919   0.043  15.478  0.2153  0.5407 -0.4505
19713TIP3    H180554   5.886  -0.002  15.555  2.9573 -1.8070 -0.4430
19713TIP3    H280555   5.920  -0.024  15.409  1.6203  1.3933 -1.3284
19714TIP3   OH280556   4.054   1.587   0.454 -0.6252 -0.3161  0.0679
19714TIP3    H180557   4.142   1.596   0.490 -0.8844  0.5317  0.5199
19714TIP3    H280558   4.003   1.546   0.524 -0.7874  0.0021  0.1404
19715TIP3   OH280559   2.090   2.712   4.352 -0.2199 -0.1200 -0.0015
19715TIP3    H180560   2.073   2.647   4.419 -1.4309 -1.3749 -1.4562
19715TIP3    H280561   2.020   2.777   4.362 -0.3201 -0.2323  0.0201
19716TIP3   OH280562   1.054   3.283  11.983 -0.0925 -0.0213 -0.1632
19716TIP3    H180563   0.993   3.278  11.910  0.4418 -1.8381 -0.5385
19716TIP3    H280564   1.115   3.211  11.968  1.3282  0.9123  0.9260
19717TIP3   OH280565   3.997   2.162  16.602 -0.3586  0.4759  0.5620
19717TIP3    H180566   3.930   2.185  16.538 -0.5106  2.0613  1.2573
19717TIP3    H280567   3.952   2.166  16.686  0.3173  0.3446  0.9339
19718TIP3   OH280568   3.590   6.693  13.036  0.1947  0.1772 -0.1577
19718TIP3    H180569   3.579   6.622  12.972 -0.9812  0.6037 -0.4481
19718TIP3    H280570   3.529   6.761  13.007  1.3136  1.3366  0.0968
19719TIP3   OH280571   3.084   2.742  14.077 -0.2785  0.0006 -0.3167
19719TIP3    H180572   3.052   2.752  13.988  0.1957  2.9093 -0.2615
19719TIP3    H280573   3.176   2.716  14.067 -0.0137  1.0232 -0.7576
19720TIP3   OH280574   4.253   1.254  14.620  0.1409  0.0039  0.1965
19720TIP3    H180575   4.189   1.217  14.560 -0.3541  3.2215 -1.4907
19720TIP3    H280576   4.205   1.322  14.668  1.6204  0.5735  0.9449
19721TIP3   OH280577   2.500   5.894  16.245 -0.1419  0.1914 -0.4013
19721TIP3    H180578   2.490   5.826  16.179  1.3229 -0.8571  0.4039
19721TIP3    H280579   2.535   5.849  16.322  1.6334  1.9216 -0.0939
19722TIP3   OH280580   1.576   4.013   2.219  0.2412 -0.1995 -0.2063
19722TIP3    H180581   1.579   4.067   2.297 -0.4117 -4.1584  2.8811
19722TIP3    H280582   1.632   3.937   2.240 -1.2563 -2.2280 -2.8779
19723TIP3   OH280583   5.058   5.783   0.376  0.2585 -0.4929  0.0012
19723TIP3    H180584   5.059   5.837   0.455  0.4193  0.8989 -0.9186
19723TIP3    H280585   5.137   5.808   0.329 -0.4989 -0.3195 -1.2288
19724TIP3   OH280586   4.579   6.199   5.680  0.0363 -0.3716 -0.5185
19724TIP3    H180587   4.602   6.264   5.614  0.9095  0.7163  0.8033
19724TIP3    H280588   4.663   6.173   5.718 -0.5567  0.4770  1.4754
19725TIP3   OH280589   1.959   6.411  17.353 -0.1799  0.1850 -0.3759
19725TIP3    H180590   1.867   6.400  17.378 -0.1372 -3.1713 -1.1959
19725TIP3    H280591   2.004   6.433  17.435 -1.4610  0.1054  0.3782
19726TIP3   OH280592   2.602   1.902   5.008 -0.0526 -0.1488 -0.1897
19726TIP3    H180593   2.602   1.807   4.992 -0.9847 -0.1602 -0.1934
19726TIP3    H280594   2.662   1.914   5.082  1.1486 -0.5708 -1.0521
19727TIP3   OH280595   2.858   2.671   5.561  0.2403  0.0870  0.1623
19727TIP3    H180596   2.882   2.666   5.653  0.5657 -0.4358  0.0528
19727TIP3    H280597   2.817   2.757   5.551  1.2011  0.6074  0.5611
19728TIP3   OH280598   0.890   2.252   3.174 -0.3171  0.3045  0.1581
19728TIP3    H180599   0.823   2.201   3.218 -0.0844 -0.4171 -0.3111
19728TIP3    H280600   0.962   2.258   3.237 -0.2982 -0.0505  0.1697
19729TIP3   OH280601   0.408   0.421   5.551  0.2074  0.1273  0.1789
19729TIP3    H180602   0.342   0.368   5.597 -1.6258  0.6061 -1.7755
19729TIP3    H280603   0.475   0.358   5.523  0.6299 -0.3693  2.1519
19730TIP3   OH280604   4.948   5.554   2.092 -0.0072  0.0136 -0.0532
19730TIP3    H180605   5.022   5.564   2.032 -0.0863 -0.1415 -0.1792
19730TIP3    H280606   4.988   5.541   2.178  0.1447 -1.1629 -0.2836
19731TIP3   OH280607   2.115   3.915  17.204  0.0539  0.0140  0.3240
19731TIP3    H180608   2.205   3.896  17.232  0.3924  1.9577  0.7391
19731TIP3    H280609   2.084   3.979  17.268 -1.4405 -0.1851 -0.1637
19732TIP3   OH280610   2.035   5.889   3.272 -0.2907 -0.0959  0.2095
19732TIP3    H180611   2.104   5.904   3.336 -2.5805  2.2178  2.4199
19732TIP3    H280612   1.990   5.810   3.302  2.5453 -3.0121 -2.5570
19733TIP3   OH280613   4.618   1.216  15.096 -0.2091 -0.1402 -0.0438
19733TIP3    H180614   4.534   1.257  15.117 -0.1682 -1.1668  2.5192
19733TIP3    H280615   4.601   1.166  15.016 -1.3109  1.6408 -1.0003
19734TIP3   OH280616   3.022   4.593   3.804  0.3835 -0.4276 -0.0474
19734TIP3    H180617   2.967   4.666   3.773  0.8943  0.1795  0.4626
19734TIP3    H280618   2.963   4.542   3.859  0.3263  0.2304  0.5120
19735TIP3   OH280619   1.576   3.253  14.064  0.4010  0.0447 -0.3540
19735TIP3    H180620   1.594   3.315  14.134 -1.8055  0.0507  0.3026
19735TIP3    H280621   1.661   3.218  14.039  1.5001  1.9941  0.5024
19736TIP3   OH280622   3.924   0.038  12.515 -0.1981 -0.3684 -0.0132
19736TIP3    H180623   3.884  -0.035  12.468  0.7200 -0.7386 -0.2452
19736TIP3    H280624   4.010   0.005  12.541 -0.2883  0.1956  1.0194
19737TIP3   OH280625   6.203   6.072  14.094 -0.0710 -0.8018 -0.2350
19737TIP3    H180626   6.233   6.078  14.185  0.1483 -2.7435 -0.1535
19737TIP3    H280627   6.108   6.074  14.101 -0.0510  0.5553 -0.1076
19738TIP3   OH280628   1.501   2.560   3.817  0.1416  0.8496  0.2725
19738TIP3    H180629   1.536   2.642   3.784  1.5269  1.1447  2.2904
19738TIP3    H280630   1.407   2.576   3.829 -0.1751  1.1209 -2.1133
19739TIP3   OH280631   1.171   0.619  11.341 -0.3377  0.2469 -0.6757
19739TIP3    H180632   1.213   0.693  11.385  0.2623  0.0830 -0.9543
19739TIP3    H280633   1.165   0.647  11.249  0.7569 -0.4086 -0.9661
19740TIP3   OH280634   1.647   0.203   2.160 -0.3884  0.0109 -0.3454
19740TIP3    H180635   1.693   0.283   2.135 -0.1008  0.0571  0.3060
19740TIP3    H280636   1.623   0.217   2.252  0.8975 -1.2038  0.2069
19741TIP3   OH280637   6.018   4.918  11.362  0.1841 -0.0712 -0.2637
19741TIP3    H180638   6.092   4.979  11.363  0.4074 -0.3400  0.2826
19741TIP3    H280639   5.941   4.974  11.370  0.3967  0.1290  0.4546
19742TIP3   OH280640   4.347   1.680  11.777  0.1612 -0.2606 -0.4138
19742TIP3    H180641   4.410   1.625  11.731  2.1435  0.3937  1.3879
19742TIP3    H280642   4.394   1.712  11.854 -1.4475  2.6069 -0.4851
19743TIP3   OH280643   5.772   2.588   4.393  0.3915  0.0739 -0.0297
19743TIP3    H180644   5.866   2.568   4.394  0.6360  1.1397  0.5104
19743TIP3    H280645   5.769   2.683   4.380 -0.6197  0.0495 -0.0198
19744TIP3   OH280646   5.457   5.156  14.491 -0.1201  0.3914  0.0994
19744TIP3    H180647   5.377   5.209  14.485  2.1334  4.1003 -0.2741
19744TIP3    H280648   5.473   5.147  14.585 -1.5794 -1.5713  0.2225
19745TIP3   OH280649   5.267   1.328  13.590  0.1442 -0.2176  0.5253
19745TIP3    H180650   5.309   1.243  13.581  0.7907  0.1428 -0.0004
19745TIP3    H280651   5.306   1.382  13.520  0.3375  0.7414  1.3503
19746TIP3   OH280652   0.722   3.684  15.369  0.3746 -0.0073 -0.0911
19746TIP3    H180653   0.676   3.713  15.290 -0.1852 -0.1519  0.1772
19746TIP3    H280654   0.658   3.629  15.415  1.2330 -1.2651 -0.3433
19747TIP3   OH280655   6.412   2.394   2.563  0.0380 -0.4221  0.0374
19747TIP3    H180656   6.506   2.383   2.552 -0.2991 -1.7773 -1.9562
19747TIP3    H280657   6.383   2.436   2.482 -0.8006  2.2934  1.6197
19748TIP3   OH280658   2.241   4.389  17.177 -0.2853 -0.0825  0.0099
19748TIP3    H180659   2.302   4.443  17.227  0.3384 -1.9396  1.4098
19748TIP3    H280660   2.291   4.310  17.157 -1.0873 -0.0995 -2.1088
19749TIP3   OH280661   0.670   2.917   0.381  0.6167  0.1331 -0.3335
19749TIP3    H180662   0.751   2.885   0.342 -0.9305 -3.3709 -1.0255
19749TIP3    H280663   0.678   2.894   0.474  0.3674 -0.4084 -0.4409
19750TIP3   OH280664   1.350   3.619  14.694  0.2790 -0.4612 -0.1973
19750TIP3    H180665   1.378   3.528  14.699  1.1162 -0.3078 -1.6756
19750TIP3    H280666   1.321   3.640  14.783  2.1597 -1.5072  0.7193
19751TIP3   OH280667   1.867   2.273   4.208  0.4289 -0.2317  0.4128
19751TIP3    H180668   1.939   2.286   4.269  1.9036  0.9937 -1.4624
19751TIP3    H280669   1.821   2.357   4.206 -0.6540 -0.7863  1.0576
19752TIP3   OH280670   1.462   6.379   3.373 -0.2463 -0.3622  0.2449
19752TIP3    H180671   1.471   6.286   3.393 -0.5563 -0.8906 -1.8965
19752TIP3    H280672   1.550   6.407   3.346 -0.6742 -0.7171 -1.6469
19753TIP3   OH280673   5.203   1.197   4.189 -0.5695 -0.2454  0.3624
19753TIP3    H180674   5.163   1.111   4.201 -0.0630 -0.4362  0.7471
19753TIP3    H280675   5.206   1.235   4.277  0.8999 -0.6124  0.4915
19754TIP3   OH280676   4.384   2.417   6.180  1.0932 -0.1422 -0.6432
19754TIP3    H180677   4.387   2.325   6.155  0.8421 -0.5161  0.6337
19754TIP3    H280678   4.382   2.416   6.276  0.3714  1.1710 -0.6208
19755TIP3   OH280679   4.113   1.112  14.422 -0.0081  0.2826  0.2100
19755TIP3    H180680   4.164   1.049  14.371  0.3788 -1.7972  2.9237
19755TIP3    H280681   4.022   1.094  14.398  0.2518  1.8422 -2.2941
19756TIP3   OH280682   3.757   0.526   4.234 -0.4251  0.3319 -0.3363
19756TIP3    H180683   3.712   0.462   4.289  1.3654 -1.8407 -1.2362
19756TIP3    H280684   3.821   0.567   4.291 -1.5475  1.3688  0.2321
19757TIP3   OH280685   2.255   3.518  14.304  0.0844 -0.5829  0.5181
19757TIP3    H180686   2.223   3.438  14.346 -0.1179 -0.0174  1.4797
19757TIP3    H280687   2.285   3.572  14.377 -1.5215  0.9897  0.0540
19758TIP3   OH280688   0.846   1.804   1.327  0.3867  0.2864 -0.7003
19758TIP3    H180689   0.780   1.777   1.390  0.7441  1.4965  0.2214
19758TIP3    H280690   0.826   1.895   1.308  2.0630  0.8319 -0.0198
19759TIP3   OH280691   6.627   2.065   4.519 -0.1815 -0.0821 -0.3364
19759TIP3    H180692   6.638   1.987   4.573 -0.6281  0.0325 -0.0752
19759TIP3    H280693   6.622   2.137   4.582 -1.0774  0.0141 -0.5094
19760TIP3   OH280694   6.625   0.196   4.730 -0.3153 -0.1345  0.2850
19760TIP3    H180695   6.718   0.213   4.716 -0.4869 -0.7089 -1.8288
19760TIP3    H280696   6.580   0.255   4.670 -1.1935 -1.5733 -0.5489
19761TIP3   OH280697   4.524   2.329   0.859 -0.6668  0.0072  0.3183
19761TIP3    H180698   4.610   2.345   0.898 -0.8520  2.3374 -0.0800
19761TIP3    H280699   4.493   2.416   0.833 -1.7720 -1.1031 -2.4527
19762TIP3   OH280700   3.786   0.765  16.333  0.2903 -0.2242 -0.3029
19762TIP3    H180701   3.799   0.758  16.239  3.4348 -0.5672  0.0317
19762TIP3    H280702   3.779   0.674  16.364  1.3184 -0.2314 -0.0422
19763TIP3   OH280703   4.531   2.784   2.342 -0.3188  0.5752  0.3430
19763TIP3    H180704   4.435   2.781   2.340 -0.3022 -0.7810  0.6988
19763TIP3    H280705   4.551   2.833   2.422 -0.7042  0.9762  0.2026
19764TIP3   OH280706   3.684   5.363   4.065 -0.3914 -0.4371 -0.0674
19764TIP3    H180707   3.656   5.276   4.034  0.2555 -1.5897  2.3444
19764TIP3    H280708   3.629   5.379   4.142 -1.0159  1.6962 -0.8950
19765TIP3   OH280709   5.108   4.712   1.482  0.3322 -0.0019  0.0657
19765TIP3    H180710   5.126   4.804   1.501 -0.0884  0.0592  0.1805
19765TIP3    H280711   5.193   4.675   1.459  0.4501  0.4953 -0.3164
19766TIP3   OH280712   4.490   5.432  13.826 -0.0913 -0.1155 -0.0170
19766TIP3    H180713   4.415   5.448  13.883 -0.4096  0.3755 -0.5565
19766TIP3    H280714   4.518   5.343  13.846 -1.4599 -0.6872 -0.5419
19767TIP3   OH280715   1.813   4.202   5.370  0.2871 -0.5106 -0.0380
19767TIP3    H180716   1.822   4.263   5.444 -0.2564 -1.9038  1.2315
19767TIP3    H280717   1.903   4.183   5.344  0.4741  1.2290 -0.8473
19768TIP3   OH280718   2.105   0.571  10.584 -0.2859 -0.0986  0.4754
19768TIP3    H180719   2.018   0.541  10.609  0.2581 -0.6513  1.7922
19768TIP3    H280720   2.159   0.491  10.584  0.8411  0.5698  2.5499
19769TIP3   OH280721   6.342   2.676  13.968  0.1435  0.0022 -0.7787
19769TIP3    H180722   6.267   2.640  13.922 -0.2102  0.4939 -0.5931
19769TIP3    H280723   6.409   2.608  13.962  0.2484  0.2084 -2.3799
19770TIP3   OH280724   3.270   1.632   2.180 -0.1151 -0.1373 -0.0297
19770TIP3    H180725   3.335   1.637   2.250 -1.1522 -4.7496  1.6006
19770TIP3    H280726   3.198   1.686   2.211  1.0868  1.3830  0.2714
19771TIP3   OH280727   4.911   5.151  11.046  0.0531  0.0664  0.7185
19771TIP3    H180728   4.874   5.104  11.121  0.5244 -0.4386  0.6422
19771TIP3    H280729   4.875   5.107  10.969  0.8375 -0.4531  0.6450
19772TIP3   OH280730   2.531   0.875  17.153 -0.2906 -0.7311 -0.4007
19772TIP3    H180731   2.586   0.893  17.077  0.0572 -1.8256 -0.4235
19772TIP3    H280732   2.592   0.876  17.227 -1.0698  3.6078  0.4228
19773TIP3   OH280733   2.660   5.482   1.953  0.4264 -0.2897  0.2772
19773TIP3    H180734   2.660   5.550   2.020  0.0090 -0.0365  0.0237
19773TIP3    H280735   2.609   5.519   1.882 -0.5491 -1.2030  0.4816
19774TIP3   OH280736   4.925   2.305   2.922 -0.3480 -0.2397 -0.6906
19774TIP3    H180737   4.923   2.373   2.855  0.7963 -1.2193 -1.7810
19774TIP3    H280738   5.001   2.326   2.976 -0.9695  0.2593  0.0128
19775TIP3   OH280739   3.022   0.973   0.987  0.1773  0.5910 -0.0223
19775TIP3    H180740   3.001   1.013   1.071 -0.3726 -0.9583  0.6130
19775TIP3    H280741   3.116   0.955   0.991  0.6634  2.6591 -0.7302
19776TIP3   OH280742   0.130   6.697  12.600  0.3222  0.0697  0.5008
19776TIP3    H180743   0.213   6.734  12.570  0.8406 -0.1303  1.6271
19776TIP3    H280744   0.064   6.762  12.573  0.8144  0.1321 -0.5731
19777TIP3   OH280745   3.497   5.281  14.826 -0.1542 -0.0172 -0.1838
19777TIP3    H180746   3.495   5.188  14.848  0.3508  0.5572  2.7338
19777TIP3    H280747   3.550   5.321  14.895 -1.4814  2.6324 -0.5503
19778TIP3   OH280748   6.389   0.956  15.798  0.3967  0.0607  0.2084
19778TIP3    H180749   6.471   0.974  15.844 -0.3547 -0.5353  1.8873
19778TIP3    H280750   6.356   0.875  15.839 -0.9178  0.1571 -0.5823
19779TIP3   OH280751   6.116   3.840  12.891  0.3124 -0.0832 -0.4944
19779TIP3    H180752   6.087   3.846  12.800 -0.8370  0.8187 -0.0938
19779TIP3    H280753   6.211   3.828  12.886  0.1836 -0.6782 -1.8110
19780TIP3   OH280754   5.111   4.975  15.679 -0.0259  0.2951 -0.0252
19780TIP3    H180755   5.171   4.937  15.616  0.4180  1.7106 -0.5054
19780TIP3    H280756   5.038   4.913  15.685 -1.1328  1.0805 -3.5248
19781TIP3   OH280757   1.027   2.650  13.580 -0.0106  0.4993 -0.0992
19781TIP3    H180758   0.992   2.566  13.608 -1.8061  1.4041  0.4728
19781TIP3    H280759   0.982   2.668  13.497  1.1277  0.4527 -0.7572
19782TIP3   OH280760   3.992   5.851   2.360 -0.5601 -0.0864  0.1816
19782TIP3    H180761   4.084   5.839   2.338 -0.8965 -0.1953 -1.2625
19782TIP3    H280762   3.992   5.877   2.452  0.9204  0.1793  0.1199
19783TIP3   OH280763   4.654   4.491   5.051 -0.8507 -0.0434  0.1063
19783TIP3    H180764   4.714   4.486   4.977 -1.7919  1.7643 -0.8385
19783TIP3    H280765   4.709   4.474   5.128  0.1616 -1.8440 -0.9363
19784TIP3   OH280766   6.013   6.100   5.557 -0.2265 -0.3963  0.2945
19784TIP3    H180767   6.022   6.189   5.523  0.9894 -0.8943 -0.7750
19784TIP3    H280768   5.940   6.105   5.618 -0.2464  1.3106  0.1822
19785TIP3   OH280769   4.404   2.466  17.190 -0.1323 -0.4233  0.2842
19785TIP3    H180770   4.373   2.554  17.210  0.7070  0.1004 -0.6224
19785TIP3    H280771   4.368   2.447  17.103  0.1435 -0.7411  0.2355
19786TIP3   OH280772   1.411   1.032  14.542 -0.0143  0.3213 -0.2669
19786TIP3    H180773   1.506   1.021  14.537  0.0545  0.9406 -0.3795
19786TIP3    H280774   1.395   1.117  14.501 -0.6515  0.0711 -0.5415
19787TIP3   OH280775   0.699   0.871  15.698 -0.5830  0.5087 -0.2993
19787TIP3    H180776   0.788   0.842  15.719 -1.2928  0.0257  2.5395
19787TIP3    H280777   0.670   0.917  15.777 -2.1417  2.5329 -1.9396
19788TIP3   OH280778   0.458   0.416  17.109  0.5543  0.9529 -0.3184
19788TIP3    H180779   0.432   0.505  17.086 -0.0405  0.9691  0.3794
19788TIP3    H280780   0.508   0.426  17.190  0.7161  0.6770 -0.3826
19789TIP3   OH280781   6.541   1.534   3.818 -0.1877  0.1485 -0.1167
19789TIP3    H180782   6.571   1.621   3.793  2.4038 -0.4004  0.7996
19789TIP3    H280783   6.538   1.536   3.914 -1.4657 -0.3828 -0.1177
19790TIP3   OH280784   2.264   3.580  12.289 -0.6601 -0.1920  0.1697
19790TIP3    H180785   2.336   3.642  12.278  0.2476 -1.5330 -1.9003
19790TIP3    H280786   2.274   3.548  12.379  1.9259 -1.0094 -0.3342
19791TIP3   OH280787   4.885   3.434  11.999  0.1448 -0.6930  0.4230
19791TIP3    H180788   4.940   3.422  11.923  0.3735 -0.2095  0.5047
19791TIP3    H280789   4.944   3.464  12.068 -0.1880 -0.3149  0.5533
19792TIP3   OH280790   1.777   2.802  15.142 -0.3168 -0.7433  0.0577
19792TIP3    H180791   1.786   2.881  15.088 -3.0302  0.1133  0.6983
19792TIP3    H280792   1.775   2.730  15.079  3.0077 -0.5267 -0.4991
19793TIP3   OH280793   6.194   3.922  17.386 -0.0220  0.4475 -0.0720
19793TIP3    H180794   6.143   3.956  17.313 -0.6739 -0.1326  0.0976
19793TIP3    H280795   6.189   3.827  17.376  0.3961  0.3745  0.3772
19794TIP3   OH280796   1.027   4.445  16.426  0.5174 -0.1284 -0.3947
19794TIP3    H180797   0.953   4.383  16.426  0.0833  0.3469 -1.9954
19794TIP3    H280798   1.036   4.471  16.518 -0.2045 -1.4774  0.0982
19795TIP3   OH280799   1.466   3.152   3.069  0.0127  0.0257 -0.0807
19795TIP3    H180800   1.435   3.145   3.159  0.1144  3.2276  0.3349
19795TIP3    H280801   1.446   3.243   3.044  1.7415 -0.1840 -2.6036
19796TIP3   OH280802   0.077   6.570  11.371  0.2740 -0.1246  0.4246
19796TIP3    H180803   0.121   6.653  11.353  1.2928 -1.2203 -2.7326
19796TIP3    H280804   0.130   6.529  11.439  0.0499  1.5086  1.6642
19797TIP3   OH280805   2.066   3.623  14.123  0.6105 -0.1629 -0.3682
19797TIP3    H180806   2.146   3.589  14.163  1.2523 -0.1455 -1.6100
19797TIP3    H280807   2.090   3.711  14.093 -0.0153  0.0253 -0.3322
19798TIP3   OH280808   1.285   4.632  13.891  0.0037  0.6121 -0.3799
19798TIP3    H180809   1.238   4.584  13.959 -0.4989 -1.6536 -2.1876
19798TIP3    H280810   1.224   4.700  13.863 -0.4441  0.4796  0.2451
19799TIP3   OH280811   4.523   3.827   5.362 -0.1050 -0.2905 -0.4246
19799TIP3    H180812   4.604   3.811   5.314  0.4411 -0.9276  0.6753
19799TIP3    H280813   4.550   3.839   5.453 -1.0876  1.1611 -0.2794
19800TIP3   OH280814   4.359   2.993  15.656  0.6299  0.2409 -0.2475
19800TIP3    H180815   4.267   2.974  15.676  0.3969 -0.2557 -1.7262
19800TIP3    H280816   4.401   3.000  15.742 -0.5021 -0.9390  0.4320
19801TIP3   OH280817   6.457   4.503   4.056 -0.6050  0.3548 -0.2245
19801TIP3    H180818   6.473   4.470   3.968 -1.3679  0.7941 -0.5466
19801TIP3    H280819   6.512   4.581   4.063 -1.0047  0.6744 -0.5524
19802TIP3   OH280820   1.069   2.747   0.552  0.0188 -0.4330 -0.2711
19802TIP3    H180821   1.034   2.658   0.544  0.9397 -0.7988 -0.3907
19802TIP3    H280822   1.055   2.786   0.466 -0.4413 -0.4487 -0.2014
19803TIP3   OH280823   2.435   5.713   2.440 -0.3574 -0.8710  0.1063
19803TIP3    H180824   2.377   5.652   2.395  1.2604 -2.2094 -0.2321
19803TIP3    H280825   2.467   5.665   2.516  0.5689 -0.2824  0.1112
19804TIP3   OH280826   6.303   2.773   5.418 -0.0543  0.0353  0.1884
19804TIP3    H180827   6.331   2.688   5.451 -2.0102 -1.4996 -1.7514
19804TIP3    H280828   6.384   2.817   5.390  0.8291 -2.5293 -1.6256
19805TIP3   OH280829   1.276   0.330  12.883 -0.3839 -0.2306  0.3900
19805TIP3    H180830   1.358   0.354  12.839 -0.4105  1.1115  1.0301
19805TIP3    H280831   1.273   0.386  12.960 -1.9852 -0.1591  0.3018
19806TIP3   OH280832   2.378   5.789   1.388  0.6354 -0.1042 -0.0498
19806TIP3    H180833   2.401   5.790   1.481 -0.2360 -2.3700  0.2665
19806TIP3    H280834   2.283   5.804   1.387  0.6241 -0.1858 -0.5576
19807TIP3   OH280835   3.761   1.863  10.457 -0.0939 -0.2853 -0.4451
19807TIP3    H180836   3.841   1.906  10.486 -0.6767  1.1949 -0.8978
19807TIP3    H280837   3.789   1.777  10.427  0.9295 -0.7742  1.7450
19808TIP3   OH280838   5.256   0.674   1.870  0.2726 -0.5708  0.5344
19808TIP3    H180839   5.190   0.719   1.817  0.2714 -1.0573  0.1092
19808TIP3    H280840   5.268   0.590   1.826 -1.0385 -1.7634  2.3077
19809TIP3   OH280841   5.513   1.688   0.644  0.3550  0.8856 -0.1985
19809TIP3    H180842   5.482   1.771   0.608 -0.5409  0.0131 -1.5495
19809TIP3    H280843   5.459   1.674   0.721 -0.9610  0.5788 -1.1408
19810TIP3   OH280844   3.270   1.400  11.300 -0.5934  0.5131 -0.2304
19810TIP3    H180845   3.204   1.449  11.349 -0.1578  0.5659  0.3193
19810TIP3    H280846   3.240   1.403  11.209 -2.3204 -1.0111  0.2226
19811TIP3   OH280847   1.219   0.429  13.671  0.1142  0.0676 -0.1397
19811TIP3    H180848   1.146   0.470  13.717 -1.8247 -2.3215 -0.9191
19811TIP3    H280849   1.224   0.475  13.588 -0.1462  0.5832  0.1236
19812TIP3   OH280850   6.591   4.420  12.809  0.1944  0.5150  0.1698
19812TIP3    H180851   6.544   4.478  12.749  0.2411 -0.4755 -0.8524
19812TIP3    H280852   6.530   4.349  12.827  1.0990 -0.5717 -0.8415
19813TIP3   OH280853   5.400   1.643   1.869  0.2376  0.0787  0.6956
19813TIP3    H180854   5.423   1.558   1.832  0.1234  1.1662 -2.1748
19813TIP3    H280855   5.405   1.704   1.795 -3.5675  1.9046  1.6219
19814TIP3   OH280856   3.258   5.838  13.879 -0.6515  0.4236  0.2449
19814TIP3    H180857   3.241   5.779  13.952 -0.3592  1.6022  1.2814
19814TIP3    H280858   3.232   5.787  13.802  1.6548 -1.9200  0.8553
19815TIP3   OH280859   1.395   4.131   1.655 -0.5048  0.2783  0.2810
19815TIP3    H180860   1.304   4.149   1.631  0.0615  3.7178  0.2425
19815TIP3    H280861   1.390   4.108   1.748 -1.3408  1.6289  0.6033
19816TIP3   OH280862   1.813   3.553   2.450  0.0869 -0.2231 -0.0149
19816TIP3    H180863   1.880   3.485   2.440  0.7965  0.6652 -1.6838
19816TIP3    H280864   1.853   3.617   2.509  1.0325  0.6334 -1.5297
19817TIP3   OH280865   0.527   3.289   1.447  0.2685 -0.7042  0.2873
19817TIP3    H180866   0.563   3.212   1.492  0.6929 -2.0508 -2.1671
19817TIP3    H280867   0.443   3.259   1.412  0.2013  0.1133 -0.2674
19818TIP3   OH280868   2.332   3.923   5.250  0.2675 -0.1366  0.1405
19818TIP3    H180869   2.325   4.009   5.291  0.6440 -1.0270  2.1772
19818TIP3    H280870   2.283   3.864   5.307  1.3409 -1.5619 -0.3385
19819TIP3   OH280871   3.800   4.746   2.500  0.2382  0.0925 -0.4016
19819TIP3    H180872   3.894   4.761   2.493  0.2760  0.4339  0.6910
19819TIP3    H280873   3.778   4.768   2.590 -0.5790 -1.8082 -0.0842
19820TIP3   OH280874   2.820   6.459  17.037  0.3185  0.1643 -0.6191
19820TIP3    H180875   2.763   6.394  16.995 -0.2541  0.7443 -0.7653
19820TIP3    H280876   2.906   6.446  16.996  0.1801 -0.4273 -0.7192
19821TIP3   OH280877   0.584   4.279  13.154 -0.4573 -0.0861  0.3233
19821TIP3    H180878   0.564   4.185  13.158 -2.0142  0.0759 -1.7848
19821TIP3    H280879   0.564   4.304  13.064  0.5461  2.1564  0.6576
19822TIP3   OH280880   6.060   4.704  12.002  0.0714  0.2800 -0.1309
19822TIP3    H180881   6.127   4.648  11.963 -0.4637  0.6779 -1.6726
19822TIP3    H280882   6.073   4.790  11.960 -1.5518  0.3016 -0.6637
19823TIP3   OH280883   2.155   2.632  16.124 -0.4374  0.5053 -0.2934
19823TIP3    H180884   2.237   2.599  16.087 -0.0119  0.7367  0.4188
19823TIP3    H280885   2.182   2.696  16.190 -0.8698 -3.1897  3.9241
19824TIP3   OH280886   0.041   2.107   0.097  0.3654  0.4320 -0.4915
19824TIP3    H180887   0.009   2.063   0.018 -0.6140  0.2656 -0.0126
19824TIP3    H280888   0.048   2.037   0.162  1.5623  0.4963 -0.5323
19825TIP3   OH280889   4.807   5.964  16.813 -0.5845 -0.1161 -0.6571
19825TIP3    H180890   4.861   5.911  16.872  0.3118  0.0228 -1.3228
19825TIP3    H280891   4.720   5.965  16.853 -0.3095 -1.0836 -0.0179
19826TIP3   OH280892   0.238   1.374   3.924 -0.0619 -0.5361  0.5509
19826TIP3    H180893   0.312   1.352   3.981 -1.2655 -2.5481  1.4329
19826TIP3    H280894   0.278   1.393   3.839  1.7440  2.0748  1.8662
19827TIP3   OH280895   1.076   5.900  12.013  0.0171 -0.2358  0.0486
19827TIP3    H180896   1.044   5.898  12.104 -1.8710 -0.6528 -0.5804
19827TIP3    H280897   1.154   5.845  12.015 -0.0433 -0.3207  1.4081
19828TIP3   OH280898   3.278   5.958  15.996 -0.0750  0.7263 -0.2522
19828TIP3    H180899   3.265   5.911  16.078  0.0914 -2.4495 -1.8786
19828TIP3    H280900   3.359   6.007  16.008 -0.2244  0.5710  1.5639
19829TIP3   OH280901   0.604   4.852   0.970  0.8216 -0.0524  0.0448
19829TIP3    H180902   0.572   4.822   1.055  0.1442  1.0362  0.1953
19829TIP3    H280903   0.683   4.800   0.954  1.4600  0.3373  1.7493
19830TIP3   OH280904   3.314   1.330   0.392 -0.1557 -0.2099  0.2957
19830TIP3    H180905   3.223   1.316   0.419 -0.2429  0.4703  0.3972
19830TIP3    H280906   3.329   1.423   0.409  0.4975 -0.2716  0.0857
19831TIP3   OH280907   2.056   1.208   2.382  0.0821 -0.0482 -0.7507
19831TIP3    H180908   2.119   1.155   2.431 -1.1752 -0.4652  0.5112
19831TIP3    H280909   2.066   1.296   2.417 -0.3808 -0.2229 -0.1482
19832TIP3   OH280910   4.377   4.838   2.585  0.2388 -0.1655 -0.7680
19832TIP3    H180911   4.323   4.902   2.632 -1.0451 -0.6443 -1.5424
19832TIP3    H280912   4.390   4.877   2.498  0.8213 -0.2276 -0.7089
19833TIP3   OH280913   4.709   5.841  16.592 -0.2052 -0.4350 -0.4593
19833TIP3    H180914   4.723   5.894  16.513 -2.2351  0.9979  0.0562
19833TIP3    H280915   4.767   5.879  16.657  0.0674 -0.3789 -0.7298
19834TIP3   OH280916   0.888   1.307   5.583  0.1709 -0.5829  0.0148
19834TIP3    H180917   0.938   1.227   5.603  1.8117 -0.2521 -2.2497
19834TIP3    H280918   0.868   1.299   5.490 -0.3903  1.2408 -0.0567
19835TIP3   OH280919   0.029   0.004  17.261  0.0869  0.0768 -0.0178
19835TIP3    H180920   0.103   0.053  17.297 -0.3970  1.5842 -0.9934
19835TIP3    H280921  -0.037   0.005  17.331 -0.1530  1.4035 -0.2347
19836TIP3   OH280922   1.106   3.839  13.354 -0.0535  0.0369 -0.1006
19836TIP3    H180923   1.093   3.919  13.404  1.1490  0.9091 -1.1310
19836TIP3    H280924   1.165   3.786  13.408 -0.0658  0.2681  0.1411
19837TIP3   OH280925   4.345   1.576   3.727  0.0814  0.1583  0.0667
19837TIP3    H180926   4.251   1.570   3.715 -0.7695  2.3226  3.8600
19837TIP3    H280927   4.369   1.661   3.691  0.0126  0.7307  1.2971
19838TIP3   OH280928   2.983   4.526   0.683  0.1467  0.0405 -0.3210
19838TIP3    H180929   2.916   4.462   0.706  0.4615 -0.6643 -1.3028
19838TIP3    H280930   3.004   4.507   0.591 -0.2385  1.9799 -0.8710
19839TIP3   OH280931   2.266   1.142  12.025 -0.4656 -0.3792 -0.8016
19839TIP3    H180932   2.343   1.126  11.970 -1.0499  0.7676 -1.9906
19839TIP3    H280933   2.284   1.226  12.068 -0.0673 -1.2028  0.7223
19840TIP3   OH280934   5.384   6.636   5.130 -0.0121 -0.6595 -0.0889
19840TIP3    H180935   5.435   6.661   5.053 -0.7469 -2.4310 -1.2167
19840TIP3    H280936   5.447   6.593   5.187  1.0319  2.4915  1.4014
19841TIP3   OH280937   4.736   3.629   1.814  0.2884 -0.4213 -0.2737
19841TIP3    H180938   4.748   3.539   1.844 -1.6826 -0.3576  0.8690
19841TIP3    H280939   4.750   3.683   1.892  0.3261  0.1822 -0.6830
19842TIP3   OH280940   0.996   2.014  16.922  0.3727 -0.0028 -0.1025
19842TIP3    H180941   1.090   2.000  16.908  0.4740 -0.6356  1.0769
19842TIP3    H280942   0.991   2.102  16.960  0.5008 -0.0233 -0.0368
19843TIP3   OH280943   4.660   0.233  15.886  0.2071 -0.3058  0.5178
19843TIP3    H180944   4.614   0.269  15.810 -0.4868  1.9710  1.9132
19843TIP3    H280945   4.711   0.160  15.851 -1.4056 -0.4161 -1.8048
19844TIP3   OH280946   3.510   3.008   2.214 -0.8954  0.3465 -0.3451
19844TIP3    H180947   3.505   2.915   2.194  1.7500  0.4228 -1.9340
19844TIP3    H280948   3.581   3.015   2.279 -3.6527  0.9845  2.8768
19845TIP3   OH280949   6.581   2.852   0.543 -0.4575 -0.1649  0.0997
19845TIP3    H180950   6.498   2.892   0.517 -0.6301 -0.4078  0.2600
19845TIP3    H280951   6.635   2.855   0.465 -0.0505  1.4112  0.4183
19846TIP3   OH280952   2.132   4.703  14.980  0.3012 -0.0561  0.5023
19846TIP3    H180953   2.063   4.641  15.003  0.5188 -0.2362  0.6735
19846TIP3    H280954   2.091   4.763  14.918  0.3599 -0.9589 -0.4453
19847TIP3   OH280955   0.813   1.072  17.362  0.1360  0.8946 -0.3262
19847TIP3    H180956   0.841   1.162  17.380 -4.8245  2.7070 -0.0595
19847TIP3    H280957   0.820   1.063  17.267 -1.2944  2.4784 -0.6281
19848TIP3   OH280958   5.397   1.751   3.296 -0.2754  0.2957 -0.7431
19848TIP3    H180959   5.335   1.819   3.322  1.2113  2.3191 -2.1213
19848TIP3    H280960   5.407   1.696   3.374 -0.5397  2.4463  0.8934
19849TIP3   OH280961   4.713   2.755  13.613 -0.4133  0.2700  0.8906
19849TIP3    H180962   4.775   2.732  13.544 -0.7086  0.8006  0.4476
19849TIP3    H280963   4.627   2.751  13.571 -0.5215  1.5794  0.9612
19850TIP3   OH280964   5.635   3.999   2.153  0.3910 -0.0517  0.4624
19850TIP3    H180965   5.709   4.033   2.103  0.9157  1.2672  2.0304
19850TIP3    H280966   5.559   4.009   2.096  1.1502  0.2599 -0.5016
19851TIP3   OH280967   1.127   3.719   4.649 -0.5020 -0.4845  0.0223
19851TIP3    H180968   1.197   3.656   4.666 -0.2274 -0.5408 -1.2273
19851TIP3    H280969   1.087   3.689   4.568 -0.3189  0.9693 -0.6478
19852TIP3   OH280970   1.163   2.252   0.880 -0.0374  0.0674 -0.3617
19852TIP3    H180971   1.090   2.280   0.825 -1.8958  1.2668  2.4497
19852TIP3    H280972   1.222   2.326   0.882 -1.4764  1.2586  1.5128
19853TIP3   OH280973   0.228   5.791  13.021  0.6031 -0.0834  0.2742
19853TIP3    H180974   0.178   5.765  12.944  0.8682  1.3212 -0.4144
19853TIP3    H280975   0.184   5.870  13.052  1.1833  0.0083  0.8734
19854TIP3   OH280976   4.778   6.677   0.981 -0.4176  0.8561 -0.6365
19854TIP3    H180977   4.807   6.768   0.987  0.4224  0.6378 -1.2357
19854TIP3    H280978   4.693   6.676   1.024  0.4558  1.5156  1.2348
19855TIP3   OH280979   0.384   5.665   3.317 -0.3468 -0.2174  0.6302
19855TIP3    H180980   0.417   5.591   3.267  1.8050 -0.8679  2.8235
19855TIP3    H280981   0.445   5.736   3.297 -2.1395  0.9393 -1.1104
19856TIP3   OH280982   4.798   4.532   3.290  0.0541  0.2193 -0.4285
19856TIP3    H180983   4.847   4.550   3.209 -0.5705 -0.1937 -0.9148
19856TIP3    H280984   4.774   4.619   3.323 -1.0401  0.3780 -1.5550
19857TIP3   OH280985   5.716   5.371   4.871  0.2478  0.1068 -0.0648
19857TIP3    H180986   5.676   5.384   4.785 -0.7849  2.0541  0.6476
19857TIP3    H280987   5.711   5.276   4.886 -2.7778  0.0641 -0.6898
19858TIP3   OH280988   4.440   6.072   1.851  0.8113 -0.2708 -0.1740
19858TIP3    H180989   4.485   6.066   1.767 -1.3070  1.6199 -1.5565
19858TIP3    H280990   4.401   6.159   1.851 -1.5618 -1.2312  1.5554
19859TIP3   OH280991   1.051   0.292   0.419 -0.2138  0.1041 -0.2672
19859TIP3    H180992   1.130   0.339   0.444  0.4201  0.2360 -2.2908
19859TIP3    H280993   1.083   0.209   0.383 -0.9014  0.4374 -1.7336
19860TIP3   OH280994   4.522   5.875  17.158  0.1493 -0.4213  0.2383
19860TIP3    H180995   4.460   5.914  17.097  1.1801  0.0325 -0.5581
19860TIP3    H280996   4.594   5.938  17.162  1.2037 -1.5670  0.0252
19861TIP3   OH280997   2.050   1.067   0.194  0.0600 -0.2471 -0.1926
19861TIP3    H180998   2.036   0.977   0.164  0.0491 -0.4567  0.4377
19861TIP3    H280999   2.145   1.079   0.189  0.0720 -0.3323 -0.1757
19862TIP3   OH281000   5.064   3.166  11.895  0.0914 -0.3162  0.0455
19862TIP3    H181001   5.028   3.134  11.812  2.4194 -1.9713 -0.4065
19862TIP3    H281002   5.103   3.250  11.872  1.4737 -1.1496 -0.7905
19863TIP3   OH281003   5.061   4.291   4.439  0.4055 -0.6033  0.2348
19863TIP3    H181004   5.022   4.325   4.520 -0.1530 -0.1752 -0.1997
19863TIP3    H281005   5.089   4.202   4.461 -2.3628 -1.6120  0.1674
19864TIP3   OH281006   4.372   3.616  12.268  0.2786  0.2142  0.5664
19864TIP3    H181007   4.414   3.665  12.338  0.0871 -1.7009  2.0895
19864TIP3    H281008   4.442   3.564  12.229  0.6543  2.1181 -1.5801
19865TIP3   OH281009   3.180   0.854  13.173 -0.2067  0.0100  0.5652
19865TIP3    H181010   3.263   0.808  13.162  0.5406  0.7956  2.4219
19865TIP3    H281011   3.174   0.870  13.267 -2.1202  0.6367  0.3887
19866TIP3   OH281012   4.859   4.555   0.148  0.4375 -0.1735  0.1435
19866TIP3    H181013   4.872   4.636   0.197 -1.6815 -0.1954  0.8445
19866TIP3    H281014   4.821   4.583   0.064  0.5602 -0.3768  0.0196
19867TIP3   OH281015   1.914   4.018   2.562 -0.5056 -0.4701 -0.0929
19867TIP3    H181016   1.938   3.935   2.604 -1.0530 -1.2559 -1.2741
19867TIP3    H281017   1.841   4.051   2.614  0.2463 -0.2845  0.8835
19868TIP3   OH281018   0.270   4.386  13.954  0.4739  0.3189  0.4229
19868TIP3    H181019   0.257   4.345  14.039  1.7004 -0.3873  0.2944
19868TIP3    H281020   0.313   4.469  13.973  1.0743  0.0014  0.4902
19869TIP3   OH281021   2.645   6.618  15.077  0.5700  0.6279 -0.5226
19869TIP3    H181022   2.692   6.692  15.039 -0.3888 -0.2428 -3.7257
19869TIP3    H281023   2.713   6.564  15.118  1.5583  2.1473 -0.0931
19870TIP3   OH281024   0.588   5.382  16.132 -0.3932 -0.1277  0.0018
19870TIP3    H181025   0.604   5.473  16.155 -0.7979 -0.0193 -0.1378
19870TIP3    H281026   0.570   5.384  16.038 -0.6084 -0.3259  0.0379
19871TIP3   OH281027   3.656   2.371  16.982  0.1335  0.2255 -0.2722
19871TIP3    H181028   3.616   2.341  16.901 -0.3661  2.7664 -1.0492
19871TIP3    H281029   3.637   2.465  16.985  0.3025  0.2559  2.7014
19872TIP3   OH281030   2.494   4.211  13.498  0.1269  0.0906  0.5057
19872TIP3    H181031   2.588   4.207  13.514  0.4123  0.7747 -0.9183
19872TIP3    H281032   2.478   4.299  13.464 -0.4165 -1.0838 -2.6417
19873TIP3   OH281033   6.494   2.700   3.548 -0.6132 -0.1027  0.5404
19873TIP3    H181034   6.528   2.619   3.510  0.4175  0.5832 -0.0633
19873TIP3    H281035   6.435   2.672   3.618  0.3748 -1.3585  0.8941
19874TIP3   OH281036   1.618   3.814  17.179  0.1102  0.2479 -0.0361
19874TIP3    H181037   1.660   3.856  17.254  1.1373  2.0952 -1.5786
19874TIP3    H281038   1.681   3.822  17.108 -0.3315 -2.5155 -0.8821
19875TIP3   OH281039   5.350   1.724   3.622 -0.5864 -0.2266 -0.3917
19875TIP3    H181040   5.316   1.687   3.703 -0.1168 -1.0693 -0.5691
19875TIP3    H281041   5.307   1.809   3.615 -1.0648 -0.3857  0.4449
19876TIP3   OH281042   5.345   2.823   4.655  0.4245 -0.4232  0.8488
19876TIP3    H181043   5.290   2.808   4.578 -0.6544  1.2916  1.2269
19876TIP3    H281044   5.391   2.740   4.668 -0.8375 -1.3893 -0.4759
19877TIP3   OH281045   3.225   3.528  17.149 -0.5992  0.2837 -0.4101
19877TIP3    H181046   3.146   3.573  17.181 -1.1078 -1.1093  0.3839
19877TIP3    H281047   3.242   3.461  17.215  0.5890 -0.1924 -1.1761
19878TIP3   OH281048   2.764   3.066  11.799 -0.2469  0.3737 -0.2369
19878TIP3    H181049   2.847   3.114  11.794  0.2088 -0.5013 -1.8644
19878TIP3    H281050   2.701   3.124  11.756 -0.4829  0.9860  0.8920
19879TIP3   OH281051   0.251   3.027   0.092  0.2329 -0.9221  0.3969
19879TIP3    H181052   0.296   3.079   0.159  0.6863 -1.2995  0.3911
19879TIP3    H281053   0.160   3.025   0.121  0.0819  0.4080  0.0569
19880TIP3   OH281054   3.592   0.872   0.878  0.0887  0.0510  0.2635
19880TIP3    H181055   3.550   0.790   0.905  1.6556 -0.2801  1.9007
19880TIP3    H281056   3.605   0.862   0.783  0.1233 -1.5504  0.4044
19881TIP3   OH281057   3.909   5.629   3.820  0.1855 -0.1152  0.3465
19881TIP3    H181058   3.896   5.534   3.824  2.0741 -0.5218 -1.3826
19881TIP3    H281059   3.826   5.664   3.789 -0.3045 -1.2933  0.2844
19882TIP3   OH281060   0.986   1.139  13.762 -0.7769 -0.3993  0.4399
19882TIP3    H181061   1.015   1.105  13.678 -1.1104 -0.8441  0.5007
19882TIP3    H281062   0.912   1.196  13.741 -0.8101 -0.4483  0.4246
19883TIP3   OH281063   6.348   1.148   6.628  0.4785 -0.2160  0.1751
19883TIP3    H181064   6.264   1.105   6.643  0.3289 -0.8356 -2.1701
19883TIP3    H281065   6.361   1.202   6.707 -4.0022  3.0302 -0.8908
19884TIP3   OH281066   1.405   5.666  16.966  1.0240  0.1276 -0.5539
19884TIP3    H181067   1.460   5.688  17.040 -0.2846 -1.5485  1.0289
19884TIP3    H281068   1.445   5.588  16.928 -0.1535 -1.1053  0.6089
19885TIP3   OH281069   3.309   0.196  12.457 -0.3693  0.3166 -0.3514
19885TIP3    H181070   3.250   0.271  12.456  0.4403  0.9558 -1.2711
19885TIP3    H281071   3.336   0.185  12.366 -1.0032 -1.5220 -0.3607
19886TIP3   OH281072   6.430   1.092   5.795 -0.2718 -0.0716  0.1448
19886TIP3    H181073   6.506   1.034   5.791 -0.0079  0.3343 -2.2863
19886TIP3    H281074   6.467   1.179   5.812 -0.4763 -0.2367  1.5896
19887TIP3   OH281075   4.555   2.793  14.955 -0.0650  1.0891  0.0632
19887TIP3    H181076   4.609   2.868  14.979 -0.8605  1.3407  1.1150
19887TIP3    H281077   4.503   2.824  14.881 -0.9144  1.8372  0.9487
19888TIP3   OH281078   5.783   0.953   0.094  0.2533 -0.6811  0.5703
19888TIP3    H181079   5.753   0.874   0.049 -0.8163 -0.2743  0.5361
19888TIP3    H281080   5.722   1.021   0.066 -0.8809 -0.5452  3.0759
19889TIP3   OH281081   3.073   6.083   0.403 -0.3011 -0.3417 -0.1901
19889TIP3    H181082   3.123   6.002   0.390  0.0177 -0.1702 -0.0524
19889TIP3    H281083   3.139   6.152   0.394 -0.0879 -0.1905  2.0928
19890TIP3   OH281084   2.268   4.821   0.916  0.2343 -0.3494  0.0104
19890TIP3    H181085   2.206   4.875   0.964 -0.7319 -2.2002  0.9678
19890TIP3    H281086   2.213   4.757   0.870  1.3629 -1.7359  0.5062
19891TIP3   OH281087   2.118   4.208  10.900  0.0074 -0.0172  0.3231
19891TIP3    H181088   2.078   4.175  10.981  3.4406 -2.4165  1.2341
19891TIP3    H281089   2.139   4.129  10.850  0.4546  1.3011 -1.6621
19892TIP3   OH281090   1.936   3.986  16.390  0.2287 -0.3366 -0.6541
19892TIP3    H181091   1.951   4.017  16.480 -0.2866  1.1844 -1.0675
19892TIP3    H281092   2.007   4.026  16.339 -0.4041  0.1183 -1.1863
19893TIP3   OH281093   4.567   1.039  12.907 -0.3065  0.5117 -0.0907
19893TIP3    H181094   4.563   0.944  12.915 -0.0363  0.6779  3.5520
19893TIP3    H281095   4.660   1.059  12.898 -0.2004  0.4871  0.8868
19894TIP3   OH281096   1.935   3.213  14.231 -0.1990  0.5851 -0.1623
19894TIP3    H181097   1.935   3.181  14.141 -1.3747 -1.0048  0.3744
19894TIP3    H281098   1.846   3.245  14.245 -0.2513  0.0959  0.6723
19895TIP3   OH281099   3.098   5.712   2.025 -0.0655  0.0529 -0.1710
19895TIP3    H181100   3.089   5.800   2.060 -0.6012  1.1696 -2.8405
19895TIP3    H281101   3.161   5.669   2.082 -0.0589  2.0448  1.4016
19896TIP3   OH281102   3.876   6.305   0.173 -0.0073 -0.5327 -0.2353
19896TIP3    H181103   3.810   6.353   0.123 -1.1079 -1.4432  0.3188
19896TIP3    H281104   3.946   6.287   0.110 -0.5124 -0.0093 -0.9565
19897TIP3   OH281105   2.873   1.117  13.127 -0.0581  0.0115 -0.1495
19897TIP3    H181106   2.831   1.034  13.148 -0.3181 -0.0548 -0.9079
19897TIP3    H281107   2.881   1.162  13.211  0.1771 -0.8196  0.2866
19898TIP3   OH281108   4.374   2.909   0.334 -0.5790 -0.0573 -0.0458
19898TIP3    H181109   4.345   2.877   0.248  1.3300 -0.5229 -0.5673
19898TIP3    H281110   4.419   2.834   0.373  2.0522  1.2099 -0.3627
19899TIP3   OH281111   4.288   5.576  15.777 -0.2282 -0.1236 -0.1462
19899TIP3    H181112   4.273   5.657  15.729  0.7984 -0.6160 -1.3858
19899TIP3    H281113   4.367   5.593  15.829  1.7348 -1.1164 -2.5661
19900TIP3   OH281114   3.800   2.941   0.016  0.3803  0.4851  0.0616
19900TIP3    H181115   3.729   2.884   0.044 -0.8219  1.1888 -1.4427
19900TIP3    H281116   3.866   2.933   0.085 -1.5905  0.6322  2.0469
19901TIP3   OH281117   1.289   6.109   5.712 -0.3377  0.0179 -0.4779
19901TIP3    H181118   1.346   6.048   5.665 -0.1081 -0.8180  0.8359
19901TIP3    H281119   1.210   6.058   5.731 -0.5770  0.4559 -0.2816
19902TIP3   OH281120   5.532   5.614  12.906 -0.7240 -0.1908  0.4441
19902TIP3    H181121   5.565   5.538  12.860 -0.3955 -1.3529  2.4664
19902TIP3    H281122   5.437   5.607  12.901 -0.7020 -1.1437  1.2222
19903TIP3   OH281123   0.083   2.717  15.427 -0.3526  0.3376  0.2564
19903TIP3    H181124   0.006   2.772  15.446  0.0407  0.8386  0.4332
19903TIP3    H281125   0.113   2.748  15.342  0.5915  1.2624  0.8925
19904TIP3   OH281126   0.997   5.884  16.937 -0.5438 -0.4680  1.0340
19904TIP3    H181127   1.067   5.949  16.944 -1.3559  0.5567  0.0841
19904TIP3    H281128   0.958   5.901  16.851 -1.2005 -1.7997  1.0477
19905TIP3   OH281129   6.653   5.490  12.281  0.4628  0.0513 -0.1463
19905TIP3    H181130   6.597   5.413  12.269  1.2523 -0.5030 -0.3094
19905TIP3    H281131   6.650   5.536  12.197 -0.2981  0.4062  0.0644
19906TIP3   OH281132   2.016   3.707  12.616  1.0161  0.0577  0.9734
19906TIP3    H181133   1.989   3.628  12.568  0.6840  1.1500 -0.7111
19906TIP3    H281134   2.084   3.676  12.675  0.8166 -1.5253  0.4379
19907TIP3   OH281135   2.808   1.475   2.576 -0.1233  0.2957 -0.0805
19907TIP3    H181136   2.756   1.465   2.655 -2.3632 -0.1865 -1.4979
19907TIP3    H281137   2.764   1.545   2.527  1.3891  0.8087 -0.7827
19908TIP3   OH281138   0.928   3.956   2.132  0.7879 -0.3393  0.0307
19908TIP3    H181139   0.875   4.028   2.166 -2.1344 -1.2719 -2.1503
19908TIP3    H281140   0.916   3.885   2.195  0.1900 -0.2554  0.0110
19909TIP3   OH281141   4.117   0.784  13.951  0.2059 -0.1013 -0.0238
19909TIP3    H181142   4.199   0.811  13.910  0.6945 -0.4893  0.6724
19909TIP3    H281143   4.141   0.711  14.008 -0.7502 -0.7071 -0.3660
19910TIP3   OH281144   3.354   0.861   5.137 -0.3323  0.6122 -0.2561
19910TIP3    H181145   3.303   0.791   5.096  0.8918  0.0151 -0.8152
19910TIP3    H281146   3.382   0.825   5.221  2.1818 -0.4889 -1.4856
19911TIP3   OH281147   1.113   0.254   2.193  0.2272 -0.0775 -0.3700
19911TIP3    H181148   1.066   0.192   2.138 -0.9523  0.0206  0.4711
19911TIP3    H281149   1.172   0.200   2.246  0.2735 -0.3212 -0.6715
19912TIP3   OH281150   3.443   3.418   0.679 -0.1472 -0.5281  0.3379
19912TIP3    H181151   3.477   3.339   0.637 -0.5012 -0.8531  0.6595
19912TIP3    H281152   3.513   3.482   0.669 -0.4487 -0.4254 -1.2400
19913TIP3   OH281153   3.324   5.535   5.214  0.6860  0.3514  0.2273
19913TIP3    H181154   3.274   5.615   5.226  2.0905  1.5076 -1.1845
19913TIP3    H281155   3.370   5.522   5.296  0.1614  0.7798  0.5933
19914TIP3   OH281156   5.452   2.746  10.952  0.1547 -0.0160 -0.0960
19914TIP3    H181157   5.397   2.671  10.928  1.4670 -1.5451  1.4390
19914TIP3    H281158   5.523   2.745  10.888  0.5795 -0.5744  0.3750
19915TIP3   OH281159   3.899   3.200  11.855 -0.5069  0.0135 -0.0049
19915TIP3    H181160   3.849   3.120  11.841 -1.5394  0.6952 -0.3445
19915TIP3    H281161   3.989   3.177  11.830 -0.9123 -0.8486 -0.7273
19916TIP3   OH281162   3.752   2.484   5.421  0.5268  0.2330 -0.3064
19916TIP3    H181163   3.781   2.546   5.354 -0.6967  1.4958  0.2995
19916TIP3    H281164   3.729   2.538   5.496 -3.3132 -0.6064 -0.6981
19917TIP3   OH281165   6.435   1.427   2.226 -0.1936 -0.2210 -0.2965
19917TIP3    H181166   6.372   1.428   2.154 -2.2465  1.7735  1.4222
19917TIP3    H281167   6.493   1.501   2.208 -0.4160 -0.0085 -0.1383
19918TIP3   OH281168   2.828   0.870   3.927  0.7052 -0.1982  0.8195
19918TIP3    H181169   2.807   0.902   3.840  0.6058 -0.5771  0.6998
19918TIP3    H281170   2.878   0.940   3.968  1.2346 -0.2442  0.2615
19919TIP3   OH281171   0.060   0.933  13.221 -0.1719  0.1941  0.0214
19919TIP3    H181172   0.102   1.017  13.203  0.6923 -0.0764  0.6523
19919TIP3    H281173  -0.012   0.927  13.159  0.2525  1.0468 -0.5658
19920TIP3   OH281174   5.852   2.326   1.067  0.2287  0.0938  0.1240
19920TIP3    H181175   5.921   2.388   1.091  0.4363 -0.3821  0.7687
19920TIP3    H281176   5.789   2.331   1.139  0.7068 -1.1169  0.6561
19921TIP3   OH281177   5.465   3.362  14.227  0.4417 -0.4248  0.1712
19921TIP3    H181178   5.493   3.297  14.163  2.1543 -0.6412  1.0506
19921TIP3    H281179   5.372   3.374  14.211  0.7460 -0.7066 -2.1049
19922TIP3   OH281180   4.753   3.689  12.083  0.4201  0.0171  0.4309
19922TIP3    H181181   4.783   3.618  12.026  0.1317  0.2626 -0.0344
19922TIP3    H281182   4.765   3.656  12.172 -3.8211 -2.4432  0.3540
19923TIP3   OH281183   1.734   1.427  17.206 -0.2280  0.3556 -0.2230
19923TIP3    H181184   1.708   1.379  17.128 -0.6002  2.1501 -1.2518
19923TIP3    H281185   1.803   1.486  17.177  0.8148 -0.1273  1.1857
19924TIP3   OH281186   0.808   2.216  16.650 -0.2916  0.2026  0.1468
19924TIP3    H181187   0.740   2.196  16.714 -0.3303 -0.8971 -0.2220
19924TIP3    H281188   0.829   2.132  16.610  1.2260  0.5458  0.1877
19925TIP3   OH281189   2.085   6.130   6.269 -0.1242 -0.0732 -0.9910
19925TIP3    H181190   2.071   6.224   6.277  6.1785  1.2599 -0.3693
19925TIP3    H281191   2.079   6.097   6.359 -3.0114 -0.5774 -1.2874
19926TIP3   OH281192   1.221   2.285   1.566 -0.4074 -0.0629  0.3900
19926TIP3    H181193   1.198   2.202   1.524 -2.5755  0.7496 -0.1526
19926TIP3    H281194   1.140   2.336   1.565  0.9931  2.3176  0.1605
19927TIP3   OH281195   0.093   3.808   2.218  0.3980  0.4765 -0.3361
19927TIP3    H181196   0.153   3.761   2.160  0.2564  0.0885 -0.1709
19927TIP3    H281197   0.134   3.894   2.230  0.3942  0.5878 -1.0617
19928TIP3   OH281198   0.383   5.343   3.872  0.6026 -0.0453 -0.3643
19928TIP3    H181199   0.457   5.384   3.828  0.3612  0.2559 -0.4973
19928TIP3    H281200   0.336   5.297   3.802  1.3468 -1.2791 -0.0710
19929TIP3   OH281201   2.470   2.202  11.203 -0.0314  0.0580 -0.6843
19929TIP3    H181202   2.472   2.139  11.130 -1.6927 -0.1112 -0.6266
19929TIP3    H281203   2.514   2.280  11.168 -0.2829 -0.2255 -1.6797
19930TIP3   OH281204   2.050   0.063   3.539  0.5610 -0.3676  0.0740
19930TIP3    H181205   2.066   0.011   3.461 -0.3313 -0.9206  0.2454
19930TIP3    H281206   2.133   0.059   3.587  1.1298  0.0146 -0.8510
19931TIP3   OH281207   4.263   4.900   6.121  0.3835  0.5397  0.3475
19931TIP3    H181208   4.305   4.921   6.205  2.7661  0.3036 -0.7096
19931TIP3    H281209   4.336   4.890   6.060 -1.2927  0.8132 -1.8052
19932TIP3   OH281210   3.674   2.454   3.409  0.0715 -0.6614  0.0520
19932TIP3    H181211   3.668   2.540   3.367  1.1103 -0.0643  1.0513
19932TIP3    H281212   3.586   2.438   3.443 -0.5931 -0.8250 -1.6476
19933TIP3   OH281213   6.737   3.557  15.774 -0.5533  0.5419  0.2155
19933TIP3    H181214   6.724   3.642  15.816  1.5464  1.3085 -0.5548
19933TIP3    H281215   6.664   3.548  15.713 -1.1969  1.4490  0.8366
19934TIP3   OH281216   0.284   0.150   4.903 -0.5020 -0.1372  0.1641
19934TIP3    H181217   0.306   0.058   4.915 -1.8197 -0.6600 -1.0739
19934TIP3    H281218   0.188   0.152   4.904 -0.4957  1.2490  0.3578
19935TIP3   OH281219   3.889   4.904   6.407 -0.1254  0.4092  0.1157
19935TIP3    H181220   3.978   4.938   6.420 -0.0759 -0.1465  1.4209
19935TIP3    H281221   3.843   4.927   6.488 -0.6191 -0.9822  0.2536
19936TIP3   OH281222   2.706   3.617   4.444  0.3270  0.0844 -0.5583
19936TIP3    H181223   2.800   3.600   4.433 -0.0964 -2.1201 -1.4217
19936TIP3    H281224   2.684   3.577   4.528  0.5298  2.7135  0.8541
19937TIP3   OH281225   0.116   4.004  13.443 -0.0738  0.1201  0.2854
19937TIP3    H181226   0.044   4.058  13.475 -0.1867  0.4812 -0.5464
19937TIP3    H281227   0.075   3.921  13.420 -0.5723  0.8561 -1.7345
19938TIP3   OH281228   5.745   0.163  12.757  1.3614 -0.1246  0.0651
19938TIP3    H181229   5.689   0.157  12.834  1.0705 -2.4006 -0.2571
19938TIP3    H281230   5.834   0.156  12.791  1.2028 -2.2132  0.1855
19939TIP3   OH281231   5.601   6.090  13.884  0.0998  0.4019  0.1982
19939TIP3    H181232   5.628   6.172  13.842 -1.4315  0.5897 -0.4907
19939TIP3    H281233   5.561   6.118  13.967  0.4823  0.2593  0.4337
19940TIP3   OH281234   5.616   4.649  16.459 -0.3828  0.2619  0.0159
19940TIP3    H181235   5.709   4.673  16.451 -0.6589  1.2162 -0.4516
19940TIP3    H281236   5.616   4.571  16.514  0.8521 -0.8143 -1.4268
19941TIP3   OH281237   0.711   1.193  10.967 -0.0966 -0.2364  0.4901
19941TIP3    H181238   0.654   1.189  10.891  1.8830 -1.6052 -1.0472
19941TIP3    H281239   0.765   1.271  10.953  0.2537 -0.4742  0.4775
19942TIP3   OH281240   1.788   0.628   2.715  0.5697 -0.4159  0.0458
19942TIP3    H181241   1.838   0.708   2.733  0.1891 -0.1706  0.0197
19942TIP3    H281242   1.762   0.596   2.801 -1.1986  0.7243 -0.0089
19943TIP3   OH281243   3.568   2.013  14.392 -0.3501 -0.0608  0.2554
19943TIP3    H181244   3.490   2.066  14.378 -0.1329 -0.2210 -1.9659
19943TIP3    H281245   3.604   2.043  14.476 -1.5976  1.5151  0.2586
19944TIP3   OH281246   4.736   5.597   1.616 -0.4361  0.1927  0.1480
19944TIP3    H181247   4.808   5.579   1.677  2.2990  0.2327 -2.8002
19944TIP3    H281248   4.738   5.524   1.555 -1.2897  1.4243 -1.4217
19945TIP3   OH281249   1.268   1.037  16.297 -0.3163  0.3879  0.4867
19945TIP3    H181250   1.246   1.129  16.281  1.3889  0.4762 -1.8367
19945TIP3    H281251   1.363   1.035  16.298 -0.2968 -1.4808 -0.6682
19946TIP3   OH281252   6.369   4.062  13.472  0.1701 -0.1829  0.2245
19946TIP3    H181253   6.456   4.063  13.432 -0.4353 -0.5356 -1.1715
19946TIP3    H281254   6.348   4.154  13.487  0.8198 -0.1021  0.6977
19947TIP3   OH281255   6.135   2.430   1.884 -0.7130 -0.5509  0.1832
19947TIP3    H181256   6.207   2.368   1.878 -1.3640 -1.5534  2.0490
19947TIP3    H281257   6.175   2.511   1.916 -0.3971 -1.1099  1.2408
19948TIP3   OH281258   6.611   2.579   0.244  0.1245  0.5652  1.0335
19948TIP3    H181259   6.531   2.548   0.285  0.3582 -2.6768 -0.6031
19948TIP3    H281260   6.588   2.591   0.152  1.2099  0.8884  0.7868
19949TIP3   OH281261   3.230   6.202   2.336 -0.3220 -0.2026 -0.1814
19949TIP3    H181262   3.245   6.293   2.310  3.0091 -0.1557  1.3645
19949TIP3    H281263   3.189   6.208   2.422  0.3713 -0.1254  0.1498
19950TIP3   OH281264   5.367   5.524   2.501  0.0145  0.1639 -0.1188
19950TIP3    H181265   5.395   5.436   2.474 -0.2441  0.6246 -2.1005
19950TIP3    H281266   5.279   5.533   2.463 -0.5682  0.7695  1.3039
19951TIP3   OH281267   5.670   6.532  15.371  0.2172  0.3195  0.0549
19951TIP3    H181268   5.597   6.592  15.381  0.1760  0.4257 -0.8051
19951TIP3    H281269   5.639   6.465  15.309  0.7068  0.1492 -0.0174
19952TIP3   OH281270   1.151   5.959   5.292 -0.2279 -0.6199  0.1300
19952TIP3    H181271   1.183   5.881   5.247 -0.6202 -0.7314  0.0441
19952TIP3    H281272   1.068   5.979   5.250 -0.6297 -0.7554  0.8464
19953TIP3   OH281273   3.137   5.890   6.221  0.2619  0.2363 -0.1450
19953TIP3    H181274   3.073   5.959   6.239  0.8593  0.9922 -0.8675
19953TIP3    H281275   3.122   5.825   6.290  0.0347  1.3228  0.8567
19954TIP3   OH281276   0.808   5.628  16.697 -0.3318 -0.1292  0.7269
19954TIP3    H181277   0.899   5.611  16.670  0.1519  1.3583  1.3415
19954TIP3    H281278   0.756   5.606  16.619  0.6478  0.0132  0.0040
19955TIP3   OH281279   4.774   1.287   4.874  0.1021  0.4778 -0.2822
19955TIP3    H181280   4.752   1.315   4.963 -0.0889  1.5141 -0.6461
19955TIP3    H281281   4.741   1.197   4.868 -1.2775  0.9311  0.1936
19956LIG      S81282   4.808   3.172  10.525 -0.2452 -0.1337 -0.4012
19956LIG      O81283   4.409   3.364  11.626  0.0274  0.6137  0.6563
19956LIG     N181284   4.895   3.198  10.851  0.7988  0.1014  0.4954
19956LIG     N281285   4.466   3.601  11.372  0.2230  0.2454  0.6568
19956LIG     N381286   4.227   3.472  11.543  0.2580  0.2392  0.7296
19956LIG     N481287   4.189   3.350  11.578 -0.0976 -0.1805  0.2346
19956LIG     C181288   4.807   3.293  10.921  0.1730  0.2393 -0.0610
19956LIG     C281289   4.984   3.247  10.742 -0.2971  0.4344  0.2921
19956LIG     C381290   4.823   3.072  10.798 -0.4002  0.9822  0.4616
19956LIG     C481291   4.761   3.231  11.052 -0.0330  0.6081 -0.2387
19956LIG     C581292   4.902   3.291  10.625 -0.5355 -0.8108 -0.0925
19956LIG     C681293   4.736   3.100  10.674 -0.1121  0.1242 -0.8718
19956LIG     C781294   4.691   3.330  11.134 -0.0635 -0.3764 -0.3758
19956LIG     C881295   4.693   3.313  11.267 -0.0209  0.3507 -0.4046
19956LIG     C981296   4.614   3.441  11.080 -0.4474  0.8832  0.4396
19956LIG    C1081297   4.542   3.513  11.302 -0.1490 -0.7685 -0.0086
19956LIG    C1181298   4.440   3.594  11.520  0.2162  0.1727 -1.2369
19956LIG    C1281299   4.620   3.404  11.355  0.1189 -0.3854 -0.9983
19956LIG    C1381300   4.540   3.528  11.167 -0.5723  0.1169  0.6832
19956LIG    C1481301   4.354   3.478  11.572  0.6364 -0.5071  0.1408
19956LIG    C1581302   4.379   3.731  11.555  0.4186 -0.2897 -0.4640
19956LIG    C1681303   4.291   3.287  11.632 -0.6500 -0.5330  0.3589
19956LIG    C1781304   4.288   3.153  11.689  0.7829  0.3815  0.0178
19956LIG    C1881305   4.165   3.082  11.696 -0.1555 -0.7425  0.2043
19956LIG    C1981306   4.407   3.097  11.737  0.0553 -0.0874 -0.1413
19956LIG    C2081307   4.169   2.954  11.747 -0.4594  0.3675 -0.8268
19956LIG    C2181308   4.405   2.973  11.795  0.0855  0.0355  0.2238
19956LIG    C2281309   4.283   2.898  11.801 -0.0141  0.9765  0.6772
19956LIG     H181310   4.726   3.330  10.854  0.7115  2.4822  0.4556
19956LIG     H281311   4.871   3.381  10.940  0.8298 -0.5643  1.5782
19956LIG     H381312   5.056   3.167  10.712 -2.3778 -1.1014 -0.8857
19956LIG     H481313   5.047   3.331  10.778  1.4030 -0.7361  0.2059
19956LIG     H581314   4.756   3.027  10.874 -0.7031 -2.9668 -1.8445
19956LIG     H681315   4.892   2.991  10.767 -0.5627  0.2400  1.9457
19956LIG     H781316   4.852   3.196  11.105 -0.6461  0.8639  1.0263
19956LIG     H881317   4.692   3.145  11.031 -0.0925  0.1143  1.7619
19956LIG     H981318   4.839   3.375  10.659 -0.4126 -1.3301  1.5224
19956LIG    H1081319   4.974   3.341  10.556 -0.5173  2.3435  2.0212
19956LIG    H1181320   4.682   3.006  10.650 -1.3376  0.5829 -0.0402
19956LIG    H1281321   4.652   3.165  10.707 -2.4647 -2.1114 -2.0771
19956LIG    H1381322   4.751   3.235  11.314 -0.6690  0.8576  1.2893
19956LIG    H1481323   4.611   3.460  10.974 -1.9422  0.7583  0.4500
19956LIG    H1581324   4.537   3.597  11.575 -0.5303  2.7947  0.0827
19956LIG    H1681325   4.627   3.402  11.463  1.3105 -2.4792 -1.0681
19956LIG    H1781326   4.498   3.618  11.126 -0.2110  0.2531  0.6042
19956LIG    H1881327   4.480   3.696  11.339  2.1801  0.2926  1.4840
19956LIG    H1981328   4.458   3.806  11.536 -1.8635  1.7974 -2.1846
19956LIG    H2081329   4.362   3.719  11.665 -0.1044 -0.9105 -0.6089
19956LIG    H2181330   4.283   3.737  11.500 -1.1294 -0.2893  2.0665
19956LIG    H2281331   4.075   3.108  11.643 -0.8867 -2.4110  0.5978
19956LIG    H2381332   4.500   3.151  11.730  0.9688 -1.7111 -1.1459
19956LIG    H2481333   4.072   2.907  11.751  0.3795 -1.4788 -1.0606
19956LIG    H2581334   4.501   2.935  11.825 -0.1586 -0.0569  0.8985
19956LIG    H2681335   4.287   2.796  11.836 -0.7052  1.6796  2.9898
   6.75079   6.75079  17.44556
