* GENERATE LIGAND
*  DATE:     4/11/25      6:21:18      CREATED BY USER: charmm-gui
*
        60  EXT
         1         1  LIG       S              -6.4526840658        0.0095758920        2.0848071173  LIG       1               0.0000000000
         2         1  LIG       F1              4.0753533361       -4.5910916785       -0.4033347059  LIG       1               0.0000000000
         3         1  LIG       F2              2.2632450108       -3.9346451304       -1.3342038473  LIG       1               0.0000000000
         4         1  LIG       F3              4.1418381049       -3.0629031653       -1.8998333303  LIG       1               0.0000000000
         5         1  LIG       N1             -2.3975593275        0.7884530202       -0.1536302563  LIG       1               0.0000000000
         6         1  LIG       N2             -5.8614282733       -0.6948503740       -1.0665350221  LIG       1               0.0000000000
         7         1  LIG       C1             -4.7552204817       -0.2270023163       -0.1808916877  LIG       1               0.0000000000
         8         1  LIG       C2             -3.5985197486        0.4744362235       -0.9508829281  LIG       1               0.0000000000
         9         1  LIG       C3             -1.6091095043        1.8797657143       -0.7393070946  LIG       1               0.0000000000
        10         1  LIG       C4             -1.6031438938       -0.4204472256        0.1369541266  LIG       1               0.0000000000
        11         1  LIG       C5             -0.4994826711        2.2685858137        0.2515752120  LIG       1               0.0000000000
        12         1  LIG       C6             -0.4898505678       -0.0667902336        1.1317198496  LIG       1               0.0000000000
        13         1  LIG       C7              0.3473528229        1.0751196912        0.6169816600  LIG       1               0.0000000000
        14         1  LIG       C8             -5.2576703046        0.7444760383        0.9259483722  LIG       1               0.0000000000
        15         1  LIG       C9             -6.8983820492       -1.4200839228       -0.3130096128  LIG       1               0.0000000000
        16         1  LIG       C10            -7.5554012590       -0.5024483079        0.7349100521  LIG       1               0.0000000000
        17         1  LIG       C11             1.6929685514        1.0153283635        0.4576286999  LIG       1               0.0000000000
        18         1  LIG       C12            -5.3964751612       -1.5075930943       -2.1870381733  LIG       1               0.0000000000
        19         1  LIG       C13             2.4304353193       -0.2056821163        0.8031450008  LIG       1               0.0000000000
        20         1  LIG       C14             2.4278402434        2.1766734853       -0.0520662545  LIG       1               0.0000000000
        21         1  LIG       C15             2.6136427549       -1.2218522449       -0.1519072158  LIG       1               0.0000000000
        22         1  LIG       C16             2.8807691081       -0.4050059592        2.1173491730  LIG       1               0.0000000000
        23         1  LIG       C17             2.8786275994        3.1692355994        0.8361921693  LIG       1               0.0000000000
        24         1  LIG       C18             2.6053810368        2.3555193170       -1.4349829933  LIG       1               0.0000000000
        25         1  LIG       C19             3.2529168619       -2.4358079910        0.1899194402  LIG       1               0.0000000000
        26         1  LIG       C20             3.5156903127       -1.5993912679        2.4698836577  LIG       1               0.0000000000
        27         1  LIG       C21             3.5100665792        4.3196014836        0.3474227909  LIG       1               0.0000000000
        28         1  LIG       C22             3.2355428873        3.5080141452       -1.9215901259  LIG       1               0.0000000000
        29         1  LIG       C23             3.7035646619       -2.6063301985        1.5168088939  LIG       1               0.0000000000
        30         1  LIG       C24             3.6899486727        4.4870904525       -1.0304655467  LIG       1               0.0000000000
        31         1  LIG       C25             3.4340094143       -3.4940085435       -0.8423756139  LIG       1               0.0000000000
        32         1  LIG       H1             -4.3380714376       -1.1232558298        0.3303387000  LIG       1               0.0000000000
        33         1  LIG       H2             -3.2429373539       -0.1621733925       -1.7864435988  LIG       1               0.0000000000
        34         1  LIG       H3             -4.0139467319        1.4021133819       -1.4031051709  LIG       1               0.0000000000
        35         1  LIG       H4             -2.2649068389        2.7642645440       -0.9078035055  LIG       1               0.0000000000
        36         1  LIG       H5             -1.1843806371        1.5670835944       -1.7188543931  LIG       1               0.0000000000
        37         1  LIG       H6             -1.1745193441       -0.8290500944       -0.8061545954  LIG       1               0.0000000000
        38         1  LIG       H7             -2.2361389699       -1.2121144983        0.5954609130  LIG       1               0.0000000000
        39         1  LIG       H8             -0.9728804908        2.6784769414        1.1694586244  LIG       1               0.0000000000
        40         1  LIG       H9              0.0748267491        3.1000252882       -0.2122347077  LIG       1               0.0000000000
        41         1  LIG       H10             0.0855049888       -0.9999981102        1.3190116176  LIG       1               0.0000000000
        42         1  LIG       H11            -0.9573591797        0.2225526012        2.0973931289  LIG       1               0.0000000000
        43         1  LIG       H12            -4.3749799591        1.1033550249        1.4985990876  LIG       1               0.0000000000
        44         1  LIG       H13            -5.6986449861        1.6336403881        0.4262222934  LIG       1               0.0000000000
        45         1  LIG       H14            -6.4474203271       -2.3045552473        0.1893632144  LIG       1               0.0000000000
        46         1  LIG       H15            -7.6830982318       -1.7775086461       -1.0150009776  LIG       1               0.0000000000
        47         1  LIG       H16            -7.9731100382        0.3870127221        0.2141583204  LIG       1               0.0000000000
        48         1  LIG       H17            -8.4135513776       -1.0588173831        1.1715314591  LIG       1               0.0000000000
        49         1  LIG       H18            -4.6022077800       -2.2193203992       -1.8680857037  LIG       1               0.0000000000
        50         1  LIG       H19            -4.9830813245       -0.8681332359       -2.9995464509  LIG       1               0.0000000000
        51         1  LIG       H20            -6.2219605962       -2.1018197177       -2.6361394272  LIG       1               0.0000000000
        52         1  LIG       H21             2.2444505517       -1.0663410866       -1.1592438662  LIG       1               0.0000000000
        53         1  LIG       H22             2.7297696265        0.3587009612        2.8687266967  LIG       1               0.0000000000
        54         1  LIG       H23             2.7293750533        3.0583574711        1.9021805453  LIG       1               0.0000000000
        55         1  LIG       H24             2.2441945416        1.6124332384       -2.1333979591  LIG       1               0.0000000000
        56         1  LIG       H25             3.8595764890       -1.7490472061        3.4836080180  LIG       1               0.0000000000
        57         1  LIG       H26             3.8532325479        5.0806482259        1.0350257579  LIG       1               0.0000000000
        58         1  LIG       H27             3.3666587457        3.6430781355       -2.9865330412  LIG       1               0.0000000000
        59         1  LIG       H28             4.2005390935       -3.5180787407        1.8236615450  LIG       1               0.0000000000
        60         1  LIG       H29             4.1781065657        5.3758520121       -1.4068497586  LIG       1               0.0000000000
