PSF EXT CMAP XPLOR

         2 !NTITLE
* GENERATE LIGAND                                                               
*  DATE:     4/11/25      6:21:18      CREATED BY USER: charmm-gui              

        60 !NATOM
         1 LIG      1        LIG      S        SG311   -0.272000       32.0600           0
         2 LIG      1        LIG      F1       FGA3    -0.177000       18.9980           0
         3 LIG      1        LIG      F2       FGA3    -0.177000       18.9980           0
         4 LIG      1        LIG      F3       FGA3    -0.177000       18.9980           0
         5 LIG      1        LIG      N1       NG301   -0.712000       14.0070           0
         6 LIG      1        LIG      N2       NG301   -0.631000       14.0070           0
         7 LIG      1        LIG      C1       CG311    0.129000       12.0110           0
         8 LIG      1        LIG      C2       CG321    0.400000E-01   12.0110           0
         9 LIG      1        LIG      C3       CG321    0.126000       12.0110           0
        10 LIG      1        LIG      C4       CG321    0.126000       12.0110           0
        11 LIG      1        LIG      C5       CG321   -0.264000       12.0110           0
        12 LIG      1        LIG      C6       CG321   -0.264000       12.0110           0
        13 LIG      1        LIG      C7       CG2DC1   0.266000       12.0110           0
        14 LIG      1        LIG      C8       CG321   -0.510000E-01   12.0110           0
        15 LIG      1        LIG      C9       CG321    0.600000E-01   12.0110           0
        16 LIG      1        LIG      C10      CG321   -0.270000E-01   12.0110           0
        17 LIG      1        LIG      C11      CG2DC1  -0.186000       12.0110           0
        18 LIG      1        LIG      C12      CG331   -0.980000E-01   12.0110           0
        19 LIG      1        LIG      C13      CG2R61   0.460000E-01   12.0110           0
        20 LIG      1        LIG      C14      CG2R61  -0.900000E-02   12.0110           0
        21 LIG      1        LIG      C15      CG2R61  -0.470000E-01   12.0110           0
        22 LIG      1        LIG      C16      CG2R61  -0.121000       12.0110           0
        23 LIG      1        LIG      C17      CG2R61  -0.121000       12.0110           0
        24 LIG      1        LIG      C18      CG2R61  -0.121000       12.0110           0
        25 LIG      1        LIG      C19      CG2R61  -0.322000       12.0110           0
        26 LIG      1        LIG      C20      CG2R61  -0.600000E-01   12.0110           0
        27 LIG      1        LIG      C21      CG2R61  -0.115000       12.0110           0
        28 LIG      1        LIG      C22      CG2R61  -0.115000       12.0110           0
        29 LIG      1        LIG      C23      CG2R61  -0.410000E-01   12.0110           0
        30 LIG      1        LIG      C24      CG2R61  -0.115000       12.0110           0
        31 LIG      1        LIG      C25      CG302    0.589000       12.0110           0
        32 LIG      1        LIG      H1       HGA1     0.900000E-01   1.00800           0
        33 LIG      1        LIG      H2       HGA2     0.900000E-01   1.00800           0
        34 LIG      1        LIG      H3       HGA2     0.900000E-01   1.00800           0
        35 LIG      1        LIG      H4       HGA2     0.900000E-01   1.00800           0
        36 LIG      1        LIG      H5       HGA2     0.900000E-01   1.00800           0
        37 LIG      1        LIG      H6       HGA2     0.900000E-01   1.00800           0
        38 LIG      1        LIG      H7       HGA2     0.900000E-01   1.00800           0
        39 LIG      1        LIG      H8       HGA2     0.900000E-01   1.00800           0
        40 LIG      1        LIG      H9       HGA2     0.900000E-01   1.00800           0
        41 LIG      1        LIG      H10      HGA2     0.900000E-01   1.00800           0
        42 LIG      1        LIG      H11      HGA2     0.900000E-01   1.00800           0
        43 LIG      1        LIG      H12      HGA2     0.900000E-01   1.00800           0
        44 LIG      1        LIG      H13      HGA2     0.900000E-01   1.00800           0
        45 LIG      1        LIG      H14      HGA2     0.900000E-01   1.00800           0
        46 LIG      1        LIG      H15      HGA2     0.900000E-01   1.00800           0
        47 LIG      1        LIG      H16      HGA2     0.900000E-01   1.00800           0
        48 LIG      1        LIG      H17      HGA2     0.900000E-01   1.00800           0
        49 LIG      1        LIG      H18      HGA3     0.900000E-01   1.00800           0
        50 LIG      1        LIG      H19      HGA3     0.900000E-01   1.00800           0
        51 LIG      1        LIG      H20      HGA3     0.900000E-01   1.00800           0
        52 LIG      1        LIG      H21      HGR61    0.118000       1.00800           0
        53 LIG      1        LIG      H22      HGR61    0.115000       1.00800           0
        54 LIG      1        LIG      H23      HGR61    0.115000       1.00800           0
        55 LIG      1        LIG      H24      HGR61    0.115000       1.00800           0
        56 LIG      1        LIG      H25      HGR61    0.115000       1.00800           0
        57 LIG      1        LIG      H26      HGR61    0.115000       1.00800           0
        58 LIG      1        LIG      H27      HGR61    0.115000       1.00800           0
        59 LIG      1        LIG      H28      HGR61    0.118000       1.00800           0
        60 LIG      1        LIG      H29      HGR61    0.115000       1.00800           0

        63 !NBOND: bonds
         1        14         1        16         2        31         3        31
         4        31         5         8         5         9         5        10
         6         7         6        15         6        18         7         8
         7        14         7        32         8        33         8        34
         9        11         9        35         9        36        10        12
        10        37        10        38        11        13        11        39
        11        40        12        13        12        41        12        42
        13        17        14        43        14        44        15        16
        15        45        15        46        16        47        16        48
        17        19        17        20        18        49        18        50
        18        51        19        21        19        22        20        23
        20        24        21        25        21        52        22        26
        22        53        23        27        23        54        24        28
        24        55        25        29        25        31        26        29
        26        56        27        30        27        57        28        30
        28        58        29        59        30        60

       115 !NTHETA: angles
        14         1        16         8         5         9         8         5        10
         9         5        10         7         6        15         7         6        18
        15         6        18         6         7         8         6         7        14
         6         7        32         8         7        14         8         7        32
        14         7        32         5         8         7         5         8        33
         5         8        34         7         8        33         7         8        34
        33         8        34         5         9        11         5         9        35
         5         9        36        11         9        35        11         9        36
        35         9        36         5        10        12         5        10        37
         5        10        38        12        10        37        12        10        38
        37        10        38         9        11        13         9        11        39
         9        11        40        13        11        39        13        11        40
        39        11        40        10        12        13        10        12        41
        10        12        42        13        12        41        13        12        42
        41        12        42        11        13        12        11        13        17
        12        13        17         1        14         7         1        14        43
         1        14        44         7        14        43         7        14        44
        43        14        44         6        15        16         6        15        45
         6        15        46        16        15        45        16        15        46
        45        15        46         1        16        15         1        16        47
         1        16        48        15        16        47        15        16        48
        47        16        48        13        17        19        13        17        20
        19        17        20         6        18        49         6        18        50
         6        18        51        49        18        50        49        18        51
        50        18        51        17        19        21        17        19        22
        21        19        22        17        20        23        17        20        24
        23        20        24        19        21        25        19        21        52
        25        21        52        19        22        26        19        22        53
        26        22        53        20        23        27        20        23        54
        27        23        54        20        24        28        20        24        55
        28        24        55        21        25        29        21        25        31
        29        25        31        22        26        29        22        26        56
        29        26        56        23        27        30        23        27        57
        30        27        57        24        28        30        24        28        58
        30        28        58        25        29        26        25        29        59
        26        29        59        27        30        28        27        30        60
        28        30        60         2        31         3         2        31         4
         2        31        25         3        31         4         3        31        25
         4        31        25

       165 !NPHI: dihedrals
         1        14         7         6         1        14         7         8
         1        14         7        32         1        16        15         6
         1        16        15        45         1        16        15        46
         2        31        25        21         2        31        25        29
         3        31        25        21         3        31        25        29
         4        31        25        21         4        31        25        29
         5         8         7         6         5         8         7        14
         5         8         7        32         5         9        11        13
         5         9        11        39         5         9        11        40
         5        10        12        13         5        10        12        41
         5        10        12        42         6         7         8        33
         6         7         8        34         6         7        14        43
         6         7        14        44         6        15        16        47
         6        15        16        48         7         6        15        16
         7         6        15        45         7         6        15        46
         7         6        18        49         7         6        18        50
         7         6        18        51         7         8         5         9
         7         8         5        10         7        14         1        16
         8         5         9        11         8         5         9        35
         8         5         9        36         8         5        10        12
         8         5        10        37         8         5        10        38
         8         7         6        15         8         7         6        18
         8         7        14        43         8         7        14        44
         9         5         8        33         9         5         8        34
         9         5        10        12         9         5        10        37
         9         5        10        38         9        11        13        12
         9        11        13        17        10         5         8        33
        10         5         8        34        10         5         9        11
        10         5         9        35        10         5         9        36
        10        12        13        11        10        12        13        17
        11        13        12        41        11        13        12        42
        11        13        17        19        11        13        17        20
        12        13        11        39        12        13        11        40
        12        13        17        19        12        13        17        20
        13        11         9        35        13        11         9        36
        13        12        10        37        13        12        10        38
        13        17        19        21        13        17        19        22
        13        17        20        23        13        17        20        24
        14         1        16        15        14         1        16        47
        14         1        16        48        14         7         6        15
        14         7         6        18        14         7         8        33
        14         7         8        34        15         6         7        32
        15         6        18        49        15         6        18        50
        15         6        18        51        16         1        14        43
        16         1        14        44        16        15         6        18
        17        13        11        39        17        13        11        40
        17        13        12        41        17        13        12        42
        17        19        21        25        17        19        21        52
        17        19        22        26        17        19        22        53
        17        20        23        27        17        20        23        54
        17        20        24        28        17        20        24        55
        18         6         7        32        18         6        15        45
        18         6        15        46        19        17        20        23
        19        17        20        24        19        21        25        29
        19        21        25        31        19        22        26        29
        19        22        26        56        20        17        19        21
        20        17        19        22        20        23        27        30
        20        23        27        57        20        24        28        30
        20        24        28        58        21        19        22        26
        21        19        22        53        21        25        29        26
        21        25        29        59        22        19        21        25
        22        19        21        52        22        26        29        25
        22        26        29        59        23        20        24        28
        23        20        24        55        23        27        30        28
        23        27        30        60        24        20        23        27
        24        20        23        54        24        28        30        27
        24        28        30        60        25        29        26        56
        26        29        25        31        27        30        28        58
        28        30        27        57        29        25        21        52
        29        26        22        53        30        27        23        54
        30        28        24        55        31        25        21        52
        31        25        29        59        32         7         8        33
        32         7         8        34        32         7        14        43
        32         7        14        44        35         9        11        39
        35         9        11        40        36         9        11        39
        36         9        11        40        37        10        12        41
        37        10        12        42        38        10        12        41
        38        10        12        42        45        15        16        47
        45        15        16        48        46        15        16        47
        46        15        16        48        53        22        26        56
        54        23        27        57        55        24        28        58
        56        26        29        59        57        27        30        60
        58        28        30        60

         0 !NIMPHI: impropers


         0 !NDON: donors


         0 !NACC: acceptors


         0 !NNB

         0         0         0         0         0         0         0         0
         0         0         0         0         0         0         0         0
         0         0         0         0         0         0         0         0
         0         0         0         0         0         0         0         0
         0         0         0         0         0         0         0         0
         0         0         0         0         0         0         0         0
         0         0         0         0         0         0         0         0
         0         0         0         0

         1         0 !NGRP NST2
         0         1         0

         0         0 !NUMLP NUMLPH

         0 !NCRTERM: cross-terms

