* GENERATED BY CHARMM-GUI (HTTP://WWW.CHARMM-GUI.ORG)
*
        31  EXT
         1         1  LIG       S              -6.4197000000        0.0406000000        2.0014000000  LIG       1               0.0000000000
         2         1  LIG       F1              4.0891000000       -4.5666000000       -0.3300000000  LIG       1               0.0000000000
         3         1  LIG       F2              2.2644000000       -3.9681000000       -1.3500000000  LIG       1               0.0000000000
         4         1  LIG       F3              4.1577000000       -3.0656000000       -1.9017000000  LIG       1               0.0000000000
         5         1  LIG       N1             -2.4545000000        0.7954000000       -0.0988000000  LIG       1               0.0000000000
         6         1  LIG       N2             -5.8274000000       -0.6541000000       -1.0668000000  LIG       1               0.0000000000
         7         1  LIG       C1             -4.7096000000       -0.2258000000       -0.1896000000  LIG       1               0.0000000000
         8         1  LIG       C2             -3.5798000000        0.4663000000       -0.9734000000  LIG       1               0.0000000000
         9         1  LIG       C3             -1.6425000000        1.8734000000       -0.6883000000  LIG       1               0.0000000000
        10         1  LIG       C4             -1.6361000000       -0.4017000000        0.1587000000  LIG       1               0.0000000000
        11         1  LIG       C5             -0.4860000000        2.2723000000        0.2355000000  LIG       1               0.0000000000
        12         1  LIG       C6             -0.4792000000       -0.0937000000        1.1161000000  LIG       1               0.0000000000
        13         1  LIG       C7              0.3323000000        1.0650000000        0.6040000000  LIG       1               0.0000000000
        14         1  LIG       C8             -5.1867000000        0.7651000000        0.8893000000  LIG       1               0.0000000000
        15         1  LIG       C9             -6.8643000000       -1.3833000000       -0.3115000000  LIG       1               0.0000000000
        16         1  LIG       C10            -7.5728000000       -0.5232000000        0.7293000000  LIG       1               0.0000000000
        17         1  LIG       C11             1.6635000000        1.0150000000        0.4585000000  LIG       1               0.0000000000
        18         1  LIG       C12            -5.3743000000       -1.4993000000       -2.1780000000  LIG       1               0.0000000000
        19         1  LIG       C13             2.3680000000       -0.2444000000        0.8217000000  LIG       1               0.0000000000
        20         1  LIG       C14             2.3644000000        2.2218000000       -0.0578000000  LIG       1               0.0000000000
        21         1  LIG       C15             2.5599000000       -1.2377000000       -0.1387000000  LIG       1               0.0000000000
        22         1  LIG       C16             2.8365000000       -0.4316000000        2.1222000000  LIG       1               0.0000000000
        23         1  LIG       C17             2.8311000000        3.1906000000        0.8304000000  LIG       1               0.0000000000
        24         1  LIG       C18             2.5546000000        2.3842000000       -1.4300000000  LIG       1               0.0000000000
        25         1  LIG       C19             3.2203000000       -2.4182000000        0.2014000000  LIG       1               0.0000000000
        26         1  LIG       C20             3.4969000000       -1.6123000000        2.4622000000  LIG       1               0.0000000000
        27         1  LIG       C21             3.4880000000        4.3219000000        0.3465000000  LIG       1               0.0000000000
        28         1  LIG       C22             3.2117000000        3.5155000000       -1.9141000000  LIG       1               0.0000000000
        29         1  LIG       C23             3.6888000000       -2.6056000000        1.5018000000  LIG       1               0.0000000000
        30         1  LIG       C24             3.6784000000        4.4844000000       -1.0258000000  LIG       1               0.0000000000
        31         1  LIG       C25             3.4272000000       -3.4804000000       -0.8248000000  LIG       1               0.0000000000
