* GENERATE LIGAND
*  DATE:     4/15/25     17:58:59      CREATED BY USER: charmm-gui
*
        52  EXT
         1         1  LIG       S               3.6978201531       -4.9412816204       -0.0515320751  LIG       1               0.0000000000
         2         1  LIG       N1              4.7057825569        0.6722232625       -0.2827507502  LIG       1               0.0000000000
         3         1  LIG       N2              4.1756685111        3.1784082636       -0.1782504976  LIG       1               0.0000000000
         4         1  LIG       N3              3.8399058878       -2.0906655549        0.8263459377  LIG       1               0.0000000000
         5         1  LIG       C1              4.7857353860       -0.3300907183       -0.7134546012  LIG       1               0.0000000000
         6         1  LIG       C2              3.2938674287        1.1316634921        0.0077536159  LIG       1               0.0000000000
         7         1  LIG       C3              5.8756445984        1.2193344680       -0.0337219440  LIG       1               0.0000000000
         8         1  LIG       C4              2.9563293345        2.5187120053        0.0092038073  LIG       1               0.0000000000
         9         1  LIG       C5              5.3547350668        2.4605198674        0.3064634369  LIG       1               0.0000000000
        10         1  LIG       C6              3.8958409288       -1.1746646004       -0.2057777410  LIG       1               0.0000000000
        11         1  LIG       C7              5.9126526901       -1.0166236025       -0.9887906575  LIG       1               0.0000000000
        12         1  LIG       C8              4.2722188994        4.3164159907        0.0781247192  LIG       1               0.0000000000
        13         1  LIG       C9              5.0664041926       -2.8623770730        1.1864335774  LIG       1               0.0000000000
        14         1  LIG       C10             2.6036346795       -2.5010669093        0.1921448929  LIG       1               0.0000000000
        15         1  LIG       C11             5.6937644696        4.7796137010        0.0307728429  LIG       1               0.0000000000
        16         1  LIG       C12             4.9959615781       -3.9249952760        0.2992301719  LIG       1               0.0000000000
        17         1  LIG       C13             2.5215415103       -3.7421558664       -0.3010808527  LIG       1               0.0000000000
        18         1  LIG       C14             6.5047364835       -2.4903855906        1.4855060267  LIG       1               0.0000000000
        19         1  LIG       C15             1.4700881567       -1.5410173680        0.0443102279  LIG       1               0.0000000000
        20         1  LIG       C16             6.0150495414       -4.5072207218       -0.3267143448  LIG       1               0.0000000000
        21         1  LIG       C17             1.3043993942       -4.2707376248       -0.0512810349  LIG       1               0.0000000000
        22         1  LIG       C18             7.4539043394       -2.8338637491        0.4844792613  LIG       1               0.0000000000
        23         1  LIG       C19             0.2684093564       -2.0442074325        0.0006831196  LIG       1               0.0000000000
        24         1  LIG       C20             7.1983269614       -3.8394005361       -0.4012490154  LIG       1               0.0000000000
        25         1  LIG       C21             0.1823289619       -3.4524247142        0.0417454202  LIG       1               0.0000000000
        26         1  LIG       H1              4.7048075339        0.0179239340       -1.7412484958  LIG       1               0.0000000000
        27         1  LIG       H2              2.8868926324        0.7777765001        1.0003289246  LIG       1               0.0000000000
        28         1  LIG       H3              2.7589773704        0.7765867034       -0.9121806742  LIG       1               0.0000000000
        29         1  LIG       H4              6.6180932376        1.2272352111       -0.9244505183  LIG       1               0.0000000000
        30         1  LIG       H5              6.2275594112        0.7526818277        0.8997024825  LIG       1               0.0000000000
        31         1  LIG       H6              2.4128794760        2.6872713726       -0.9504658884  LIG       1               0.0000000000
        32         1  LIG       H7              2.5009706599        2.6848563326        1.0198168090  LIG       1               0.0000000000
        33         1  LIG       H8              5.9242315977        2.6693593230        1.2387606035  LIG       1               0.0000000000
        34         1  LIG       H9              5.6617737069        2.6937062184       -0.7604433668  LIG       1               0.0000000000
        35         1  LIG       H10             3.7209685552       -0.7910862070        0.9286365919  LIG       1               0.0000000000
        36         1  LIG       H11             3.3108982369       -1.0824017591       -1.2398069322  LIG       1               0.0000000000
        37         1  LIG       H12             6.8887633492       -0.6157790199       -1.1718098205  LIG       1               0.0000000000
        38         1  LIG       H13             5.4647010979       -1.7636649101       -1.6814854297  LIG       1               0.0000000000
        39         1  LIG       H14             5.9699560143       -1.0649511139        0.0960815883  LIG       1               0.0000000000
        40         1  LIG       H15             4.0119763044        3.9732028065        1.1163737593  LIG       1               0.0000000000
        41         1  LIG       H16             4.0128827243        4.0441353945       -0.9920788921  LIG       1               0.0000000000
        42         1  LIG       H17             6.2145996745        4.3997757736       -0.9068685368  LIG       1               0.0000000000
        43         1  LIG       H18             6.2349749850        4.4954137334        0.9718781891  LIG       1               0.0000000000
        44         1  LIG       H19             5.2691132709        5.7595723759       -0.0331814559  LIG       1               0.0000000000
        45         1  LIG       H20             6.9123602054       -1.4988717708        1.7395785861  LIG       1               0.0000000000
        46         1  LIG       H21             1.5110350292       -0.4481257842        0.0927782717  LIG       1               0.0000000000
        47         1  LIG       H22             6.1670267146       -5.4675509571        0.1491548240  LIG       1               0.0000000000
        48         1  LIG       H23             1.2716035498       -5.3324924659        0.0234833984  LIG       1               0.0000000000
        49         1  LIG       H24             7.9105250594       -2.0340122665       -0.1022130634  LIG       1               0.0000000000
        50         1  LIG       H25            -0.4686553443       -1.2588699151        0.0117995875  LIG       1               0.0000000000
        51         1  LIG       H26             8.0326685084       -4.4852303527       -0.2974553839  LIG       1               0.0000000000
        52         1  LIG       H27            -0.6925107035       -4.0149518618        0.0517649911  LIG       1               0.0000000000
