PSF EXT CMAP XPLOR

         2 !NTITLE
* GENERATE LIGAND                                                               
*  DATE:     4/15/25     17:58:59      CREATED BY USER: charmm-gui              

        52 !NATOM
         1 LIG      1        LIG      S        SG311   -0.246000       32.0600           0
         2 LIG      1        LIG      N1       NG301   -0.704000       14.0070           0
         3 LIG      1        LIG      N2       NG301   -0.713000       14.0070           0
         4 LIG      1        LIG      N3       NG301   -0.382000       14.0070           0
         5 LIG      1        LIG      C1       CG311    0.890000E-01   12.0110           0
         6 LIG      1        LIG      C2       CG321    0.650000E-01   12.0110           0
         7 LIG      1        LIG      C3       CG321    0.650000E-01   12.0110           0
         8 LIG      1        LIG      C4       CG321    0.660000E-01   12.0110           0
         9 LIG      1        LIG      C5       CG321    0.660000E-01   12.0110           0
        10 LIG      1        LIG      C6       CG321    0.290000E-01   12.0110           0
        11 LIG      1        LIG      C7       CG331   -0.238000       12.0110           0
        12 LIG      1        LIG      C8       CG321    0.400000E-01   12.0110           0
        13 LIG      1        LIG      C9       CG2R61   0.229000       12.0110           0
        14 LIG      1        LIG      C10      CG2R61   0.229000       12.0110           0
        15 LIG      1        LIG      C11      CG331   -0.269000       12.0110           0
        16 LIG      1        LIG      C12      CG2R61   0.460000E-01   12.0110           0
        17 LIG      1        LIG      C13      CG2R61   0.460000E-01   12.0110           0
        18 LIG      1        LIG      C14      CG2R61  -0.201000       12.0110           0
        19 LIG      1        LIG      C15      CG2R61  -0.201000       12.0110           0
        20 LIG      1        LIG      C16      CG2R61  -0.108000       12.0110           0
        21 LIG      1        LIG      C17      CG2R61  -0.108000       12.0110           0
        22 LIG      1        LIG      C18      CG2R61  -0.990000E-01   12.0110           0
        23 LIG      1        LIG      C19      CG2R61  -0.990000E-01   12.0110           0
        24 LIG      1        LIG      C20      CG2R61  -0.116000       12.0110           0
        25 LIG      1        LIG      C21      CG2R61  -0.116000       12.0110           0
        26 LIG      1        LIG      H1       HGA1     0.900000E-01   1.00800           0
        27 LIG      1        LIG      H2       HGA2     0.900000E-01   1.00800           0
        28 LIG      1        LIG      H3       HGA2     0.900000E-01   1.00800           0
        29 LIG      1        LIG      H4       HGA2     0.900000E-01   1.00800           0
        30 LIG      1        LIG      H5       HGA2     0.900000E-01   1.00800           0
        31 LIG      1        LIG      H6       HGA2     0.900000E-01   1.00800           0
        32 LIG      1        LIG      H7       HGA2     0.900000E-01   1.00800           0
        33 LIG      1        LIG      H8       HGA2     0.900000E-01   1.00800           0
        34 LIG      1        LIG      H9       HGA2     0.900000E-01   1.00800           0
        35 LIG      1        LIG      H10      HGA2     0.900000E-01   1.00800           0
        36 LIG      1        LIG      H11      HGA2     0.900000E-01   1.00800           0
        37 LIG      1        LIG      H12      HGA3     0.900000E-01   1.00800           0
        38 LIG      1        LIG      H13      HGA3     0.900000E-01   1.00800           0
        39 LIG      1        LIG      H14      HGA3     0.900000E-01   1.00800           0
        40 LIG      1        LIG      H15      HGA2     0.900000E-01   1.00800           0
        41 LIG      1        LIG      H16      HGA2     0.900000E-01   1.00800           0
        42 LIG      1        LIG      H17      HGA3     0.900000E-01   1.00800           0
        43 LIG      1        LIG      H18      HGA3     0.900000E-01   1.00800           0
        44 LIG      1        LIG      H19      HGA3     0.900000E-01   1.00800           0
        45 LIG      1        LIG      H20      HGR61    0.115000       1.00800           0
        46 LIG      1        LIG      H21      HGR61    0.115000       1.00800           0
        47 LIG      1        LIG      H22      HGR61    0.115000       1.00800           0
        48 LIG      1        LIG      H23      HGR61    0.115000       1.00800           0
        49 LIG      1        LIG      H24      HGR61    0.115000       1.00800           0
        50 LIG      1        LIG      H25      HGR61    0.115000       1.00800           0
        51 LIG      1        LIG      H26      HGR61    0.115000       1.00800           0
        52 LIG      1        LIG      H27      HGR61    0.115000       1.00800           0

        55 !NBOND: bonds
         1        16         1        17         2         5         2         6
         2         7         3         8         3         9         3        12
         4        10         4        13         4        14         5        10
         5        11         5        26         6         8         6        27
         6        28         7         9         7        29         7        30
         8        31         8        32         9        33         9        34
        10        35        10        36        11        37        11        38
        11        39        12        15        12        40        12        41
        13        16        13        18        14        17        14        19
        15        42        15        43        15        44        16        20
        17        21        18        22        18        45        19        23
        19        46        20        24        20        47        21        25
        21        48        22        24        22        49        23        25
        23        50        24        51        25        52

       100 !NTHETA: angles
        16         1        17         5         2         6         5         2         7
         6         2         7         8         3         9         8         3        12
         9         3        12        10         4        13        10         4        14
        13         4        14         2         5        10         2         5        11
         2         5        26        10         5        11        10         5        26
        11         5        26         2         6         8         2         6        27
         2         6        28         8         6        27         8         6        28
        27         6        28         2         7         9         2         7        29
         2         7        30         9         7        29         9         7        30
        29         7        30         3         8         6         3         8        31
         3         8        32         6         8        31         6         8        32
        31         8        32         3         9         7         3         9        33
         3         9        34         7         9        33         7         9        34
        33         9        34         4        10         5         4        10        35
         4        10        36         5        10        35         5        10        36
        35        10        36         5        11        37         5        11        38
         5        11        39        37        11        38        37        11        39
        38        11        39         3        12        15         3        12        40
         3        12        41        15        12        40        15        12        41
        40        12        41         4        13        16         4        13        18
        16        13        18         4        14        17         4        14        19
        17        14        19        12        15        42        12        15        43
        12        15        44        42        15        43        42        15        44
        43        15        44         1        16        13         1        16        20
        13        16        20         1        17        14         1        17        21
        14        17        21        13        18        22        13        18        45
        22        18        45        14        19        23        14        19        46
        23        19        46        16        20        24        16        20        47
        24        20        47        17        21        25        17        21        48
        25        21        48        18        22        24        18        22        49
        24        22        49        19        23        25        19        23        50
        25        23        50        20        24        22        20        24        51
        22        24        51        21        25        23        21        25        52
        23        25        52

       147 !NPHI: dihedrals
         1        16        13         4         1        16        13        18
         1        16        20        24         1        16        20        47
         1        17        14         4         1        17        14        19
         1        17        21        25         1        17        21        48
         2         5        10         4         2         5        10        35
         2         5        10        36         2         5        11        37
         2         5        11        38         2         5        11        39
         2         6         8         3         2         6         8        31
         2         6         8        32         2         7         9         3
         2         7         9        33         2         7         9        34
         3         8         6        27         3         8         6        28
         3         9         7        29         3         9         7        30
         3        12        15        42         3        12        15        43
         3        12        15        44         4        10         5        11
         4        10         5        26         4        13        16        20
         4        13        18        22         4        13        18        45
         4        14        17        21         4        14        19        23
         4        14        19        46         5         2         6         8
         5         2         6        27         5         2         6        28
         5         2         7         9         5         2         7        29
         5         2         7        30         5        10         4        13
         5        10         4        14         6         2         5        10
         6         2         5        11         6         2         5        26
         6         2         7         9         6         2         7        29
         6         2         7        30         6         8         3         9
         6         8         3        12         7         2         5        10
         7         2         5        11         7         2         5        26
         7         2         6         8         7         2         6        27
         7         2         6        28         7         9         3         8
         7         9         3        12         8         3         9        33
         8         3         9        34         8         3        12        15
         8         3        12        40         8         3        12        41
         9         3         8        31         9         3         8        32
         9         3        12        15         9         3        12        40
         9         3        12        41        10         4        13        16
        10         4        13        18        10         4        14        17
        10         4        14        19        10         5        11        37
        10         5        11        38        10         5        11        39
        11         5        10        35        11         5        10        36
        12         3         8        31        12         3         8        32
        12         3         9        33        12         3         9        34
        13         4        10        35        13         4        10        36
        13         4        14        17        13         4        14        19
        13        16         1        17        13        16        20        24
        13        16        20        47        13        18        22        24
        13        18        22        49        14         4        10        35
        14         4        10        36        14         4        13        16
        14         4        13        18        14        17         1        16
        14        17        21        25        14        17        21        48
        14        19        23        25        14        19        23        50
        16         1        17        21        16        13        18        22
        16        13        18        45        16        20        24        22
        16        20        24        51        17         1        16        20
        17        14        19        23        17        14        19        46
        17        21        25        23        17        21        25        52
        18        13        16        20        18        22        24        20
        18        22        24        51        19        14        17        21
        19        23        25        21        19        23        25        52
        20        24        22        49        21        25        23        50
        22        24        20        47        23        25        21        48
        24        22        18        45        25        23        19        46
        26         5        10        35        26         5        10        36
        26         5        11        37        26         5        11        38
        26         5        11        39        27         6         8        31
        27         6         8        32        28         6         8        31
        28         6         8        32        29         7         9        33
        29         7         9        34        30         7         9        33
        30         7         9        34        40        12        15        42
        40        12        15        43        40        12        15        44
        41        12        15        42        41        12        15        43
        41        12        15        44        45        18        22        49
        46        19        23        50        47        20        24        51
        48        21        25        52        49        22        24        51
        50        23        25        52

         0 !NIMPHI: impropers


         0 !NDON: donors


         0 !NACC: acceptors


         0 !NNB

         0         0         0         0         0         0         0         0
         0         0         0         0         0         0         0         0
         0         0         0         0         0         0         0         0
         0         0         0         0         0         0         0         0
         0         0         0         0         0         0         0         0
         0         0         0         0         0         0         0         0
         0         0         0         0

         1         0 !NGRP NST2
         0         1         0

         0         0 !NUMLP NUMLPH

         0 !NCRTERM: cross-terms

