* GENERATED BY CHARMM-GUI (HTTP://WWW.CHARMM-GUI.ORG)
*
        25  EXT
         1         1  LIG       S               3.8495000000       -3.2857000000        0.0000000000  LIG       1               0.0000000000
         2         1  LIG       N1              4.5640000000        0.4268000000        0.0000000000  LIG       1               0.0000000000
         3         1  LIG       N2              4.5640000000        2.0768000000        0.0000000000  LIG       1               0.0000000000
         4         1  LIG       N3              3.8495000000       -1.6357000000        0.0000000000  LIG       1               0.0000000000
         5         1  LIG       C1              4.5640000000       -0.3982000000        0.0000000000  LIG       1               0.0000000000
         6         1  LIG       C2              3.8495000000        0.8393000000        0.0000000000  LIG       1               0.0000000000
         7         1  LIG       C3              5.2784000000        0.8393000000        0.0000000000  LIG       1               0.0000000000
         8         1  LIG       C4              3.8495000000        1.6643000000        0.0000000000  LIG       1               0.0000000000
         9         1  LIG       C5              5.2784000000        1.6643000000        0.0000000000  LIG       1               0.0000000000
        10         1  LIG       C6              3.8495000000       -0.8107000000        0.0000000000  LIG       1               0.0000000000
        11         1  LIG       C7              5.2784000000       -0.8107000000        0.0000000000  LIG       1               0.0000000000
        12         1  LIG       C8              4.5640000000        2.9018000000        0.0000000000  LIG       1               0.0000000000
        13         1  LIG       C9              4.5640000000       -2.0482000000        0.0000000000  LIG       1               0.0000000000
        14         1  LIG       C10             3.1350000000       -2.0482000000        0.0000000000  LIG       1               0.0000000000
        15         1  LIG       C11             5.2784000000        3.3143000000        0.0000000000  LIG       1               0.0000000000
        16         1  LIG       C12             4.5640000000       -2.8732000000        0.0000000000  LIG       1               0.0000000000
        17         1  LIG       C13             3.1350000000       -2.8732000000        0.0000000000  LIG       1               0.0000000000
        18         1  LIG       C14             5.3015000000       -1.6071000000        0.0000000000  LIG       1               0.0000000000
        19         1  LIG       C15             2.3975000000       -1.6071000000        0.0000000000  LIG       1               0.0000000000
        20         1  LIG       C16             5.3015000000       -3.3143000000        0.0000000000  LIG       1               0.0000000000
        21         1  LIG       C17             2.3975000000       -3.3143000000        0.0000000000  LIG       1               0.0000000000
        22         1  LIG       C18             6.0490000000       -2.0310000000        0.0000000000  LIG       1               0.0000000000
        23         1  LIG       C19             1.6500000000       -2.0310000000        0.0000000000  LIG       1               0.0000000000
        24         1  LIG       C20             6.0490000000       -2.8904000000        0.0000000000  LIG       1               0.0000000000
        25         1  LIG       C21             1.6500000000       -2.8904000000        0.0000000000  LIG       1               0.0000000000
